INSANE! Membrane UpperLeaflet>loPI:POPI:DPPI:PYPI:ERGO=180.0:5.0:3.0:2.0:10.0 LowerLeaflet>PSPI:POPI:POPS:YOPS:POPE:YOPE:POPC:YOPC:ERGO=6.0:14.0:21.0:9.0:9.0:21.0:12.0:48.0:60.0
49069
    1loPI    C1    1  15.446   7.914  10.056 -0.0840  0.3824 -0.1605
    1loPI    C2    2  15.500   7.770  10.425  0.0846  0.0824 -0.2989
    1loPI    C3    3  15.587   8.152  10.345  0.2038  0.1052 -0.0675
    1loPI   PO4    4  15.220   7.881  10.003  0.0993 -0.2156 -0.1367
    1loPI   GL1    5  15.028   8.100   9.692  0.0760 -0.3210  0.0479
    1loPI   GL2    6  14.646   8.087   9.749  0.1909  0.1873  0.3042
    1loPI   C1A    7  15.216   8.069   9.300  0.0352  0.1598  0.2260
    1loPI   C2A    8  15.127   8.111   8.809  0.1267 -0.0169  0.2620
    1loPI   C3A    9  14.864   8.344   8.665 -0.0074 -0.0511 -0.0551
    1loPI   C4A   10  14.645   8.665   8.541  0.1526 -0.0396 -0.0986
    1loPI   C5A   11  14.339   8.854   8.136  0.2623  0.0144  0.2557
    1loPI   C6A   12  14.083   9.106   7.908  0.2332  0.1112 -0.0386
    1loPI   C1B   13  14.650   8.306   9.327  0.2547  0.0949 -0.1513
    1loPI   C2B   14  14.380   8.168   8.847 -0.0846  0.2058 -0.0893
    1loPI   C3B   15  14.455   8.185   8.465 -0.1102  0.2170  0.2980
    1loPI   C4B   16  14.625   8.440   8.107  0.1756 -0.2041  0.0359
    2loPI    C1   17  10.414   4.044  10.263 -0.1249  0.0414  0.0434
    2loPI    C2   18  10.717   4.293  10.342  0.0597 -0.1518 -0.0426
    2loPI    C3   19  10.645   3.983  10.584  0.0608 -0.2259 -0.1370
    2loPI   PO4   20  10.427   4.164   9.954  0.1605 -0.0750 -0.0949
    2loPI   GL1   21  10.265   4.139   9.588  0.0769  0.0412 -0.0994
    2loPI   GL2   22  10.174   4.395   9.456 -0.2073 -0.3687 -0.0489
    2loPI   C1A   23  10.434   4.086   9.136 -0.1321 -0.0626  0.0970
    2loPI   C2A   24  10.757   4.060   8.765 -0.3212 -0.1268 -0.2289
    2loPI   C3A   25  11.017   4.050   8.346 -0.0961  0.1802 -0.0829
    2loPI   C4A   26  11.142   4.015   7.989  0.0732  0.1132 -0.1005
    2loPI   C5A   27  11.545   4.216   7.766 -0.0761 -0.0660 -0.0002
    2loPI   C6A   28  11.910   4.142   7.786 -0.3268  0.4985 -0.0939
    2loPI   C1B   29  10.167   4.442   8.974  0.1231 -0.3114  0.0436
    2loPI   C2B   30   9.795   4.491   8.688  0.1987  0.0487  0.1421
    2loPI   C3B   31   9.638   4.539   8.364  0.2181 -0.0153 -0.0196
    2loPI   C4B   32   9.657   4.574   7.978 -0.1029  0.1577 -0.3097
    3loPI    C1   33   1.190   6.025   9.884 -0.0924  0.2013  0.0768
    3loPI    C2   34   1.479   5.779  10.012  0.0683  0.2056 -0.2665
    3loPI    C3   35   1.099   5.657  10.011  0.0755  0.1692  0.1076
    3loPI   PO4   36   1.322   6.224   9.679  0.0413  0.0388  0.3803
    3loPI   GL1   37   1.333   6.244   9.167  0.0567  0.0992 -0.1685
    3loPI   GL2   38   1.394   5.872   9.003  0.1569  0.1150  0.3786
    3loPI   C1A   39   1.476   6.258   8.721 -0.2671  0.3435 -0.1144
    3loPI   C2A   40   1.659   6.426   8.393  0.0825 -0.0646  0.1064
    3loPI   C3A   41   1.550   6.515   8.074 -0.0145  0.1885 -0.0423
    3loPI   C4A   42   1.545   6.496   7.721 -0.2092  0.1145  0.1468
    3loPI   C5A   43   1.694   6.316   7.337  0.0649  0.4891 -0.1512
    3loPI   C6A   44   1.683   6.403   6.878  0.2261 -0.1128  0.1194
    3loPI   C1B   45   1.340   5.812   8.553  0.4337 -0.2247 -0.0212
    3loPI   C2B   46   1.371   6.002   8.240 -0.0908 -0.0354  0.3324
    3loPI   C3B   47   1.482   5.865   7.785 -0.1767  0.3443 -0.1162
    3loPI   C4B   48   1.624   5.683   7.372 -0.1216  0.0086  0.1730
    4loPI    C1   49   1.107   3.080   9.952  0.3550  0.1315 -0.2084
    4loPI    C2   50   0.950   3.293  10.252  0.2047 -0.0496 -0.1566
    4loPI    C3   51   1.264   3.055  10.319  0.3497  0.1250 -0.2066
    4loPI   PO4   52   0.893   2.891   9.760 -0.0273  0.0165  0.2904
    4loPI   GL1   53   0.943   3.106   9.300 -0.1115 -0.0348 -0.0862
    4loPI   GL2   54   1.174   3.088   9.404 -0.0986  0.1585  0.2373
    4loPI   C1A   55   0.740   2.742   9.139  0.1642 -0.2010 -0.2870
    4loPI   C2A   56   0.446   2.755   8.780  0.0740  0.1605  0.1629
    4loPI   C3A   57   0.494   2.812   8.312 -0.2403  0.3087  0.1926
    4loPI   C4A   58   0.424   2.634   8.001 -0.0510  0.2678  0.5618
    4loPI   C5A   59   0.130   2.737   7.651  0.0625 -0.0351  0.2416
    4loPI   C6A   60  -0.282   2.615   7.673  0.1332 -0.0367  0.3025
    4loPI   C1B   61   1.227   3.209   8.896 -0.2397 -0.5115 -0.1339
    4loPI   C2B   62   1.134   3.049   8.478  0.2285  0.1595 -0.0580
    4loPI   C3B   63   0.924   3.036   8.114  0.1742 -0.0015  0.1190
    4loPI   C4B   64   0.915   3.074   7.726 -0.2430 -0.4415 -0.0583
    5loPI    C1   65   8.857  12.324   9.756 -0.0063  0.1118  0.1730
    5loPI    C2   66   8.726  12.003   9.955  0.3233 -0.1564 -0.0322
    5loPI    C3   67   9.082  12.162  10.045  0.1777  0.1321  0.0429
    5loPI   PO4   68   8.630  12.563   9.695  0.0132  0.1698 -0.1292
    5loPI   GL1   69   8.503  12.688   9.184 -0.0893 -0.0743  0.1152
    5loPI   GL2   70   8.361  12.977   9.205 -0.0086 -0.1663 -0.1235
    5loPI   C1A   71   8.385  12.614   8.829 -0.0778 -0.1158 -0.1006
    5loPI   C2A   72   8.504  12.604   8.383  0.0024  0.0974 -0.1706
    5loPI   C3A   73   8.497  12.865   8.115  0.2095  0.1274 -0.1558
    5loPI   C4A   74   8.575  12.906   7.709 -0.2346 -0.1178  0.0554
    5loPI   C5A   75   8.295  12.904   7.305  0.0338 -0.0743  0.1458
    5loPI   C6A   76   8.153  12.857   6.892  0.2271 -0.1324  0.0505
    5loPI   C1B   77   8.094  13.080   8.910 -0.0405  0.4384 -0.0090
    5loPI   C2B   78   8.290  13.083   8.564  0.0837  0.0042  0.0121
    5loPI   C3B   79   8.170  13.258   8.149  0.1321  0.5785  0.0829
    5loPI   C4B   80   7.947  13.325   7.742  0.0334  0.0023  0.1207
    6loPI    C1   81   2.994   6.981   9.471  0.0734  0.0156  0.0417
    6loPI    C2   82   3.357   7.120   9.377 -0.0433  0.2034 -0.1408
    6loPI    C3   83   3.315   6.746   9.514  0.1946  0.1084 -0.3182
    6loPI   PO4   84   2.857   6.999   9.277  0.1556  0.1792 -0.1142
    6loPI   GL1   85   2.938   7.040   8.865  0.2885  0.1531 -0.1856
    6loPI   GL2   86   2.646   7.244   8.920  0.0788  0.1485 -0.3886
    6loPI   C1A   87   2.868   7.141   8.449 -0.1631 -0.1275  0.0121
    6loPI   C2A   88   2.820   7.090   8.134  0.0309 -0.2440 -0.2963
    6loPI   C3A   89   2.854   7.052   7.624  0.0932  0.0880  0.0594
    6loPI   C4A   90   2.962   7.294   7.261 -0.0248  0.0811 -0.2806
    6loPI   C5A   91   2.910   7.639   6.879 -0.0095  0.3803 -0.0454
    6loPI   C6A   92   2.620   7.695   6.642  0.1115  0.0458  0.1729
    6loPI   C1B   93   2.848   7.583   8.610 -0.3149  0.0396  0.0541
    6loPI   C2B   94   2.982   7.656   8.138  0.2668 -0.1015  0.2704
    6loPI   C3B   95   3.026   7.790   7.571  0.0971  0.2380  0.0556
    6loPI   C4B   96   2.861   8.066   7.203  0.0620 -0.0219  0.0233
    7loPI    C1   97   4.633   9.825   9.863  0.1133  0.2105  0.0780
    7loPI    C2   98   4.289   9.844   9.660  0.1014 -0.2828  0.0387
    7loPI    C3   99   4.287   9.741  10.046  0.1914 -0.0977  0.0898
    7loPI   PO4  100   4.811   9.689   9.661  0.1896 -0.0467 -0.0902
    7loPI   GL1  101   4.809   9.470   9.254 -0.0518  0.1211  0.3381
    7loPI   GL2  102   4.427   9.493   9.221 -0.2247  0.0732  0.2477
    7loPI   C1A  103   5.051   9.266   8.909  0.1619 -0.3098 -0.3405
    7loPI   C2A  104   4.999   9.308   8.420  0.2514 -0.2272 -0.1127
    7loPI   C3A  105   4.954   9.528   8.026  0.0460 -0.1387  0.0108
    7loPI   C4A  106   4.850   9.345   7.724 -0.0907 -0.0040  0.1218
    7loPI   C5A  107   4.813   9.532   7.328  0.2867  0.0157  0.2695
    7loPI   C6A  108   4.798   9.630   6.896 -0.2781  0.2805  0.2407
    7loPI   C1B  109   4.480   9.583   8.850 -0.0164 -0.1224  0.1680
    7loPI   C2B  110   4.335   9.857   8.484  0.0607 -0.2016 -0.0404
    7loPI   C3B  111   4.419  10.254   8.432 -0.2892 -0.0521  0.0808
    7loPI   C4B  112   4.608  10.560   8.456  0.2751  0.1513  0.3109
    8loPI    C1  113   2.576   2.140   9.615  0.2626  0.0343 -0.0580
    8loPI    C2  114   2.690   1.760   9.665  0.0302 -0.0015  0.2279
    8loPI    C3  115   2.634   1.996   9.984 -0.1454  0.1769  0.0679
    8loPI   PO4  116   2.659   2.155   9.345  0.3007  0.0513 -0.0725
    8loPI   GL1  117   2.744   1.763   9.130 -0.1990 -0.1783 -0.0296
    8loPI   GL2  118   3.076   1.533   9.194 -0.0639  0.0283 -0.0772
    8loPI   C1A  119   2.910   1.838   8.798  0.2223  0.0554  0.1079
    8loPI   C2A  120   2.700   1.578   8.425  0.0546  0.1360  0.3992
    8loPI   C3A  121   2.714   1.367   8.043  0.1899 -0.3390 -0.0084
    8loPI   C4A  122   2.787   1.208   7.642 -0.2483 -0.1817 -0.3555
    8loPI   C5A  123   2.979   1.140   7.135 -0.1994  0.2163 -0.0815
    8loPI   C6A  124   3.243   1.174   6.733 -0.3864  0.1756 -0.2260
    8loPI   C1B  125   2.900   1.322   8.823  0.2778  0.0174  0.2800
    8loPI   C2B  126   3.012   1.010   8.699  0.2743  0.1225  0.1065
    8loPI   C3B  127   3.326   0.854   8.493 -0.0749  0.3648 -0.0486
    8loPI   C4B  128   3.211   0.704   8.106  0.0252 -0.2723  0.2723
    9loPI    C1  129   1.368  11.389   9.510  0.0111  0.0026  0.0491
    9loPI    C2  130   1.657  11.254   9.269 -0.1161 -0.3741  0.1018
    9loPI    C3  131   1.601  11.086   9.627 -0.1777 -0.0722  0.2366
    9loPI   PO4  132   1.138  11.426   9.360  0.1570  0.0605 -0.0564
    9loPI   GL1  133   0.948  11.614   9.033  0.0746  0.2553 -0.1559
    9loPI   GL2  134   1.098  12.003   9.145 -0.0324  0.6126  0.2960
    9loPI   C1A  135   1.062  11.481   8.537  0.3294 -0.1137  0.1956
    9loPI   C2A  136   1.321  11.702   8.127  0.2631 -0.1766  0.2646
    9loPI   C3A  137   1.162  11.707   7.702 -0.1581 -0.6414  0.0936
    9loPI   C4A  138   1.398  11.734   7.232  0.0615  0.1482 -0.0513
    9loPI   C5A  139   1.650  11.753   6.939  0.2471 -0.1884 -0.2237
    9loPI   C6A  140   1.698  11.720   6.442  0.1335  0.0504 -0.2117
    9loPI   C1B  141   1.285  11.901   8.732  0.0227  0.1078  0.0733
    9loPI   C2B  142   1.643  11.906   8.442 -0.3085 -0.0830  0.5163
    9loPI   C3B  143   1.822  11.628   8.136  0.0695 -0.1256 -0.3290
    9loPI   C4B  144   1.798  11.496   7.752 -0.0391 -0.1054 -0.1260
   10loPI    C1  145  17.397   9.467   9.876  0.1486  0.0568  0.0486
   10loPI    C2  146  17.385   9.139  10.104  0.1085 -0.2614 -0.3970
   10loPI    C3  147  17.216   9.478  10.232 -0.1816 -0.5154 -0.0892
   10loPI   PO4  148  17.459   9.307   9.634 -0.0299 -0.3603 -0.2206
   10loPI   GL1  149  17.487   9.458   9.234  0.0448  0.1066  0.1102
   10loPI   GL2  150  17.693   9.634   9.001  0.2687 -0.0284 -0.0021
   10loPI   C1A  151  17.283   9.242   8.755 -0.1008  0.1300  0.3808
   10loPI   C2A  152  17.302   9.259   8.278  0.1095  0.2767 -0.1000
   10loPI   C3A  153  17.230   9.310   7.885 -0.1082 -0.1239  0.0297
   10loPI   C4A  154  17.175   9.022   7.415 -0.2136 -0.0629 -0.3519
   10loPI   C5A  155  17.040   8.617   7.239  0.1348 -0.3792  0.0141
   10loPI   C6A  156  16.793   8.239   7.346 -0.0342  0.2396 -0.2425
   10loPI   C1B  157  17.309   9.760   8.884 -0.2927 -0.1505 -0.0122
   10loPI   C2B  158  17.226   9.947   8.539  0.0467  0.3613 -0.1094
   10loPI   C3B  159  17.046   9.827   8.100  0.0013  0.2705 -0.0683
   10loPI   C4B  160  16.950   9.874   7.669 -0.4214 -0.2595 -0.3161
   11loPI    C1  161  12.527   1.463  10.237 -0.2211 -0.0805  0.1025
   11loPI    C2  162  12.668   1.127  10.403  0.2208  0.0446 -0.0053
   11loPI    C3  163  12.643   1.463  10.620 -0.2528 -0.0585  0.1122
   11loPI   PO4  164  12.518   1.471   9.957 -0.4136 -0.0003 -0.0019
   11loPI   GL1  165  12.511   1.655   9.575  0.0141 -0.0047 -0.1177
   11loPI   GL2  166  12.213   1.873   9.404  0.0701 -0.2401  0.1134
   11loPI   C1A  167  12.836   1.484   9.292  0.0502  0.1116  0.3288
   11loPI   C2A  168  12.988   1.420   8.919  0.1086 -0.0373 -0.0693
   11loPI   C3A  169  13.059   1.478   8.499 -0.4207 -0.0253  0.0265
   11loPI   C4A  170  13.060   1.471   8.052  0.0120 -0.3651  0.0147
   11loPI   C5A  171  13.078   1.544   7.618  0.2360  0.0871  0.2003
   11loPI   C6A  172  12.724   1.518   7.330 -0.1390  0.0027  0.1611
   11loPI   C1B  173  12.153   1.875   8.954 -0.1403  0.1146  0.1894
   11loPI   C2B  174  12.087   1.877   8.507 -0.2635 -0.1173  0.1823
   11loPI   C3B  175  12.341   2.104   8.159 -0.0562 -0.5697 -0.1316
   11loPI   C4B  176  12.572   2.209   7.821  0.0537 -0.0004  0.0613
   12loPI    C1  177  18.087  10.216   9.732  0.0421 -0.3114  0.0919
   12loPI    C2  178  18.180  10.453  10.040  0.0026  0.0090 -0.1377
   12loPI    C3  179  17.803  10.331   9.988  0.0098 -0.0477 -0.0588
   12loPI   PO4  180  18.129  10.345   9.488 -0.1865 -0.0565 -0.0688
   12loPI   GL1  181  17.948  10.652   9.171 -0.0152 -0.2889  0.0589
   12loPI   GL2  182  17.662  10.657   9.170 -0.0437 -0.2215 -0.1391
   12loPI   C1A  183  18.003  10.547   8.744  0.1465  0.1160  0.1834
   12loPI   C2A  184  17.915  10.661   8.332  0.4952  0.1133  0.2855
   12loPI   C3A  185  18.034  10.796   7.912 -0.0838  0.2236 -0.2000
   12loPI   C4A  186  18.106  10.821   7.515  0.1158 -0.1534 -0.1761
   12loPI   C5A  187  17.872  10.645   7.051  0.2219  0.0300 -0.2746
   12loPI   C6A  188  17.941  10.329   6.807  0.3868  0.0812 -0.2801
   12loPI   C1B  189  17.702  10.952   8.804  0.0919  0.2220 -0.0437
   12loPI   C2B  190  18.061  11.106   8.572  0.0400 -0.0502  0.1900
   12loPI   C3B  191  18.274  11.505   8.489  0.1453 -0.1502  0.1728
   12loPI   C4B  192  18.010  11.913   8.572 -0.0652 -0.1729  0.0025
   13loPI    C1  193  11.263  17.281   9.378  0.1281 -0.1951  0.0406
   13loPI    C2  194  10.993  17.113   9.136  0.1558  0.0764 -0.1837
   13loPI    C3  195  10.897  17.440   9.346  0.2219  0.0072 -0.0446
   13loPI   PO4  196  11.490  17.447   9.235 -0.0233 -0.1242  0.1260
   13loPI   GL1  197  11.688  17.350   8.918  0.0853 -0.4144 -0.0616
   13loPI   GL2  198  11.467  17.135   8.888  0.2443 -0.1603  0.0805
   13loPI   C1A  199  11.759  17.282   8.444  0.1669 -0.1774 -0.2595
   13loPI   C2A  200  11.822  17.328   7.984  0.0987 -0.0198 -0.0205
   13loPI   C3A  201  11.933  17.477   7.629 -0.1062  0.0837 -0.1514
   13loPI   C4A  202  11.702  17.404   7.238 -0.6143  0.0286 -0.2403
   13loPI   C5A  203  11.322  17.478   7.018  0.0751 -0.2982 -0.0798
   13loPI   C6A  204  11.023  17.703   6.830  0.3217  0.0888  0.1305
   13loPI   C1B  205  11.211  16.989   8.684  0.2424 -0.0546  0.0913
   13loPI   C2B  206  11.260  16.990   8.224 -0.1364  0.1582  0.0691
   13loPI   C3B  207  11.432  17.043   7.761 -0.1796  0.0209  0.0322
   13loPI   C4B  208  11.345  17.094   7.408 -0.3608 -0.0097 -0.1953
   14loPI    C1  209   4.746   1.973   9.518  0.1841  0.0551 -0.2608
   14loPI    C2  210   4.585   2.320   9.633 -0.0482 -0.1352 -0.0001
   14loPI    C3  211   4.602   2.013   9.889  0.1616 -0.3154 -0.2260
   14loPI   PO4  212   4.748   2.003   9.279  0.4150  0.3097 -0.3305
   14loPI   GL1  213   4.730   1.948   8.863 -0.1034 -0.2794  0.1619
   14loPI   GL2  214   5.000   1.739   8.906  0.3016 -0.0585  0.1611
   14loPI   C1A  215   4.598   1.869   8.400  0.0578 -0.4888 -0.4017
   14loPI   C2A  216   4.600   1.770   7.909 -0.2230  0.0386  0.2131
   14loPI   C3A  217   4.685   1.646   7.507  0.2683 -0.2014  0.0940
   14loPI   C4A  218   4.704   1.319   7.101 -0.0316  0.2129  0.0240
   14loPI   C5A  219   4.870   0.942   6.915  0.0035  0.3774 -0.2272
   14loPI   C6A  220   5.167   0.807   6.964  0.0766 -0.1099  0.0026
   14loPI   C1B  221   5.183   2.089   8.666 -0.3142  0.3064  0.0956
   14loPI   C2B  222   4.859   2.318   8.478  0.0973  0.1169 -0.0276
   14loPI   C3B  223   4.713   2.702   8.533 -0.0578  0.4493 -0.1866
   14loPI   C4B  224   4.466   2.846   8.868 -0.0119  0.2734  0.1388
   15loPI    C1  225  14.697  13.657   9.891  0.0251 -0.1058  0.0576
   15loPI    C2  226  14.967  13.361   9.896  0.1911  0.0452  0.1560
   15loPI    C3  227  14.832  13.515  10.240  0.0766  0.0594  0.1054
   15loPI   PO4  228  14.601  13.616   9.712  0.1771 -0.1917  0.1155
   15loPI   GL1  229  14.572  13.759   9.228 -0.0360  0.1008  0.1369
   15loPI   GL2  230  14.341  13.388   9.158  0.1121  0.0721  0.2714
   15loPI   C1A  231  14.858  13.887   8.970  0.2095 -0.2162 -0.0514
   15loPI   C2A  232  15.202  13.960   8.534  0.0010  0.0643  0.0513
   15loPI   C3A  233  15.500  13.878   8.211 -0.1860  0.4205 -0.1829
   15loPI   C4A  234  15.675  13.853   7.870  0.1784 -0.0671 -0.1289
   15loPI   C5A  235  16.109  13.838   7.658 -0.1448 -0.1773  0.0314
   15loPI   C6A  236  16.376  13.592   7.466  0.0406 -0.3088 -0.2868
   15loPI   C1B  237  14.455  13.667   8.799 -0.2309 -0.2540  0.0551
   15loPI   C2B  238  14.771  13.616   8.524  0.1474  0.0138  0.0756
   15loPI   C3B  239  14.977  13.777   8.145  0.1265  0.0590 -0.0615
   15loPI   C4B  240  15.157  14.109   7.929 -0.0105  0.1369  0.2254
   16loPI    C1  241  16.103   8.992  10.222  0.0468 -0.2166 -0.1596
   16loPI    C2  242  16.312   9.074  10.553 -0.1569  0.0763 -0.0996
   16loPI    C3  243  15.963   8.879  10.579  0.0498 -0.3164 -0.1895
   16loPI   PO4  244  16.277   8.875  10.055  0.0535 -0.2737  0.0143
   16loPI   GL1  245  16.106   8.980   9.610  0.1676 -0.0677  0.0923
   16loPI   GL2  246  15.793   9.106   9.648  0.2460  0.0917 -0.0683
   16loPI   C1A  247  16.345   8.869   9.185  0.4020 -0.5110 -0.1147
   16loPI   C2A  248  16.222   8.982   8.709 -0.1359 -0.1195  0.0612
   16loPI   C3A  249  16.321   9.035   8.352 -0.0434 -0.2495  0.1667
   16loPI   C4A  250  16.315   9.067   7.832  0.1293 -0.2278 -0.3050
   16loPI   C5A  251  16.120   9.046   7.457  0.1088 -0.0152 -0.0973
   16loPI   C6A  252  16.182   9.095   7.071 -0.0319  0.2967 -0.2484
   16loPI   C1B  253  15.814   8.967   9.110 -0.1546  0.2549 -0.0140
   16loPI   C2B  254  15.571   8.746   8.904  0.3397 -0.2918 -0.1280
   16loPI   C3B  255  15.479   8.448   8.994 -0.0574 -0.0819 -0.1417
   16loPI   C4B  256  15.752   8.103   9.186 -0.3684 -0.0612 -0.0525
   17loPI    C1  257  13.244   8.974  10.115  0.1196  0.1292 -0.0863
   17loPI    C2  258  13.311   9.038  10.504  0.1478  0.2976 -0.1182
   17loPI    C3  259  12.937   9.042  10.362  0.1171 -0.0076 -0.0511
   17loPI   PO4  260  13.417   9.060   9.988 -0.1075  0.2615  0.0236
   17loPI   GL1  261  13.501   9.047   9.602  0.3655  0.0809 -0.0318
   17loPI   GL2  262  13.259   9.229   9.485  0.0494 -0.1594  0.0433
   17loPI   C1A  263  13.630   8.739   9.295 -0.0844  0.1591 -0.0994
   17loPI   C2A  264  13.605   8.578   8.794 -0.1424  0.2093 -0.0264
   17loPI   C3A  265  13.566   8.459   8.367  0.3160  0.3372 -0.3046
   17loPI   C4A  266  13.517   8.638   7.947  0.1050  0.2472 -0.4022
   17loPI   C5A  267  13.646   8.928   7.700  0.2896 -0.2203 -0.2923
   17loPI   C6A  268  13.649   9.439   7.595  0.0460  0.0881 -0.0186
   17loPI   C1B  269  13.195   9.008   9.169 -0.2409  0.2387  0.3428
   17loPI   C2B  270  13.136   8.945   8.730  0.1207  0.0692 -0.1405
   17loPI   C3B  271  13.199   8.857   8.247 -0.0060  0.1029 -0.1205
   17loPI   C4B  272  12.831   8.753   8.000  0.0637 -0.2997 -0.0388
   18loPI    C1  273  17.301   2.083  10.011 -0.3401 -0.2009  0.0047
   18loPI    C2  274  17.543   2.253  10.280 -0.4108 -0.1660  0.0466
   18loPI    C3  275  17.166   2.161  10.380 -0.4846 -0.0127 -0.0860
   18loPI   PO4  276  17.426   2.307   9.838  0.0340 -0.0875  0.0846
   18loPI   GL1  277  17.104   2.503   9.436  0.2333  0.0219 -0.2895
   18loPI   GL2  278  17.322   2.715   9.449  0.1643  0.0030  0.1837
   18loPI   C1A  279  17.283   2.413   9.015 -0.0786 -0.0913  0.0997
   18loPI   C2A  280  17.531   2.298   8.543  0.0082 -0.0249 -0.2378
   18loPI   C3A  281  17.561   2.284   8.088 -0.3669 -0.0223 -0.2052
   18loPI   C4A  282  17.349   2.586   7.783 -0.1501  0.2085  0.1725
   18loPI   C5A  283  17.096   2.807   7.601  0.5189 -0.1412 -0.0816
   18loPI   C6A  284  17.021   3.175   7.457 -0.0684 -0.0010 -0.0537
   18loPI   C1B  285  17.572   2.816   9.069 -0.0684 -0.1951 -0.5029
   18loPI   C2B  286  17.467   2.784   8.616 -0.1998  0.1222  0.1085
   18loPI   C3B  287  17.353   2.697   8.267 -0.2474 -0.0915  0.1721
   18loPI   C4B  288  16.921   2.701   8.025 -0.1989  0.1084  0.2830
   19loPI    C1  289   4.523   3.404  10.496  0.2568  0.0836 -0.4817
   19loPI    C2  290   4.774   3.150  10.675 -0.0446  0.1484  0.0523
   19loPI    C3  291   4.725   3.519  10.821 -0.2090  0.2457 -0.2407
   19loPI   PO4  292   4.618   3.379  10.175  0.2735 -0.3305 -0.2453
   19loPI   GL1  293   4.752   3.297   9.745 -0.0494  0.0683 -0.2693
   19loPI   GL2  294   4.598   3.499   9.650 -0.3551 -0.1022 -0.0309
   19loPI   C1A  295   4.808   3.155   9.285  0.0496  0.0217 -0.2633
   19loPI   C2A  296   4.970   2.979   8.859  0.0924  0.2917  0.1426
   19loPI   C3A  297   5.122   3.067   8.436 -0.3576  0.0521  0.0963
   19loPI   C4A  298   5.019   3.213   8.058  0.1718  0.1860  0.1625
   19loPI   C5A  299   4.997   3.643   7.791 -0.0015  0.1196 -0.1242
   19loPI   C6A  300   4.886   3.978   7.571  0.2249  0.1495 -0.2231
   19loPI   C1B  301   4.555   3.614   9.211 -0.0573  0.0823  0.3764
   19loPI   C2B  302   4.505   3.369   8.911  0.1376 -0.3568 -0.5476
   19loPI   C3B  303   4.640   3.170   8.482  0.0274 -0.1832 -0.1418
   19loPI   C4B  304   4.412   2.887   8.187 -0.2140  0.1079  0.0297
   20loPI    C1  305  14.758   7.165  10.206  0.2109 -0.0025  0.0470
   20loPI    C2  306  15.023   7.448  10.306  0.0679 -0.0048  0.4507
   20loPI    C3  307  14.789   7.285  10.586 -0.0879 -0.2844  0.1647
   20loPI   PO4  308  14.563   7.203  10.020 -0.4114 -0.1729 -0.0022
   20loPI   GL1  309  14.462   7.601   9.776  0.0136  0.1819  0.1161
   20loPI   GL2  310  14.233   7.424   9.590 -0.0464 -0.2960 -0.0579
   20loPI   C1A  311  14.743   7.726   9.370  0.0610  0.0043  0.0035
   20loPI   C2A  312  14.767   7.834   9.025  0.0132 -0.2428 -0.0709
   20loPI   C3A  313  14.759   7.729   8.666 -0.2906  0.4376 -0.1679
   20loPI   C4A  314  14.961   7.935   8.303  0.1415 -0.3682 -0.2542
   20loPI   C5A  315  15.370   7.985   8.141  0.1207 -0.1850 -0.3693
   20loPI   C6A  316  15.811   8.131   8.011 -0.1554  0.1129  0.0019
   20loPI   C1B  317  14.556   7.224   9.295  0.2932 -0.3757  0.3311
   20loPI   C2B  318  14.873   7.315   9.024 -0.0564  0.0151 -0.4187
   20loPI   C3B  319  15.146   7.459   8.780  0.0741  0.3186 -0.0482
   20loPI   C4B  320  15.401   7.745   8.574 -0.2751  0.1840 -0.1952
   21loPI    C1  321  12.043   1.569   9.767 -0.1071  0.0187 -0.0138
   21loPI    C2  322  11.983   1.539  10.162 -0.1188  0.1351 -0.0062
   21loPI    C3  323  12.051   1.210   9.944 -0.2051  0.0609  0.0775
   21loPI   PO4  324  11.867   1.677   9.665  0.0269  0.3008 -0.0818
   21loPI   GL1  325  11.732   1.668   9.194  0.0879  0.0496  0.1757
   21loPI   GL2  326  11.763   1.443   8.970  0.0897  0.0438  0.0763
   21loPI   C1A  327  11.491   1.867   8.820  0.3238 -0.3985 -0.1451
   21loPI   C2A  328  11.507   1.912   8.359  0.0529  0.0293 -0.2716
   21loPI   C3A  329  11.533   1.703   7.825 -0.1514 -0.2482  0.0982
   21loPI   C4A  330  11.378   1.478   7.422 -0.2091  0.0732 -0.0628
   21loPI   C5A  331  10.999   1.215   7.385 -0.0271 -0.1679  0.0234
   21loPI   C6A  332  11.023   0.857   7.629 -0.1581  0.1142 -0.0426
   21loPI   C1B  333  11.781   1.081   8.664 -0.2365  0.0324 -0.0990
   21loPI   C2B  334  11.717   0.945   8.298 -0.1495  0.3785  0.0925
   21loPI   C3B  335  11.752   1.240   7.894 -0.0647 -0.0944 -0.0365
   21loPI   C4B  336  11.578   0.993   7.637 -0.2374  0.3351 -0.1496
   22loPI    C1  337  17.833  12.702   9.724  0.1604 -0.0267 -0.1463
   22loPI    C2  338  17.793  12.361   9.929 -0.2692  0.1014 -0.0062
   22loPI    C3  339  17.846  12.707  10.123  0.1048  0.1273 -0.1455
   22loPI   PO4  340  17.734  12.657   9.502  0.1162  0.1815  0.0041
   22loPI   GL1  341  17.459  12.601   9.156 -0.1090  0.2023 -0.0061
   22loPI   GL2  342  17.644  12.921   8.972  0.0077  0.1302 -0.2256
   22loPI   C1A  343  17.266  12.654   8.779 -0.0639 -0.1759 -0.0764
   22loPI   C2A  344  17.145  12.701   8.317  0.0514 -0.0219  0.1352
   22loPI   C3A  345  16.939  12.640   7.974 -0.3122 -0.0694  0.0528
   22loPI   C4A  346  16.710  12.576   7.562  0.1742  0.0759 -0.0408
   22loPI   C5A  347  16.303  12.484   7.297  0.0182  0.0123  0.2143
   22loPI   C6A  348  15.862  12.348   7.101  0.2052 -0.2270  0.1899
   22loPI   C1B  349  17.533  13.103   8.588  0.1558  0.0954  0.0154
   22loPI   C2B  350  17.397  13.115   8.106 -0.0289  0.1431  0.2124
   22loPI   C3B  351  17.447  13.142   7.659  0.1602  0.2131 -0.0867
   22loPI   C4B  352  17.414  13.460   7.316 -0.4031  0.1479  0.0199
   23loPI    C1  353   8.630  14.918   9.726 -0.1381 -0.0019  0.1066
   23loPI    C2  354   8.513  14.537   9.689  0.0276 -0.0641  0.2091
   23loPI    C3  355   8.253  14.815   9.813 -0.1863 -0.0805 -0.1852
   23loPI   PO4  356   9.023  14.831   9.600 -0.0534  0.1127 -0.2175
   23loPI   GL1  357   9.317  14.947   9.216 -0.0272  0.2855 -0.0010
   23loPI   GL2  358   9.215  14.646   9.048  0.2934 -0.0036 -0.2814
   23loPI   C1A  359   9.340  15.078   8.776  0.0632 -0.1137  0.0522
   23loPI   C2A  360   9.276  15.189   8.332  0.0487  0.3073  0.3543
   23loPI   C3A  361   9.451  15.339   7.947 -0.1662 -0.1179 -0.1417
   23loPI   C4A  362   9.557  15.579   7.635 -0.1573  0.2750 -0.2218
   23loPI   C5A  363   9.533  15.559   7.181  0.0588 -0.0774 -0.2692
   23loPI   C6A  364   9.302  15.272   7.094  0.2222  0.0382 -0.1524
   23loPI   C1B  365   8.888  14.422   8.889  0.1681 -0.0641  0.3272
   23loPI   C2B  366   8.731  14.294   8.341  0.4390 -0.0954 -0.1750
   23loPI   C3B  367   8.542  14.084   7.902 -0.1539 -0.2163 -0.0564
   23loPI   C4B  368   8.203  14.126   7.545  0.1565 -0.2508  0.0282
   24loPI    C1  369  15.314   8.808   9.969 -0.2974  0.0036  0.1099
   24loPI    C2  370  15.614   9.016  10.133 -0.1174 -0.0647 -0.1268
   24loPI    C3  371  15.484   8.680  10.307  0.0918 -0.1526 -0.1379
   24loPI   PO4  372  15.361   8.914   9.694  0.1950 -0.1142 -0.3052
   24loPI   GL1  373  15.398   9.099   9.344 -0.1330  0.0112  0.0557
   24loPI   GL2  374  15.073   9.209   9.346 -0.2002 -0.2168  0.1077
   24loPI   C1A  375  15.385   9.229   8.926  0.0975 -0.1870  0.2164
   24loPI   C2A  376  15.233   9.341   8.452 -0.2613 -0.1446 -0.0240
   24loPI   C3A  377  15.286   9.147   8.031 -0.2787  0.1628 -0.0218
   24loPI   C4A  378  15.356   8.878   7.737 -0.1359  0.0216  0.2201
   24loPI   C5A  379  15.730   8.614   7.613  0.0324  0.1776  0.0094
   24loPI   C6A  380  16.129   8.636   7.648  0.0885  0.0137 -0.1351
   24loPI   C1B  381  14.871   9.131   8.984  0.0324 -0.3146 -0.3673
   24loPI   C2B  382  14.709   9.170   8.610  0.1819 -0.0875  0.1465
   24loPI   C3B  383  14.708   9.194   8.125 -0.1144 -0.2558  0.1615
   24loPI   C4B  384  14.514   9.275   7.671 -0.0249  0.2234 -0.2028
   25loPI    C1  385   4.976   1.496   9.381 -0.0232  0.0839 -0.0319
   25loPI    C2  386   4.983   1.178   9.624  0.2901 -0.2090 -0.4097
   25loPI    C3  387   4.860   1.533   9.762 -0.2680 -0.5326 -0.0344
   25loPI   PO4  388   5.221   1.487   9.332  0.0566 -0.1485  0.2899
   25loPI   GL1  389   5.378   1.299   9.026 -0.0763  0.2184 -0.2035
   25loPI   GL2  390   5.455   0.998   8.995  0.0003 -0.0200 -0.1862
   25loPI   C1A  391   5.275   1.555   8.596  0.3158 -0.0044 -0.0113
   25loPI   C2A  392   5.059   1.504   8.163 -0.0719 -0.0745  0.3700
   25loPI   C3A  393   4.958   1.358   7.792  0.0508 -0.1925  0.0659
   25loPI   C4A  394   5.099   1.335   7.389 -0.1459 -0.0935  0.2790
   25loPI   C5A  395   5.182   1.344   7.000 -0.0128 -0.0633 -0.1469
   25loPI   C6A  396   5.126   1.140   6.572  0.2189  0.0165  0.1495
   25loPI   C1B  397   5.470   1.057   8.581  0.0034  0.1705 -0.0287
   25loPI   C2B  398   5.477   0.903   8.109 -0.0213 -0.2644  0.1748
   25loPI   C3B  399   5.318   0.454   7.850  0.0852  0.3289 -0.2143
   25loPI   C4B  400   5.270   0.122   7.548 -0.0195 -0.0227  0.1014
   26loPI    C1  401   6.927   7.825   9.623 -0.0710  0.0302 -0.1158
   26loPI    C2  402   6.556   7.960   9.689 -0.0710  0.0363 -0.1283
   26loPI    C3  403   6.822   7.951   9.988 -0.0396  0.1624 -0.1518
   26loPI   PO4  404   6.909   7.893   9.307 -0.0772  0.1073 -0.3063
   26loPI   GL1  405   6.809   7.771   8.901 -0.1509 -0.0032  0.2161
   26loPI   GL2  406   6.837   7.513   9.019  0.2049 -0.1759  0.1381
   26loPI   C1A  407   6.775   7.901   8.416 -0.1815 -0.2248 -0.2325
   26loPI   C2A  408   6.674   8.011   8.033  0.1834 -0.0321 -0.0227
   26loPI   C3A  409   6.197   7.954   7.711 -0.1088  0.3328 -0.2203
   26loPI   C4A  410   5.983   7.738   7.435  0.0997  0.0989  0.2889
   26loPI   C5A  411   5.605   7.602   7.223  0.1099 -0.0675 -0.2434
   26loPI   C6A  412   5.242   7.432   7.213 -0.0565 -0.0011 -0.2094
   26loPI   C1B  413   6.929   7.355   8.578  0.0179 -0.1543  0.0703
   26loPI   C2B  414   6.892   7.420   8.177  0.0834  0.0194  0.0706
   26loPI   C3B  415   6.820   7.619   7.790  0.0726  0.1987 -0.0338
   26loPI   C4B  416   6.781   7.876   7.390 -0.1000  0.0536  0.1884
   27loPI    C1  417   6.888  10.164   9.889  0.0628 -0.0687  0.0595
   27loPI    C2  418   6.523  10.226  10.040  0.0095  0.2039 -0.1734
   27loPI    C3  419   6.817  10.486  10.115  0.0270  0.2488 -0.3912
   27loPI   PO4  420   6.791   9.969   9.718 -0.0112  0.1186  0.1108
   27loPI   GL1  421   6.532   9.763   9.356 -0.1108 -0.0368 -0.2897
   27loPI   GL2  422   6.627   9.475   9.149  0.0742 -0.1895 -0.0770
   27loPI   C1A  423   6.336   9.852   8.949 -0.0152  0.0300  0.1413
   27loPI   C2A  424   6.365  10.006   8.534 -0.2466  0.1173 -0.0282
   27loPI   C3A  425   6.361   9.933   8.076  0.0062 -0.5433  0.2674
   27loPI   C4A  426   6.131   9.899   7.715  0.1937  0.0606  0.2634
   27loPI   C5A  427   5.771   9.866   7.455  0.1636  0.3702 -0.1148
   27loPI   C6A  428   5.733   9.770   7.023 -0.1496  0.0442  0.0834
   27loPI   C1B  429   6.597   9.507   8.703  0.0405 -0.1533 -0.0377
   27loPI   C2B  430   6.615   9.549   8.245  0.2017 -0.0245  0.3759
   27loPI   C3B  431   6.675   9.474   7.828 -0.2929 -0.2067  0.1489
   27loPI   C4B  432   6.935   9.380   7.478 -0.0807  0.2472 -0.0851
   28loPI    C1  433  12.446  17.367   9.844 -0.1029 -0.1292 -0.0791
   28loPI    C2  434  12.199  17.246  10.134 -0.2666  0.3115 -0.0261
   28loPI    C3  435  12.512  17.478  10.223 -0.1978  0.2777 -0.1774
   28loPI   PO4  436  12.515  17.073   9.759  0.0176  0.2280 -0.2915
   28loPI   GL1  437  12.362  17.095   9.376  0.0319 -0.2892  0.0718
   28loPI   GL2  438  12.156  17.280   9.184  0.0420  0.3716 -0.1701
   28loPI   C1A  439  12.746  17.093   9.071  0.5294  0.0769  0.1323
   28loPI   C2A  440  12.814  17.022   8.665 -0.1498  0.6100 -0.0248
   28loPI   C3A  441  12.721  16.958   8.155 -0.2578  0.0475 -0.2167
   28loPI   C4A  442  12.997  17.206   7.845 -0.0164 -0.2109  0.2395
   28loPI   C5A  443  12.795  17.107   7.435 -0.1924  0.0091  0.4066
   28loPI   C6A  444  12.793  17.005   6.971  0.1421 -0.3456  0.3724
   28loPI   C1B  445  12.139  17.169   8.783 -0.1183  0.1364  0.1354
   28loPI   C2B  446  12.270  17.093   8.295 -0.1100  0.1498  0.3853
   28loPI   C3B  447  12.438  17.242   7.826  0.0278  0.3352  0.0462
   28loPI   C4B  448  12.652  17.538   7.665  0.3060  0.0123  0.1453
   29loPI    C1  449   8.881   7.095  10.077  0.2160 -0.1216 -0.4011
   29loPI    C2  450   9.147   7.286  10.305 -0.0002  0.0056 -0.2517
   29loPI    C3  451   8.785   7.445  10.245 -0.1347 -0.2911 -0.2383
   29loPI   PO4  452   9.047   7.029   9.830 -0.2381 -0.2734  0.0076
   29loPI   GL1  453   8.866   7.075   9.416 -0.1876  0.0498 -0.2818
   29loPI   GL2  454   8.642   7.179   9.232  0.0542 -0.0615 -0.1307
   29loPI   C1A  455   8.992   6.951   9.011  0.0691 -0.2553 -0.1079
   29loPI   C2A  456   9.056   6.700   8.681 -0.1280 -0.2947  0.2747
   29loPI   C3A  457   9.014   6.815   8.282 -0.1886  0.1052 -0.1070
   29loPI   C4A  458   9.055   6.622   7.889 -0.2629  0.1615  0.1796
   29loPI   C5A  459   9.092   6.688   7.432 -0.0287 -0.2183  0.2171
   29loPI   C6A  460   8.918   6.609   7.030  0.0163  0.1787  0.2628
   29loPI   C1B  461   8.603   7.210   8.879  0.0971  0.2263 -0.2932
   29loPI   C2B  462   8.580   7.132   8.398 -0.0753  0.4742 -0.1495
   29loPI   C3B  463   8.717   7.107   7.999 -0.0855 -0.0793  0.1276
   29loPI   C4B  464   8.707   7.010   7.577  0.2511  0.2125  0.1898
   30loPI    C1  465  11.899   9.699   9.939  0.0956  0.2152  0.1493
   30loPI    C2  466  11.660   9.942  10.148  0.1090  0.1438  0.2479
   30loPI    C3  467  11.669   9.551  10.230  0.0077  0.0918  0.0187
   30loPI   PO4  468  11.809   9.709   9.710  0.2209 -0.1284 -0.4586
   30loPI   GL1  469  11.563   9.548   9.454 -0.2874  0.3192 -0.2301
   30loPI   GL2  470  11.840   9.330   9.420  0.0711 -0.2410 -0.1641
   30loPI   C1A  471  11.588   9.495   8.970 -0.2050 -0.1210  0.1215
   30loPI   C2A  472  11.472   9.359   8.506 -0.1284  0.1003  0.0316
   30loPI   C3A  473  11.547   9.047   8.092 -0.1237 -0.1744 -0.1923
   30loPI   C4A  474  11.650   8.796   7.672 -0.0982 -0.0964  0.1409
   30loPI   C5A  475  11.972   8.522   7.349  0.2112 -0.0925  0.3538
   30loPI   C6A  476  12.080   8.144   7.153  0.3820  0.0974  0.1269
   30loPI   C1B  477  12.246   9.375   9.139  0.0090  0.3141  0.1215
   30loPI   C2B  478  12.354   9.218   8.595  0.4249 -0.0038  0.0010
   30loPI   C3B  479  12.322   9.247   8.228 -0.0328 -0.0286  0.2530
   30loPI   C4B  480  12.496   9.294   7.744  0.2123  0.2818  0.1097
   31loPI    C1  481   0.995   5.843   9.334 -0.1506 -0.3259 -0.1012
   31loPI    C2  482   0.762   6.002   9.618 -0.0288 -0.1913 -0.0754
   31loPI    C3  483   0.601   5.776   9.330 -0.1962 -0.0673 -0.0802
   31loPI   PO4  484   1.217   5.730   9.489 -0.0811 -0.0190  0.4125
   31loPI   GL1  485   1.510   5.332   9.317  0.2041 -0.1075  0.3076
   31loPI   GL2  486   1.389   4.971   9.331  0.3072  0.2308 -0.0460
   31loPI   C1A  487   1.234   5.176   8.763 -0.1010 -0.0050  0.1081
   31loPI   C2A  488   1.128   5.306   8.319  0.0843  0.0438 -0.3522
   31loPI   C3A  489   0.956   5.360   7.924  0.0153  0.1644  0.2063
   31loPI   C4A  490   1.117   5.513   7.511  0.0135  0.1131 -0.0745
   31loPI   C5A  491   1.053   5.797   7.213 -0.2986 -0.0108 -0.1709
   31loPI   C6A  492   1.146   6.116   7.496 -0.1874  0.1478 -0.4703
   31loPI   C1B  493   1.553   4.774   8.937  0.2169 -0.1743  0.0030
   31loPI   C2B  494   1.551   4.848   8.551  0.1772 -0.3134 -0.0234
   31loPI   C3B  495   1.446   4.867   8.153  0.1047  0.3366 -0.0051
   31loPI   C4B  496   1.387   5.171   7.866  0.0926  0.2000  0.0606
   32loPI    C1  497   7.577  13.774   9.635 -0.1310  0.0425  0.1826
   32loPI    C2  498   7.304  14.038   9.508 -0.0616  0.1283  0.2110
   32loPI    C3  499   7.619  13.949   9.278 -0.1850 -0.0747  0.1185
   32loPI   PO4  500   7.433  13.526   9.692 -0.1209 -0.2222  0.1398
   32loPI   GL1  501   7.320  13.348   9.277  0.0931  0.1454 -0.1225
   32loPI   GL2  502   7.158  13.722   9.164 -0.0037 -0.0832  0.2958
   32loPI   C1A  503   7.536  13.108   8.974  0.2086 -0.0223 -0.0469
   32loPI   C2A  504   7.776  12.892   8.543  0.0208 -0.0785 -0.0996
   32loPI   C3A  505   8.013  12.725   8.189 -0.2132 -0.0217  0.0573
   32loPI   C4A  506   7.978  12.746   7.797 -0.0164 -0.3206 -0.2180
   32loPI   C5A  507   7.839  12.623   7.380 -0.3121 -0.2442 -0.2092
   32loPI   C6A  508   7.774  12.236   7.253 -0.1749 -0.1037 -0.1064
   32loPI   C1B  509   7.105  13.479   8.797 -0.0724 -0.2245 -0.2564
   32loPI   C2B  510   6.771  13.492   8.428  0.2063 -0.0680 -0.1477
   32loPI   C3B  511   6.327  13.488   8.285  0.2492  0.1066 -0.0078
   32loPI   C4B  512   6.050  13.500   7.922 -0.1657  0.2544  0.0653
   33loPI    C1  513   0.741   8.657   9.898 -0.0102  0.0733 -0.2263
   33loPI    C2  514   0.821   8.958  10.149 -0.0778 -0.1368  0.0525
   33loPI    C3  515   1.117   8.724  10.016 -0.0411 -0.0216 -0.0697
   33loPI   PO4  516   0.540   8.701   9.834  0.0835 -0.5065 -0.0405
   33loPI   GL1  517   0.524   8.785   9.382  0.0832 -0.0060  0.4109
   33loPI   GL2  518   0.792   8.809   9.214 -0.0401 -0.2157  0.1253
   33loPI   C1A  519   0.374   8.812   8.946  0.0007 -0.1802  0.3274
   33loPI   C2A  520   0.576   8.776   8.471  0.1062 -0.2626  0.0872
   33loPI   C3A  521   0.485   8.697   8.104 -0.1421 -0.1259 -0.1936
   33loPI   C4A  522   0.350   8.670   7.727 -0.0497 -0.1343 -0.1497
   33loPI   C5A  523   0.197   8.869   7.263 -0.2510  0.1276 -0.2526
   33loPI   C6A  524   0.073   9.103   6.878 -0.1277  0.1856  0.2091
   33loPI   C1B  525   0.815   8.593   8.880 -0.0013 -0.2093 -0.0016
   33loPI   C2B  526   0.873   8.381   8.450  0.2276  0.1884 -0.2956
   33loPI   C3B  527   0.799   8.291   8.000 -0.3175 -0.0720 -0.0681
   33loPI   C4B  528   0.754   7.982   7.740 -0.1030  0.0980  0.2155
   34loPI    C1  529  16.116   1.606  10.432 -0.1261  0.0765 -0.0608
   34loPI    C2  530  16.402   1.660  10.706 -0.3189 -0.0379  0.1661
   34loPI    C3  531  16.071   1.885  10.715 -0.2628  0.0563 -0.0619
   34loPI   PO4  532  16.258   1.588  10.199 -0.1377 -0.0806  0.2772
   34loPI   GL1  533  16.246   1.740   9.861  0.2390  0.2172  0.1183
   34loPI   GL2  534  16.266   2.098   9.897  0.0743  0.0463  0.0431
   34loPI   C1A  535  16.216   1.680   9.476  0.0789 -0.4292 -0.2574
   34loPI   C2A  536  16.125   1.955   9.038 -0.1802  0.2000  0.2419
   34loPI   C3A  537  16.230   1.896   8.693  0.3934 -0.2595 -0.0123
   34loPI   C4A  538  16.410   1.822   8.299 -0.3889 -0.3026  0.3353
   34loPI   C5A  539  16.647   2.219   8.189 -0.0899 -0.0480  0.0415
   34loPI   C6A  540  17.089   2.190   7.933 -0.2778 -0.0948  0.0311
   34loPI   C1B  541  16.335   2.200   9.414  0.0415  0.1560  0.0164
   34loPI   C2B  542  16.573   2.297   9.163 -0.2521  0.1087  0.2526
   34loPI   C3B  543  16.639   2.231   8.702  0.5033 -0.2497  0.1357
   34loPI   C4B  544  16.519   2.620   8.453  0.3304  0.2590 -0.0556
   35loPI    C1  545  14.900  12.448   9.942 -0.1786  0.0572  0.0887
   35loPI    C2  546  14.762  12.094  10.069 -0.2266 -0.0793 -0.3285
   35loPI    C3  547  15.146  12.193  10.128 -0.2632 -0.1094 -0.0255
   35loPI   PO4  548  14.733  12.403   9.665 -0.0828 -0.0029 -0.1997
   35loPI   GL1  549  14.873  12.453   9.209 -0.1676  0.2985  0.0819
   35loPI   GL2  550  15.132  12.687   9.270 -0.1758 -0.0499 -0.0127
   35loPI   C1A  551  14.695  12.493   8.731 -0.0154 -0.2629  0.1732
   35loPI   C2A  552  14.639  12.482   8.292  0.0003  0.1301  0.0490
   35loPI   C3A  553  14.915  12.534   7.937  0.2932 -0.3566 -0.0632
   35loPI   C4A  554  14.872  12.649   7.514 -0.1848  0.5189  0.0071
   35loPI   C5A  555  14.805  12.614   7.116 -0.1190  0.0667 -0.0085
   35loPI   C6A  556  14.814  12.469   6.708 -0.3665 -0.1182 -0.1013
   35loPI   C1B  557  15.276  12.963   8.869  0.0700 -0.0376  0.0718
   35loPI   C2B  558  15.268  12.875   8.508 -0.4382  0.0052  0.0761
   35loPI   C3B  559  15.288  12.911   8.046  0.0489  0.0844 -0.2164
   35loPI   C4B  560  15.385  12.739   7.527 -0.1182 -0.1356  0.0173
   36loPI    C1  561  15.867  16.339   9.756 -0.1247  0.1786 -0.0665
   36loPI    C2  562  16.013  16.320  10.128 -0.0239 -0.0121 -0.1145
   36loPI    C3  563  16.160  16.587   9.869 -0.0943  0.1212 -0.0187
   36loPI   PO4  564  15.567  16.317   9.834 -0.0822 -0.0917  0.0991
   36loPI   GL1  565  15.450  16.436   9.479  0.1574 -0.1021  0.1164
   36loPI   GL2  566  15.223  16.163   9.358 -0.3267  0.1575  0.1198
   36loPI   C1A  567  15.312  16.434   8.989  0.1908 -0.1458 -0.0279
   36loPI   C2A  568  15.490  16.407   8.483  0.2714  0.0006 -0.1256
   36loPI   C3A  569  15.575  16.563   8.001 -0.0790  0.2954 -0.2252
   36loPI   C4A  570  15.650  16.788   7.628  0.3085  0.3458  0.1816
   36loPI   C5A  571  15.909  17.190   7.566  0.0259 -0.1229 -0.1291
   36loPI   C6A  572  16.138  17.158   7.944  0.3259 -0.1298  0.0072
   36loPI   C1B  573  15.183  15.965   8.919 -0.1324 -0.2728 -0.0666
   36loPI   C2B  574  14.984  15.903   8.569 -0.0156  0.0611 -0.0606
   36loPI   C3B  575  14.874  16.018   8.151 -0.2354  0.2152 -0.2643
   36loPI   C4B  576  14.889  16.241   7.875  0.2119  0.1435  0.0207
   37loPI    C1  577   6.274   2.977  10.003  0.0459  0.1427  0.0617
   37loPI    C2  578   6.612   2.788  10.100 -0.1989 -0.4014 -0.1046
   37loPI    C3  579   6.306   2.794  10.357 -0.0796  0.0740  0.0379
   37loPI   PO4  580   6.302   2.875   9.716  0.0135  0.2953  0.0955
   37loPI   GL1  581   6.293   3.080   9.383 -0.0829 -0.0250 -0.1488
   37loPI   GL2  582   6.601   2.958   9.324  0.0043 -0.0963 -0.2896
   37loPI   C1A  583   6.005   3.099   9.011  0.1935  0.3335 -0.1441
   37loPI   C2A  584   5.915   3.381   8.571  0.2292  0.1976  0.1163
   37loPI   C3A  585   6.088   3.780   8.361 -0.0479 -0.0774  0.0733
   37loPI   C4A  586   6.265   4.218   8.038 -0.1759 -0.2504 -0.1572
   37loPI   C5A  587   6.162   4.277   7.483 -0.3283  0.0135  0.1520
   37loPI   C6A  588   5.887   4.618   7.188  0.0388  0.0736  0.1384
   37loPI   C1B  589   6.482   3.158   8.871 -0.1982  0.1562 -0.0668
   37loPI   C2B  590   6.339   3.079   8.572  0.2585  0.2527 -0.2353
   37loPI   C3B  591   6.170   3.194   8.163  0.1807  0.0431 -0.0573
   37loPI   C4B  592   5.836   3.251   7.831 -0.1691  0.2548  0.3797
   38loPI    C1  593   1.536  16.164  10.513  0.0780  0.0048 -0.1274
   38loPI    C2  594   1.888  16.327  10.611  0.0644  0.0334 -0.1258
   38loPI    C3  595   1.750  16.011  10.814  0.1021  0.0049 -0.1443
   38loPI   PO4  596   1.386  16.356  10.477 -0.2443  0.0947  0.5610
   38loPI   GL1  597   1.347  16.525   9.939 -0.0056 -0.1012 -0.2506
   38loPI   GL2  598   1.340  16.234   9.608  0.1256  0.3324 -0.0122
   38loPI   C1A  599   1.313  16.954   9.757  0.0389 -0.1118  0.1819
   38loPI   C2A  600   1.084  17.094   9.365 -0.0251 -0.1189  0.0960
   38loPI   C3A  601   0.905  17.353   9.082  0.0736 -0.3170 -0.0902
   38loPI   C4A  602   0.916  17.750   8.894  0.1088  0.0857 -0.2762
   38loPI   C5A  603   0.931  18.067   8.748  0.3102  0.0242  0.3166
   38loPI   C6A  604   1.034  18.215   8.332  0.0008  0.1901 -0.2047
   38loPI   C1B  605   1.228  16.066   9.172 -0.1363  0.4084  0.0063
   38loPI   C2B  606   1.294  15.926   8.846  0.1684  0.1059  0.0270
   38loPI   C3B  607   1.263  15.914   8.398  0.1903  0.0160 -0.0679
   38loPI   C4B  608   1.365  16.207   8.033 -0.2028  0.3705 -0.0147
   39loPI    C1  609  12.431   0.436  10.126  0.1646  0.0707  0.1008
   39loPI    C2  610  12.580   0.257  10.451  0.3474  0.2359  0.1095
   39loPI    C3  611  12.535   0.655  10.444  0.3020  0.2285 -0.0509
   39loPI   PO4  612  12.612   0.426   9.963  0.0716  0.1721 -0.0614
   39loPI   GL1  613  12.639   0.589   9.665  0.1014  0.0867  0.1494
   39loPI   GL2  614  12.735   0.872   9.581  0.1328  0.6147 -0.1942
   39loPI   C1A  615  12.395   0.638   9.333 -0.0670  0.3421  0.0136
   39loPI   C2A  616  12.405   0.409   8.920 -0.2550  0.0887 -0.0763
   39loPI   C3A  617  12.466   0.271   8.562  0.1392 -0.1971 -0.0544
   39loPI   C4A  618  12.376   0.327   8.186  0.1588  0.1115 -0.1366
   39loPI   C5A  619  12.320   0.413   7.725  0.0112 -0.2681 -0.3422
   39loPI   C6A  620  12.281   0.787   7.497  0.1609  0.0180 -0.0597
   39loPI   C1B  621  12.709   0.964   9.059 -0.1241 -0.0603 -0.2485
   39loPI   C2B  622  12.723   0.978   8.720 -0.1322 -0.4182  0.0703
   39loPI   C3B  623  12.662   1.168   8.315 -0.2620 -0.0639  0.0485
   39loPI   C4B  624  12.645   1.057   7.814 -0.0180  0.1851  0.0432
   40loPI    C1  625  17.095   3.773  10.245 -0.1606 -0.1123 -0.0381
   40loPI    C2  626  17.397   3.869  10.489 -0.0751 -0.2234 -0.0991
   40loPI    C3  627  17.019   3.926  10.607 -0.0296  0.0827 -0.0916
   40loPI   PO4  628  17.140   3.896  10.035 -0.1552 -0.0732  0.3254
   40loPI   GL1  629  16.870   4.298   9.728 -0.0526  0.3472 -0.1889
   40loPI   GL2  630  16.779   3.987   9.668  0.4616 -0.2411  0.3035
   40loPI   C1A  631  16.790   4.507   9.270  0.0903  0.0647  0.2036
   40loPI   C2A  632  16.719   4.531   8.823 -0.4305  0.0872 -0.0081
   40loPI   C3A  633  16.833   4.616   8.438 -0.0976 -0.1285  0.1550
   40loPI   C4A  634  16.689   5.016   8.175  0.0956  0.1701  0.0612
   40loPI   C5A  635  16.635   5.516   8.205 -0.2332  0.0198 -0.0639
   40loPI   C6A  636  16.347   5.795   8.549 -0.1164 -0.1199 -0.1071
   40loPI   C1B  637  16.641   4.000   9.139 -0.1344  0.0166  0.2407
   40loPI   C2B  638  16.720   4.075   8.691  0.1225 -0.0628  0.2284
   40loPI   C3B  639  16.631   4.150   8.262 -0.3285 -0.1558  0.1009
   40loPI   C4B  640  16.473   4.513   8.125 -0.1861 -0.0614  0.3360
   41loPI    C1  641   3.078   8.959  10.047 -0.0365  0.0529 -0.0008
   41loPI    C2  642   3.435   8.956  10.226 -0.0209  0.1837 -0.0293
   41loPI    C3  643   3.201   8.633  10.244  0.1642  0.0411 -0.1420
   41loPI   PO4  644   3.074   9.205   9.818  0.1755 -0.0155  0.0239
   41loPI   GL1  645   3.370   9.452   9.506  0.0221 -0.2841 -0.0880
   41loPI   GL2  646   3.182   9.610   9.308  0.4625 -0.0740  0.0100
   41loPI   C1A  647   3.406   9.074   9.216 -0.0026 -0.1136  0.1372
   41loPI   C2A  648   3.662   8.936   8.846 -0.1444 -0.0159 -0.0730
   41loPI   C3A  649   3.657   9.208   8.429 -0.0856  0.1227  0.1960
   41loPI   C4A  650   3.349   9.187   7.949 -0.1820  0.1571 -0.0576
   41loPI   C5A  651   3.409   9.327   7.553  0.1337 -0.1430  0.0556
   41loPI   C6A  652   3.413   9.613   7.274 -0.1334  0.0501  0.0885
   41loPI   C1B  653   2.990   9.822   8.952  0.0725  0.3121 -0.0396
   41loPI   C2B  654   2.967   9.864   8.508 -0.2102 -0.1888  0.1647
   41loPI   C3B  655   3.011   9.936   8.079  0.1506  0.4827  0.2517
   41loPI   C4B  656   3.179   9.767   7.757  0.1255 -0.0738  0.0883
   42loPI    C1  657   6.773  10.853   9.648  0.0869 -0.1988 -0.0199
   42loPI    C2  658   6.458  10.642   9.773 -0.0364  0.0212  0.0474
   42loPI    C3  659   6.560  10.979   9.963  0.1062  0.0681 -0.1106
   42loPI   PO4  660   6.981  10.559   9.631  0.0581 -0.0878 -0.0874
   42loPI   GL1  661   6.957  10.290   9.291 -0.0255 -0.1422 -0.0199
   42loPI   GL2  662   6.782  10.110   9.072  0.0677 -0.0771  0.4215
   42loPI   C1A  663   7.079  10.492   8.887  0.0822 -0.0125 -0.0661
   42loPI   C2A  664   7.073  10.431   8.471  0.2711 -0.2078 -0.0510
   42loPI   C3A  665   7.090  10.508   8.045 -0.0677 -0.1140  0.0021
   42loPI   C4A  666   7.269  10.582   7.724 -0.0926  0.0576  0.1017
   42loPI   C5A  667   7.085  10.922   7.375 -0.1746 -0.2085  0.0466
   42loPI   C6A  668   7.207  11.132   7.070  0.0460  0.0486 -0.0317
   42loPI   C1B  669   6.962   9.992   8.619  0.0444 -0.2126  0.1722
   42loPI   C2B  670   6.895  10.063   8.114  0.2673 -0.1933 -0.0279
   42loPI   C3B  671   6.934   9.902   7.767 -0.1037  0.1658 -0.2610
   42loPI   C4B  672   6.690   9.818   7.382  0.1193  0.1123  0.0356
   43loPI    C1  673  10.643   7.465  10.002  0.0841  0.4209 -0.0807
   43loPI    C2  674  10.919   7.432  10.290 -0.0451  0.2536  0.0261
   43loPI    C3  675  10.537   7.344  10.369 -0.0415 -0.0395 -0.2614
   43loPI   PO4  676  10.757   7.278   9.775 -0.0098 -0.2529  0.2229
   43loPI   GL1  677  11.052   6.974   9.561 -0.2070  0.0862  0.1290
   43loPI   GL2  678  11.360   6.889   9.538 -0.0493  0.0900 -0.1051
   43loPI   C1A  679  11.151   6.964   9.126  0.0668 -0.0003 -0.0299
   43loPI   C2A  680  11.291   6.769   8.730 -0.0120  0.0690  0.0099
   43loPI   C3A  681  11.103   6.791   8.383  0.0462 -0.0841 -0.1371
   43loPI   C4A  682  10.927   6.808   7.943 -0.2781 -0.0253 -0.1355
   43loPI   C5A  683  10.898   7.000   7.573  0.0780  0.0284 -0.1255
   43loPI   C6A  684  11.104   6.936   7.227 -0.3187 -0.1811  0.0141
   43loPI   C1B  685  11.640   6.829   9.185 -0.0425  0.0027 -0.1580
   43loPI   C2B  686  11.868   6.875   8.818 -0.2410 -0.2255  0.1145
   43loPI   C3B  687  12.308   6.922   8.680 -0.0991  0.1441 -0.0401
   43loPI   C4B  688  12.270   7.011   8.289  0.3159  0.0014 -0.1918
   44loPI    C1  689  17.263  12.454   9.671 -0.0915 -0.0686 -0.0315
   44loPI    C2  690  17.026  12.358   9.979 -0.0308 -0.2820 -0.0493
   44loPI    C3  691  17.349  12.587  10.039 -0.0984 -0.2037  0.0196
   44loPI   PO4  692  17.039  12.544   9.499 -0.0244  0.1036  0.3100
   44loPI   GL1  693  16.824  12.430   9.086  0.5056  0.0886  0.2895
   44loPI   GL2  694  17.105  12.262   9.012 -0.0724  0.0646 -0.0047
   44loPI   C1A  695  16.783  12.721   8.780 -0.2487 -0.0890 -0.0766
   44loPI   C2A  696  16.630  12.832   8.353 -0.1700 -0.1361 -0.0766
   44loPI   C3A  697  16.371  12.701   7.978 -0.0645 -0.2056  0.0349
   44loPI   C4A  698  16.228  12.867   7.696  0.1115  0.2040 -0.0635
   44loPI   C5A  699  16.436  13.031   7.286 -0.3136  0.0158  0.3096
   44loPI   C6A  700  16.505  13.292   6.982  0.0555 -0.2102  0.2125
   44loPI   C1B  701  17.121  12.201   8.564  0.1531  0.1821 -0.5799
   44loPI   C2B  702  17.170  12.201   8.077  0.1867 -0.2771 -0.1546
   44loPI   C3B  703  17.070  12.051   7.750 -0.0689 -0.0345 -0.0449
   44loPI   C4B  704  17.262  11.890   7.354  0.3598 -0.0154 -0.0897
   45loPI    C1  705   1.164  12.512   9.846  0.3794 -0.0128 -0.0415
   45loPI    C2  706   1.219  12.908   9.844  0.0213  0.0405 -0.0371
   45loPI    C3  707   1.299  12.697  10.174 -0.3582  0.1988  0.1622
   45loPI   PO4  708   1.184  12.412   9.618  0.0498  0.2737  0.0631
   45loPI   GL1  709   1.286  12.473   9.234  0.1859 -0.0844 -0.0520
   45loPI   GL2  710   1.555  12.734   9.185 -0.4138 -0.0429  0.1365
   45loPI   C1A  711   0.999  12.515   8.944 -0.1290  0.0482  0.3353
   45loPI   C2A  712   1.223  12.544   8.624  0.0220 -0.1984  0.1881
   45loPI   C3A  713   1.319  12.329   8.161 -0.1785 -0.1663  0.0413
   45loPI   C4A  714   1.637  12.022   7.975  0.0249  0.0593  0.0721
   45loPI   C5A  715   1.614  12.021   7.599  0.1550 -0.1609  0.1114
   45loPI   C6A  716   1.532  12.217   7.260 -0.0182  0.0302 -0.0929
   45loPI   C1B  717   1.593  12.780   8.758 -0.0610 -0.0402 -0.3923
   45loPI   C2B  718   1.463  12.868   8.304 -0.1231  0.1852 -0.0351
   45loPI   C3B  719   1.383  12.968   7.908  0.1518 -0.0625 -0.1617
   45loPI   C4B  720   1.102  13.139   7.597 -0.2621  0.2534  0.1835
   46loPI    C1  721   9.558  10.649   9.817  0.0367  0.2860  0.0021
   46loPI    C2  722   9.279  10.436  10.009  0.1649  0.0479 -0.0721
   46loPI    C3  723   9.450  10.750  10.189  0.2386 -0.1339  0.1806
   46loPI   PO4  724   9.558  10.571   9.551  0.2833 -0.3675  0.1458
   46loPI   GL1  725   9.703  10.326   9.168 -0.1106 -0.0235 -0.1549
   46loPI   GL2  726  10.029  10.403   9.132  0.0644 -0.2051  0.0801
   46loPI   C1A  727   9.821  10.285   8.649  0.1087 -0.0862  0.1067
   46loPI   C2A  728   9.791  10.365   8.247  0.1823  0.2617  0.0253
   46loPI   C3A  729   9.862  10.360   7.870 -0.0324  0.2195 -0.0502
   46loPI   C4A  730   9.998  10.310   7.380  0.2812 -0.0597 -0.3278
   46loPI   C5A  731  10.412  10.167   7.175  0.1400  0.3225 -0.3448
   46loPI   C6A  732  10.615   9.689   7.138 -0.2433 -0.1109 -0.3658
   46loPI   C1B  733  10.197  10.541   8.765  0.0564  0.0296 -0.2100
   46loPI   C2B  734  10.156  10.804   8.329  0.0975  0.2088  0.1719
   46loPI   C3B  735  10.156  10.844   7.877 -0.0698  0.3729  0.2841
   46loPI   C4B  736   9.998  10.954   7.560  0.1846 -0.1453 -0.0444
   47loPI    C1  737  14.010   6.050  10.274  0.0807  0.1463 -0.0969
   47loPI    C2  738  14.121   6.172  10.638 -0.2124  0.0835  0.0168
   47loPI    C3  739  13.787   5.957  10.592 -0.2309  0.1745 -0.3021
   47loPI   PO4  740  14.192   6.082  10.069  0.3455 -0.1354 -0.2172
   47loPI   GL1  741  14.161   6.111   9.680 -0.0393  0.3336  0.2892
   47loPI   GL2  742  14.393   6.413   9.809  0.1536  0.0924  0.1619
   47loPI   C1A  743  14.220   6.399   9.204  0.0523  0.0576 -0.0928
   47loPI   C2A  744  14.301   6.638   8.838  0.3063 -0.1195  0.0622
   47loPI   C3A  745  14.236   6.824   8.457 -0.2412 -0.2750  0.2166
   47loPI   C4A  746  14.550   6.809   8.163  0.4543 -0.1430  0.1281
   47loPI   C5A  747  14.893   6.967   8.083  0.1139  0.0211  0.2586
   47loPI   C6A  748  15.015   7.170   7.704 -0.2500 -0.0463 -0.1810
   47loPI   C1B  749  14.636   6.575   9.576 -0.0755  0.1968 -0.0917
   47loPI   C2B  750  14.613   6.722   9.214  0.3317  0.0833 -0.0399
   47loPI   C3B  751  14.667   6.952   8.819 -0.2365 -0.0626 -0.0760
   47loPI   C4B  752  14.610   7.218   8.454  0.1867  0.1759  0.0411
   48loPI    C1  753   4.486  18.750   9.587 -0.0956 -0.1053  0.1934
   48loPI    C2  754   4.358  18.493   9.866  0.0197  0.0819  0.4219
   48loPI    C3  755   4.301  18.886   9.914  0.1758  0.1269  0.2539
   48loPI   PO4  756   4.592  18.573   9.338 -0.3772 -0.1328  0.0451
   48loPI   GL1  757   4.600  18.696   8.937  0.1301  0.0616 -0.3238
   48loPI   GL2  758   4.874  18.724   8.878 -0.0015 -0.4838  0.2117
   48loPI   C1A  759   4.604  18.554   8.451  0.0624 -0.0455 -0.5165
   48loPI   C2A  760   4.460  18.502   8.131  0.0232 -0.0385 -0.1607
   48loPI   C3A  761   4.489  18.632   7.865  0.2384  0.1676 -0.0494
   48loPI   C4A  762   4.414  18.660   7.451 -0.1592 -0.0646 -0.0967
   48loPI   C5A  763   4.293  18.675   6.956  0.2777  0.1746  0.1048
   48loPI   C6A  764   4.254  18.487   6.472 -0.0903 -0.1335 -0.1643
   48loPI   C1B  765   5.070  18.682   8.580 -0.0733  0.4650  0.0457
   48loPI   C2B  766   4.956  18.707   8.122  0.0339  0.3344  0.2236
   48loPI   C3B  767   4.987  18.608   7.690 -0.0545 -0.1685  0.0569
   48loPI   C4B  768   4.944  18.336   7.340 -0.0867  0.0739  0.0598
   49loPI    C1  769   0.989  14.806  10.175  0.0706  0.0337 -0.0227
   49loPI    C2  770   0.844  15.156  10.305 -0.1688 -0.0978  0.0708
   49loPI    C3  771   1.133  14.970  10.510 -0.1150 -0.0065  0.0782
   49loPI   PO4  772   0.974  14.803   9.976 -0.3122  0.1790  0.2615
   49loPI   GL1  773   1.200  15.021   9.672 -0.2914  0.2261 -0.0951
   49loPI   GL2  774   1.357  15.263   9.613 -0.1563  0.2733  0.1722
   49loPI   C1A  775   0.974  15.223   9.258 -0.0669 -0.1194 -0.1688
   49loPI   C2A  776   1.167  15.385   8.941  0.0233 -0.3144  0.3464
   49loPI   C3A  777   1.241  15.330   8.487 -0.0579 -0.3542 -0.2167
   49loPI   C4A  778   1.346  15.175   8.129  0.1048  0.2701  0.2603
   49loPI   C5A  779   1.263  14.820   7.875  0.0690 -0.3657 -0.4953
   49loPI   C6A  780   1.490  14.523   7.532  0.1365  0.1027 -0.0922
   49loPI   C1B  781   1.508  15.022   9.292  0.4605  0.3848  0.0679
   49loPI   C2B  782   1.608  15.194   8.848  0.1571  0.0712  0.1791
   49loPI   C3B  783   1.779  15.166   8.465  0.2139  0.0676 -0.1035
   49loPI   C4B  784   2.045  15.243   8.123 -0.3978 -0.0083  0.0713
   50loPI    C1  785   9.442   3.749   9.982  0.1420  0.1102  0.3593
   50loPI    C2  786   9.501   3.717  10.376 -0.1891 -0.3260  0.3812
   50loPI    C3  787   9.185   3.540  10.206 -0.0535 -0.1387 -0.0828
   50loPI   PO4  788   9.623   3.601   9.836  0.1668 -0.1541  0.0390
   50loPI   GL1  789   9.674   3.664   9.415  0.4299 -0.2792  0.1502
   50loPI   GL2  790   9.330   3.500   9.222  0.2580  0.2257 -0.0102
   50loPI   C1A  791   9.976   3.615   9.225 -0.1941 -0.1009  0.1687
   50loPI   C2A  792  10.136   3.390   8.839  0.3650  0.1972  0.0292
   50loPI   C3A  793  10.016   3.533   8.391  0.0305 -0.1930 -0.1339
   50loPI   C4A  794  10.065   3.720   8.112 -0.1378  0.4183 -0.0554
   50loPI   C5A  795  10.326   3.900   7.786  0.2525  0.1000  0.0573
   50loPI   C6A  796  10.747   3.969   7.672  0.1680  0.0348 -0.0915
   50loPI   C1B  797   9.570   3.497   8.846 -0.2832  0.0112  0.2119
   50loPI   C2B  798   9.513   3.273   8.461 -0.0555  0.3619  0.0883
   50loPI   C3B  799   9.438   3.443   8.084 -0.3314  0.1578 -0.5039
   50loPI   C4B  800   9.830   3.316   7.835  0.1698 -0.1749  0.1784
   51loPI    C1  801   1.729  14.928   9.814  0.1892 -0.2416 -0.1718
   51loPI    C2  802   1.755  14.660  10.110 -0.1995 -0.3264 -0.2092
   51loPI    C3  803   1.486  14.956  10.130 -0.0118 -0.1443 -0.3325
   51loPI   PO4  804   1.944  15.037   9.824 -0.2046  0.1217 -0.3622
   51loPI   GL1  805   2.224  15.155   9.519 -0.0647  0.1412  0.1324
   51loPI   GL2  806   1.895  15.358   9.443  0.1980 -0.1724  0.0631
   51loPI   C1A  807   1.998  15.018   9.156 -0.0451  0.0613 -0.0426
   51loPI   C2A  808   1.851  14.745   8.755 -0.1750 -0.2793  0.0318
   51loPI   C3A  809   2.005  14.682   8.321  0.1090 -0.3449  0.0047
   51loPI   C4A  810   1.971  14.626   7.785  0.0247  0.0639 -0.1202
   51loPI   C5A  811   1.960  14.832   7.413  0.1153  0.1444  0.1985
   51loPI   C6A  812   2.115  14.681   7.057 -0.1033  0.0813 -0.1503
   51loPI   C1B  813   2.110  15.714   9.172 -0.1662  0.0115  0.0792
   51loPI   C2B  814   2.375  15.816   8.913 -0.2505 -0.0368  0.0873
   51loPI   C3B  815   2.164  15.848   8.404 -0.1956  0.1084 -0.0333
   51loPI   C4B  816   1.858  16.037   8.059 -0.3111 -0.1763 -0.0756
   52loPI    C1  817  18.388  15.538  10.105  0.0866 -0.0320  0.1489
   52loPI    C2  818  18.746  15.382  10.019  0.1460  0.1043  0.1469
   52loPI    C3  819  18.721  15.725  10.223  0.0240  0.2498 -0.1066
   52loPI   PO4  820  18.284  15.459   9.874 -0.0844 -0.2383  0.1064
   52loPI   GL1  821  18.153  15.540   9.647  0.0620  0.0723  0.1222
   52loPI   GL2  822  17.913  15.345   9.530  0.2428  0.0261  0.2897
   52loPI   C1A  823  18.463  15.722   9.303 -0.0642  0.1058  0.3252
   52loPI   C2A  824  18.469  15.798   8.959 -0.3090 -0.2573 -0.0888
   52loPI   C3A  825  18.483  15.630   8.500 -0.2214  0.1098 -0.2063
   52loPI   C4A  826  18.627  15.578   8.157  0.1655 -0.1207  0.0847
   52loPI   C5A  827  18.670  15.324   7.807 -0.1853 -0.1774 -0.0110
   52loPI   C6A  828  18.802  14.972   7.527 -0.2945  0.1270  0.1703
   52loPI   C1B  829  18.035  15.473   9.155 -0.0944  0.0488  0.2507
   52loPI   C2B  830  18.059  15.609   8.727 -0.3084 -0.2003 -0.1033
   52loPI   C3B  831  17.977  15.434   8.367 -0.2205  0.1105  0.2019
   52loPI   C4B  832  18.244  15.251   8.024  0.0237 -0.2117  0.0606
   53loPI    C1  833   7.213   8.638   9.611  0.0616  0.0018 -0.1933
   53loPI    C2  834   7.378   8.320   9.432 -0.0305 -0.1588  0.0019
   53loPI    C3  835   7.150   8.270   9.757  0.1543  0.1295  0.1814
   53loPI   PO4  836   7.095   8.757   9.448 -0.1772  0.2823 -0.0410
   53loPI   GL1  837   7.160   8.701   9.040 -0.2565 -0.1207 -0.0546
   53loPI   GL2  838   7.505   8.566   9.045  0.1284 -0.0483 -0.0929
   53loPI   C1A  839   7.180   8.791   8.671  0.1888 -0.2262  0.2139
   53loPI   C2A  840   7.374   8.798   8.325  0.1098 -0.0456 -0.1017
   53loPI   C3A  841   7.427   8.672   7.930  0.0272 -0.1755 -0.1033
   53loPI   C4A  842   7.554   8.563   7.556  0.2314 -0.2343 -0.1827
   53loPI   C5A  843   7.754   8.396   7.237  0.0692 -0.0255 -0.2381
   53loPI   C6A  844   8.156   8.410   7.039  0.0067  0.2855  0.0092
   53loPI   C1B  845   7.553   8.404   8.657  0.0449  0.4775  0.1527
   53loPI   C2B  846   7.564   8.232   8.251  0.2033 -0.2034  0.1108
   53loPI   C3B  847   7.159   8.296   8.093 -0.4584 -0.2434 -0.0658
   53loPI   C4B  848   7.033   8.227   7.738 -0.1145  0.0601  0.0790
   54loPI    C1  849   7.364   7.581   9.886  0.3213 -0.1264  0.0645
   54loPI    C2  850   7.676   7.444  10.096  0.1429 -0.2934  0.2252
   54loPI    C3  851   7.386   7.650  10.279  0.2595  0.0452  0.0388
   54loPI   PO4  852   7.415   7.739   9.747  0.1566  0.0012  0.1403
   54loPI   GL1  853   7.447   7.813   9.386 -0.0226  0.2521  0.2000
   54loPI   GL2  854   7.341   7.756   9.151  0.2941  0.2972  0.0122
   54loPI   C1A  855   7.717   7.918   8.880 -0.0799  0.3726  0.4460
   54loPI   C2A  856   7.739   7.653   8.413 -0.0678 -0.1331 -0.1252
   54loPI   C3A  857   7.701   7.798   8.068 -0.1672 -0.0475  0.0382
   54loPI   C4A  858   7.557   8.024   7.624 -0.1564  0.1300 -0.3161
   54loPI   C5A  859   7.275   8.143   7.311 -0.2818 -0.1091  0.2411
   54loPI   C6A  860   7.396   8.191   6.875 -0.0018 -0.2235  0.0743
   54loPI   C1B  861   7.227   7.741   8.722  0.0677 -0.2956  0.1064
   54loPI   C2B  862   7.281   7.882   8.394  0.0459  0.0593 -0.3525
   54loPI   C3B  863   7.216   7.816   7.970 -0.1103 -0.1946  0.0149
   54loPI   C4B  864   7.331   7.644   7.542  0.2441 -0.2849  0.1704
   55loPI    C1  865  14.469  14.242  10.016 -0.1362  0.0802 -0.2002
   55loPI    C2  866  14.261  13.942   9.853 -0.0717 -0.0905  0.0266
   55loPI    C3  867  14.420  13.900  10.218  0.0867  0.1565 -0.0116
   55loPI   PO4  868  14.353  14.444   9.852  0.2064 -0.2228 -0.0419
   55loPI   GL1  869  14.482  14.600   9.453 -0.2014 -0.0925  0.2463
   55loPI   GL2  870  14.204  14.680   9.391 -0.0372 -0.2547  0.1261
   55loPI   C1A  871  14.550  14.391   9.139 -0.0187  0.1322 -0.0920
   55loPI   C2A  872  14.720  14.255   8.673  0.0073  0.1075 -0.2358
   55loPI   C3A  873  14.763  14.255   8.289 -0.4997 -0.0373  0.0342
   55loPI   C4A  874  14.648  14.325   7.793 -0.6099  0.2922 -0.1768
   55loPI   C5A  875  14.754  14.208   7.377 -0.3664  0.0014 -0.0913
   55loPI   C6A  876  14.622  13.954   7.048  0.2234  0.1173 -0.2860
   55loPI   C1B  877  14.287  14.677   8.869 -0.1893  0.0085  0.0399
   55loPI   C2B  878  14.381  14.592   8.394  0.0351  0.3124  0.1999
   55loPI   C3B  879  14.324  14.630   8.031 -0.2671  0.3514 -0.0313
   55loPI   C4B  880  14.417  14.625   7.521 -0.0450  0.1854 -0.0153
   56loPI    C1  881   6.882  13.782   9.810 -0.2624  0.2103 -0.1060
   56loPI    C2  882   6.625  13.600  10.057  0.0341  0.1666  0.1777
   56loPI    C3  883   6.668  13.998  10.069  0.1059  0.1567  0.2529
   56loPI   PO4  884   6.940  13.671   9.603 -0.0581  0.3196  0.0218
   56loPI   GL1  885   6.710  13.569   9.258 -0.2000  0.0125  0.1306
   56loPI   GL2  886   6.380  13.394   9.138 -0.0133 -0.2838  0.0992
   56loPI   C1A  887   6.673  13.844   8.851  0.1861  0.3987 -0.2478
   56loPI   C2A  888   6.297  13.911   8.581 -0.1900 -0.0539 -0.1414
   56loPI   C3A  889   5.937  13.914   8.226 -0.0117  0.1332  0.4462
   56loPI   C4A  890   5.565  13.629   8.204 -0.2929  0.2424  0.0581
   56loPI   C5A  891   5.148  13.421   8.225  0.2892  0.0182  0.2187
   56loPI   C6A  892   4.752  13.233   8.174  0.1568  0.1601 -0.0427
   56loPI   C1B  893   6.309  13.113   8.892  0.0672  0.0625 -0.0599
   56loPI   C2B  894   6.261  12.970   8.468 -0.0716 -0.1392 -0.2229
   56loPI   C3B  895   6.185  13.000   8.022 -0.1010  0.0132  0.1471
   56loPI   C4B  896   5.944  12.952   7.679  0.1371  0.0832 -0.1335
   57loPI    C1  897  11.380   7.970   9.754 -0.0184 -0.0326  0.1684
   57loPI    C2  898  11.643   7.713   9.913  0.1999  0.1160  0.0534
   57loPI    C3  899  11.269   7.730  10.054  0.2241 -0.1625  0.1574
   57loPI   PO4  900  11.341   8.018   9.452 -0.0146 -0.1157  0.3134
   57loPI   GL1  901  11.109   7.934   9.088  0.0658  0.1959  0.0889
   57loPI   GL2  902  11.125   8.307   9.094  0.4057  0.2822  0.2937
   57loPI   C1A  903  11.625   7.752   8.973 -0.1376 -0.3403  0.3187
   57loPI   C2A  904  11.832   7.793   8.504  0.1303  0.1258 -0.1907
   57loPI   C3A  905  11.845   7.616   8.087  0.0025 -0.1417  0.1532
   57loPI   C4A  906  12.036   7.252   7.859 -0.1163  0.1686  0.2492
   57loPI   C5A  907  12.340   6.864   7.844  0.0766  0.0984  0.1709
   57loPI   C6A  908  12.557   6.375   7.708 -0.0485  0.2041 -0.0870
   57loPI   C1B  909  10.846   8.195   8.750 -0.0993 -0.0727 -0.2616
   57loPI   C2B  910  10.487   8.288   8.479  0.0311 -0.0777  0.1516
   57loPI   C3B  911  10.247   8.508   8.369  0.3016  0.1715  0.0589
   57loPI   C4B  912   9.986   8.787   8.428 -0.0806 -0.4315  0.3334
   58loPI    C1  913   7.515   2.983   9.822  0.0163  0.0470 -0.0744
   58loPI    C2  914   7.605   3.330  10.000 -0.1150  0.2532 -0.4022
   58loPI    C3  915   7.893   3.061   9.928 -0.0681  0.1416  0.1628
   58loPI   PO4  916   7.349   3.034   9.628  0.2822  0.2022  0.1324
   58loPI   GL1  917   7.212   3.260   9.377 -0.0628  0.3275  0.1789
   58loPI   GL2  918   7.326   3.592   9.260  0.2327 -0.1265 -0.0590
   58loPI   C1A  919   7.053   3.086   8.949  0.0176 -0.0746  0.1747
   58loPI   C2A  920   6.870   3.174   8.543  0.0369  0.2171 -0.1152
   58loPI   C3A  921   6.976   2.969   8.118 -0.0862 -0.1028 -0.4441
   58loPI   C4A  922   6.921   2.858   7.648  0.3073  0.1957 -0.0160
   58loPI   C5A  923   6.705   3.106   7.377  0.1574 -0.0779  0.1052
   58loPI   C6A  924   6.343   3.240   7.408  0.3649  0.1356  0.1365
   58loPI   C1B  925   7.382   3.810   8.924  0.0382  0.1662 -0.0353
   58loPI   C2B  926   7.526   3.598   8.443 -0.0291 -0.4780  0.0853
   58loPI   C3B  927   7.737   3.612   8.133 -0.0504  0.0451 -0.2716
   58loPI   C4B  928   7.696   3.495   7.798 -0.1613  0.2697 -0.3918
   59loPI    C1  929   3.567  13.665  10.300  0.3252 -0.0113  0.1160
   59loPI    C2  930   3.592  13.549  10.682 -0.1233  0.0252  0.1618
   59loPI    C3  931   3.241  13.668  10.532  0.0217 -0.1065 -0.2980
   59loPI   PO4  932   3.773  13.419  10.139  0.0323 -0.0387 -0.1038
   59loPI   GL1  933   4.023  13.274   9.833 -0.1440 -0.2763  0.1180
   59loPI   GL2  934   4.275  13.178   9.621 -0.1813 -0.2210 -0.3255
   59loPI   C1A  935   3.975  13.527   9.400 -0.2280  0.1435  0.0827
   59loPI   C2A  936   4.052  13.487   8.964  0.1153  0.0928  0.0372
   59loPI   C3A  937   4.425  13.513   8.644 -0.6842 -0.0111 -0.0086
   59loPI   C4A  938   4.247  13.871   8.480  0.1441  0.3100  0.1288
   59loPI   C5A  939   4.064  14.262   8.292 -0.2865 -0.0095  0.4009
   59loPI   C6A  940   4.129  14.536   7.936 -0.2086 -0.0900  0.0218
   59loPI   C1B  941   4.201  12.890   9.234 -0.2448 -0.1960 -0.0458
   59loPI   C2B  942   4.201  12.904   8.780  0.0261 -0.0209 -0.0204
   59loPI   C3B  943   4.209  12.834   8.277  0.0189  0.3402  0.2072
   59loPI   C4B  944   4.303  12.572   7.927  0.0064 -0.2013  0.2722
   60loPI    C1  945   7.849   0.062   9.510  0.1285 -0.0438 -0.0379
   60loPI    C2  946   7.989  -0.291   9.385 -0.0313 -0.1505  0.0830
   60loPI    C3  947   7.975  -0.208   9.776 -0.2805 -0.1331  0.0724
   60loPI   PO4  948   7.669   0.088   9.382 -0.2036 -0.1167  0.0425
   60loPI   GL1  949   7.554  -0.109   8.875 -0.1883  0.1140 -0.1525
   60loPI   GL2  950   7.880   0.055   8.934  0.1683  0.2006  0.2483
   60loPI   C1A  951   7.307   0.157   8.562 -0.4761  0.1553  0.1851
   60loPI   C2A  952   7.365   0.287   8.232  0.1092 -0.0420  0.3334
   60loPI   C3A  953   7.611   0.359   7.891  0.3851  0.0277  0.0725
   60loPI   C4A  954   7.604   0.239   7.391  0.0381 -0.2180 -0.2288
   60loPI   C5A  955   7.424   0.455   7.018 -0.2826  0.2559 -0.0197
   60loPI   C6A  956   7.254   0.809   6.864  0.0443  0.3507 -0.1825
   60loPI   C1B  957   7.862   0.030   8.472  0.1434 -0.0720 -0.2436
   60loPI   C2B  958   7.653  -0.161   8.163 -0.0536 -0.0492 -0.0052
   60loPI   C3B  959   7.803  -0.121   7.733  0.2474  0.2024  0.2574
   60loPI   C4B  960   8.044  -0.207   7.407  0.0285  0.0078 -0.0859
   61loPI    C1  961  16.268  18.511  10.336 -0.2291 -0.0936 -0.0402
   61loPI    C2  962  16.244  18.810  10.600  0.0980 -0.0251 -0.0846
   61loPI    C3  963  16.180  18.433  10.718  0.1476  0.0150  0.0724
   61loPI   PO4  964  16.463  18.573  10.184 -0.1946  0.0416  0.0625
   61loPI   GL1  965  16.687  18.776   9.843 -0.0049 -0.1571 -0.2599
   61loPI   GL2  966  16.688  18.969   9.699 -0.1813 -0.1798 -0.0228
   61loPI   C1A  967  16.338  18.798   9.449 -0.1397 -0.1859  0.0795
   61loPI   C2A  968  16.368  18.886   9.030  0.4471  0.0535  0.1201
   61loPI   C3A  969  16.485  18.937   8.574  0.3692 -0.0688 -0.1784
   61loPI   C4A  970  16.841  18.829   8.280 -0.0588 -0.1812 -0.0152
   61loPI   C5A  971  17.139  18.437   8.282 -0.1821 -0.1983  0.4465
   61loPI   C6A  972  17.422  18.251   8.106  0.1417 -0.0317  0.1101
   61loPI   C1B  973  16.911  18.949   9.386  0.0353 -0.0983 -0.1108
   61loPI   C2B  974  16.992  19.148   9.080  0.1655  0.0836  0.0609
   61loPI   C3B  975  16.987  19.254   8.688 -0.0927 -0.2024 -0.0276
   61loPI   C4B  976  17.151  19.286   8.382 -0.2696 -0.3089  0.0899
   62loPI    C1  977  11.833   2.995  10.425 -0.0210  0.1533  0.2340
   62loPI    C2  978  11.619   2.833  10.722 -0.0231 -0.1942  0.0489
   62loPI    C3  979  11.979   2.685  10.631  0.1431  0.1541  0.1210
   62loPI   PO4  980  11.702   2.999  10.219  0.0976 -0.2630 -0.2392
   62loPI   GL1  981  11.898   3.203   9.845  0.0919 -0.3080  0.1157
   62loPI   GL2  982  11.761   2.874   9.709  0.0630  0.4310  0.0044
   62loPI   C1A  983  11.846   3.533   9.470 -0.1370  0.0418 -0.2945
   62loPI   C2A  984  11.940   3.226   9.115  0.0468 -0.0385 -0.0743
   62loPI   C3A  985  12.073   3.283   8.595  0.1237  0.0220  0.0617
   62loPI   C4A  986  12.337   3.296   8.233 -0.0705  0.3832 -0.0986
   62loPI   C5A  987  12.274   3.498   7.800  0.0070  0.0816  0.0464
   62loPI   C6A  988  12.226   3.807   7.409 -0.0185  0.2004  0.2267
   62loPI   C1B  989  11.672   2.841   9.273 -0.0677 -0.0369 -0.3189
   62loPI   C2B  990  11.630   2.865   8.895 -0.1139 -0.2108  0.2895
   62loPI   C3B  991  11.586   3.086   8.441 -0.2258  0.5409 -0.3704
   62loPI   C4B  992  11.827   3.361   8.168  0.2685 -0.0240 -0.0672
   63loPI    C1  993  15.379  14.126   9.841  0.0191  0.1177  0.0233
   63loPI    C2  994  15.165  13.897  10.089  0.0743 -0.0541 -0.0860
   63loPI    C3  995  14.992  14.207   9.905 -0.0664 -0.1567 -0.1288
   63loPI   PO4  996  15.476  13.922   9.676  0.0532  0.0295  0.0996
   63loPI   GL1  997  15.648  13.892   9.236  0.1288 -0.3959  0.0339
   63loPI   GL2  998  15.338  13.853   9.090  0.0811 -0.0149  0.1856
   63loPI   C1A  999  15.740  14.110   8.940 -0.0509  0.2428 -0.1341
   63loPI   C2A 1000  15.890  14.197   8.494  0.1432 -0.2039 -0.0668
   63loPI   C3A 1001  16.097  14.270   8.159  0.1576 -0.1878 -0.1135
   63loPI   C4A 1002  16.143  14.377   7.694  0.2156 -0.2001 -0.2435
   63loPI   C5A 1003  16.176  14.215   7.244 -0.1925 -0.2162 -0.0685
   63loPI   C6A 1004  16.160  13.740   7.001  0.1164  0.1452  0.0851
   63loPI   C1B 1005  15.629  13.612   8.855 -0.2027  0.3274  0.1060
   63loPI   C2B 1006  16.019  13.603   8.600  0.3424  0.0986 -0.1689
   63loPI   C3B 1007  16.069  13.756   8.218  0.1967 -0.0835  0.1437
   63loPI   C4B 1008  16.464  13.750   7.968  0.0740  0.1307  0.3381
   64loPI    C1 1009   4.835   8.063   9.923  0.2270 -0.1224  0.0159
   64loPI    C2 1010   4.645   8.126  10.270  0.0004  0.1365 -0.1508
   64loPI    C3 1011   4.728   7.753  10.152  0.0982  0.0471  0.1891
   64loPI   PO4 1012   4.735   8.266   9.769  0.2433  0.1529 -0.1426
   64loPI   GL1 1013   4.824   8.318   9.276 -0.0455  0.2111  0.2886
   64loPI   GL2 1014   4.552   8.573   9.252  0.1642 -0.1142  0.2156
   64loPI   C1A 1015   4.950   8.313   8.821  0.0759 -0.0744 -0.0699
   64loPI   C2A 1016   5.062   8.107   8.475  0.1028 -0.0458 -0.0170
   64loPI   C3A 1017   5.080   8.235   8.024 -0.0529  0.4252 -0.0177
   64loPI   C4A 1018   4.883   8.155   7.539  0.2302 -0.1566 -0.2471
   64loPI   C5A 1019   4.715   7.805   7.334  0.1729 -0.1302 -0.0092
   64loPI   C6A 1020   4.751   7.597   6.893  0.0093  0.2216 -0.1037
   64loPI   C1B 1021   4.445   8.277   8.937  0.2505  0.5911  0.3371
   64loPI   C2B 1022   4.075   8.166   8.852  0.1511 -0.1131 -0.2604
   64loPI   C3B 1023   3.679   7.982   8.933  0.2122  0.0712 -0.0100
   64loPI   C4B 1024   3.277   8.024   8.924 -0.0384  0.0593  0.0923
   65loPI    C1 1025  13.352   4.906  10.593 -0.0212  0.0900 -0.0919
   65loPI    C2 1026  12.962   4.986  10.630 -0.0356 -0.1246  0.2662
   65loPI    C3 1027  13.229   5.193  10.843  0.0375 -0.0621  0.1147
   65loPI   PO4 1028  13.366   4.989  10.308  0.1787 -0.3386 -0.2569
   65loPI   GL1 1029  13.152   5.113   9.960  0.1336  0.3117 -0.2301
   65loPI   GL2 1030  13.344   5.331   9.828 -0.1864 -0.1243 -0.1112
   65loPI   C1A 1031  13.152   4.841   9.613  0.2593 -0.5596 -0.0563
   65loPI   C2A 1032  13.140   4.519   9.315  0.0078 -0.1763 -0.1392
   65loPI   C3A 1033  13.209   4.224   9.071  0.1553  0.0771 -0.2589
   65loPI   C4A 1034  13.492   4.225   8.700  0.1179  0.0005 -0.1726
   65loPI   C5A 1035  13.279   4.374   8.206  0.3492 -0.0531 -0.0791
   65loPI   C6A 1036  12.937   4.699   8.190  0.0306 -0.2231 -0.4858
   65loPI   C1B 1037  13.528   5.155   9.492  0.1697 -0.0882 -0.0401
   65loPI   C2B 1038  13.809   5.369   9.236 -0.0084 -0.2251  0.0163
   65loPI   C3B 1039  14.208   5.382   8.987  0.4424 -0.0250 -0.2402
   65loPI   C4B 1040  14.546   5.594   8.715 -0.2189  0.1931  0.0795
   66loPI    C1 1041   9.246   7.494   9.470  0.0702 -0.1132 -0.1159
   66loPI    C2 1042   9.529   7.749   9.592 -0.1606  0.0992 -0.0146
   66loPI    C3 1043   9.458   7.415   9.801  0.1088 -0.0274 -0.1197
   66loPI   PO4 1044   9.047   7.842   9.422  0.0572  0.2589  0.3361
   66loPI   GL1 1045   8.927   8.111   9.145  0.2899 -0.1009 -0.2728
   66loPI   GL2 1046   9.186   7.969   8.955 -0.1137  0.2150 -0.0696
   66loPI   C1A 1047   8.740   8.280   8.870  0.2250 -0.0862 -0.1454
   66loPI   C2A 1048   8.633   8.246   8.487  0.0958 -0.0530 -0.1516
   66loPI   C3A 1049   8.621   8.149   7.947  0.1194  0.3789 -0.0918
   66loPI   C4A 1050   8.422   7.965   7.596  0.0019  0.2523 -0.1514
   66loPI   C5A 1051   8.178   7.931   7.208  0.0852  0.1846 -0.1185
   66loPI   C6A 1052   7.887   8.010   6.852  0.1484 -0.1348  0.3992
   66loPI   C1B 1053   9.029   7.961   8.515  0.0877 -0.0800  0.0402
   66loPI   C2B 1054   9.060   7.943   8.095 -0.0403 -0.0469 -0.1041
   66loPI   C3B 1055   9.095   8.060   7.625  0.1308  0.0867 -0.0146
   66loPI   C4B 1056   9.275   8.153   7.238 -0.2874 -0.0605  0.1746
   67loPI    C1 1057   6.691  15.210   9.619  0.0331  0.2043  0.0819
   67loPI    C2 1058   6.718  15.117  10.007  0.1038 -0.0797  0.0112
   67loPI    C3 1059   7.004  15.335   9.833 -0.0021  0.1750  0.1509
   67loPI   PO4 1060   6.424  15.245   9.618 -0.0227 -0.4108 -0.0771
   67loPI   GL1 1061   6.176  15.195   9.243  0.5005  0.1236 -0.1802
   67loPI   GL2 1062   6.432  15.016   9.183 -0.1487 -0.1828 -0.0920
   67loPI   C1A 1063   6.368  15.429   8.852 -0.1884  0.1108  0.1929
   67loPI   C2A 1064   6.331  15.396   8.421  0.2077  0.2673  0.2151
   67loPI   C3A 1065   6.518  15.274   8.005 -0.1339 -0.1906  0.2489
   67loPI   C4A 1066   6.864  15.232   7.732 -0.0148 -0.1574  0.0110
   67loPI   C5A 1067   6.935  15.525   7.537 -0.2289  0.0514 -0.2117
   67loPI   C6A 1068   6.745  15.735   7.257  0.2638 -0.1426  0.0517
   67loPI   C1B 1069   6.276  14.882   8.762  0.0564 -0.0582 -0.0062
   67loPI   C2B 1070   6.414  14.883   8.320  0.0856  0.1784 -0.0769
   67loPI   C3B 1071   6.371  14.851   7.804  0.4328 -0.2380 -0.1353
   67loPI   C4B 1072   6.735  14.754   7.601  0.1733  0.1661  0.3145
   68loPI    C1 1073  15.851  14.728   9.789  0.2714  0.0424 -0.1911
   68loPI    C2 1074  16.052  14.415   9.643  0.1045 -0.0808 -0.1596
   68loPI    C3 1075  15.785  14.362   9.936  0.1704  0.1111 -0.0634
   68loPI   PO4 1076  15.845  14.908   9.569 -0.0128 -0.0655 -0.1749
   68loPI   GL1 1077  15.700  15.057   9.151 -0.2003  0.1582 -0.3436
   68loPI   GL2 1078  15.414  14.760   9.133  0.1579  0.3380 -0.4192
   68loPI   C1A 1079  15.627  15.266   8.789  0.1760  0.0155 -0.1902
   68loPI   C2A 1080  15.637  15.365   8.392 -0.0224 -0.0286  0.2187
   68loPI   C3A 1081  15.418  15.464   8.123  0.6103 -0.1456 -0.1497
   68loPI   C4A 1082  15.385  15.301   7.659  0.1006 -0.0562  0.1182
   68loPI   C5A 1083  15.510  15.025   7.441 -0.0626 -0.0487 -0.0748
   68loPI   C6A 1084  15.753  14.752   7.369 -0.0389 -0.1218  0.0276
   68loPI   C1B 1085  15.320  14.885   8.706  0.2471 -0.0294  0.1445
   68loPI   C2B 1086  15.310  14.966   8.200  0.0997 -0.0509  0.0024
   68loPI   C3B 1087  15.453  14.838   7.902  0.0637  0.1992  0.1994
   68loPI   C4B 1088  15.310  14.593   7.589  0.0689  0.2852 -0.0000
   69loPI    C1 1089  18.408  18.866  10.553  0.1596  0.1771  0.1223
   69loPI    C2 1090  18.377  19.147  10.836 -0.0298 -0.0443  0.3256
   69loPI    C3 1091  18.557  18.799  10.919  0.0781 -0.0395  0.1173
   69loPI   PO4 1092  18.552  19.105  10.345 -0.1582  0.0744  0.0801
   69loPI   GL1 1093  18.600  19.141   9.936 -0.1426  0.3626  0.1180
   69loPI   GL2 1094  18.289  19.058   9.913  0.0910 -0.1428 -0.2291
   69loPI   C1A 1095  18.710  19.261   9.488  0.2623 -0.2685  0.4433
   69loPI   C2A 1096  18.737  19.094   9.057  0.1961  0.4234 -0.3369
   69loPI   C3A 1097  18.529  18.855   8.649  0.2630 -0.0854  0.0452
   69loPI   C4A 1098  18.333  18.708   8.367 -0.2302  0.1698  0.0007
   69loPI   C5A 1099  18.305  18.513   7.995 -0.1549  0.3578 -0.0089
   69loPI   C6A 1100  18.257  18.187   7.571 -0.0782  0.0092  0.2159
   69loPI   C1B 1101  18.408  18.895   9.557  0.1423  0.1091  0.1068
   69loPI   C2B 1102  18.312  18.767   9.083 -0.1257 -0.1467  0.0158
   69loPI   C3B 1103  17.988  18.724   8.855  0.1435 -0.2445 -0.0447
   69loPI   C4B 1104  17.818  18.931   8.611  0.3021 -0.0656 -0.2498
   70loPI    C1 1105  15.911   0.941  10.307  0.1318 -0.3631 -0.1784
   70loPI    C2 1106  15.783   1.214  10.569  0.1483  0.0370 -0.5748
   70loPI    C3 1107  15.959   0.879  10.699 -0.3782 -0.0571 -0.0581
   70loPI   PO4 1108  16.068   1.134  10.171  0.2276  0.1561 -0.3576
   70loPI   GL1 1109  16.012   1.310   9.780  0.0377  0.0728 -0.0512
   70loPI   GL2 1110  15.828   1.039   9.718  0.0850  0.1195  0.1083
   70loPI   C1A 1111  16.086   1.223   9.348  0.2527 -0.2099 -0.0201
   70loPI   C2A 1112  16.151   0.984   8.978 -0.0067  0.1196 -0.0240
   70loPI   C3A 1113  16.085   0.706   8.741 -0.0714  0.2005  0.1136
   70loPI   C4A 1114  16.277   0.613   8.368 -0.0459 -0.1799  0.3197
   70loPI   C5A 1115  16.421   0.312   8.212  0.1111 -0.0505 -0.1240
   70loPI   C6A 1116  16.808   0.188   8.037  0.1265 -0.0352 -0.0597
   70loPI   C1B 1117  16.207   0.808   9.601 -0.0395 -0.1761 -0.0022
   70loPI   C2B 1118  16.360   0.649   9.296  0.0355 -0.0572  0.2522
   70loPI   C3B 1119  16.615   1.020   9.325  0.1193 -0.0081  0.0745
   70loPI   C4B 1120  16.877   1.289   9.048 -0.1890  0.0965 -0.0136
   71loPI    C1 1121  17.960  11.271   9.552 -0.0031 -0.2831 -0.1971
   71loPI    C2 1122  17.595  11.215   9.705  0.0623 -0.2101 -0.0114
   71loPI    C3 1123  17.918  11.111   9.916  0.1592  0.0546 -0.0248
   71loPI   PO4 1124  17.950  11.155   9.318 -0.1359 -0.2202 -0.0371
   71loPI   GL1 1125  18.306  11.127   9.141  0.0323 -0.3544 -0.1423
   71loPI   GL2 1126  18.328  11.430   9.012 -0.0588  0.0454 -0.1533
   71loPI   C1A 1127  18.342  10.843   8.927  0.0166 -0.0784 -0.0252
   71loPI   C2A 1128  18.416  10.811   8.490  0.0595  0.0863 -0.0641
   71loPI   C3A 1129  18.368  11.127   8.175 -0.4353 -0.0992 -0.0757
   71loPI   C4A 1130  18.194  11.278   7.858  0.0401 -0.0172 -0.1821
   71loPI   C5A 1131  18.113  11.350   7.500  0.1897  0.1996  0.1698
   71loPI   C6A 1132  18.234  11.680   7.183  0.0564 -0.0661 -0.0559
   71loPI   C1B 1133  17.817  11.479   8.784  0.0585  0.1703 -0.0294
   71loPI   C2B 1134  17.670  11.555   8.325 -0.3557  0.2724 -0.1707
   71loPI   C3B 1135  17.722  11.916   8.123  0.0495  0.1338 -0.1735
   71loPI   C4B 1136  17.577  12.127   7.756 -0.3645  0.1614  0.0066
   72loPI    C1 1137   3.785  15.590  10.607  0.2242 -0.0095 -0.1313
   72loPI    C2 1138   3.587  15.872  10.403 -0.0123 -0.1828 -0.1453
   72loPI    C3 1139   3.682  15.932  10.787  0.1694  0.0213 -0.2199
   72loPI   PO4 1140   3.996  15.463  10.358  0.2028  0.0721 -0.0271
   72loPI   GL1 1141   3.910  15.180  10.015  0.2717  0.1530 -0.1690
   72loPI   GL2 1142   3.682  15.216   9.780  0.0558  0.1500 -0.1652
   72loPI   C1A 1143   4.120  15.068   9.698 -0.2340  0.2745 -0.2217
   72loPI   C2A 1144   4.329  15.015   9.281  0.1972 -0.1230  0.0975
   72loPI   C3A 1145   4.186  15.042   8.867  0.0129  0.4177  0.0743
   72loPI   C4A 1146   4.132  14.826   8.392  0.3033  0.1567  0.1629
   72loPI   C5A 1147   4.065  15.064   8.041  0.1079 -0.0367  0.2737
   72loPI   C6A 1148   3.999  15.242   7.628 -0.1322  0.0519  0.1334
   72loPI   C1B 1149   3.711  15.201   9.395  0.2570 -0.0256  0.2108
   72loPI   C2B 1150   3.695  15.109   8.914  0.0001 -0.1267 -0.0945
   72loPI   C3B 1151   3.876  15.242   8.513  0.2064  0.0723  0.0144
   72loPI   C4B 1152   3.738  15.424   8.201  0.1902 -0.0741 -0.1453
   73loPI    C1 1153  11.505  11.790   9.470 -0.0827 -0.0430  0.0388
   73loPI    C2 1154  11.395  12.164   9.379 -0.1584 -0.1286 -0.2328
   73loPI    C3 1155  11.207  11.965   9.671  0.0176  0.1147  0.0519
   73loPI   PO4 1156  11.384  11.589   9.251 -0.1299 -0.2995 -0.3169
   73loPI   GL1 1157  11.611  11.483   9.062  0.1960  0.0025 -0.2092
   73loPI   GL2 1158  11.706  11.740   8.903 -0.0836  0.3228 -0.0739
   73loPI   C1A 1159  11.544  11.289   8.682 -0.2267 -0.2707 -0.0428
   73loPI   C2A 1160  11.498  10.925   8.489 -0.1325 -0.4471 -0.3040
   73loPI   C3A 1161  11.847  10.935   8.135  0.1986  0.1222  0.1633
   73loPI   C4A 1162  11.922  10.906   7.751  0.0904 -0.2015 -0.2176
   73loPI   C5A 1163  11.801  10.916   7.358  0.0178  0.3512  0.0657
   73loPI   C6A 1164  11.897  11.227   7.025 -0.3303  0.3581 -0.3520
   73loPI   C1B 1165  11.723  11.830   8.489 -0.3627 -0.1779  0.0207
   73loPI   C2B 1166  11.806  11.784   8.100 -0.0921 -0.0406  0.0887
   73loPI   C3B 1167  11.924  11.634   7.756 -0.1217  0.1276  0.0039
   73loPI   C4B 1168  11.711  11.391   7.559 -0.1130  0.3170 -0.0743
   74loPI    C1 1169  12.249  10.067   9.950  0.1293 -0.0175 -0.0969
   74loPI    C2 1170  12.087  10.244  10.270 -0.0355 -0.0912 -0.1379
   74loPI    C3 1171  12.230   9.872  10.299 -0.1640 -0.1443 -0.1804
   74loPI   PO4 1172  12.403  10.305   9.847  0.0254  0.0630  0.1132
   74loPI   GL1 1173  12.629  10.426   9.443  0.0968  0.3749  0.0474
   74loPI   GL2 1174  12.473  10.122   9.370 -0.2906 -0.3054 -0.2409
   74loPI   C1A 1175  12.531  10.241   8.906 -0.3288 -0.1545 -0.0484
   74loPI   C2A 1176  12.590  10.021   8.623 -0.3498 -0.2747 -0.0144
   74loPI   C3A 1177  12.673  10.165   8.118  0.1178  0.2567  0.2369
   74loPI   C4A 1178  12.517  10.272   7.695  0.1459  0.1641 -0.0805
   74loPI   C5A 1179  12.199  10.025   7.592 -0.0972 -0.2068  0.3102
   74loPI   C6A 1180  12.172   9.589   7.546  0.3143 -0.0387  0.1491
   74loPI   C1B 1181  12.569   9.789   9.124 -0.1689  0.0371  0.0778
   74loPI   C2B 1182  12.587   9.624   8.861 -0.2032  0.6940  0.0043
   74loPI   C3B 1183  12.572   9.604   8.428 -0.1714 -0.5265 -0.0344
   74loPI   C4B 1184  12.540   9.690   8.092  0.0386  0.4190 -0.0161
   75loPI    C1 1185   6.141   5.227   9.919 -0.2409  0.0936  0.0741
   75loPI    C2 1186   6.421   5.236   9.634 -0.2993  0.2171  0.0195
   75loPI    C3 1187   6.495   5.398   9.993 -0.0210 -0.4276  0.2679
   75loPI   PO4 1188   5.937   5.234   9.710  0.0404  0.0728 -0.0475
   75loPI   GL1 1189   5.727   5.360   9.302  0.1466 -0.0026  0.1495
   75loPI   GL2 1190   6.026   5.158   9.240  0.1653 -0.1286 -0.0280
   75loPI   C1A 1191   5.533   5.179   8.955  0.1188  0.2276  0.3650
   75loPI   C2A 1192   5.449   5.256   8.460  0.0150  0.5185  0.1209
   75loPI   C3A 1193   5.704   5.388   8.094  0.0413  0.1865 -0.1412
   75loPI   C4A 1194   5.896   5.677   7.768 -0.2174  0.0434  0.1131
   75loPI   C5A 1195   6.301   5.747   7.382 -0.0204  0.1392 -0.1457
   75loPI   C6A 1196   6.584   5.699   7.165  0.1906  0.0953 -0.3488
   75loPI   C1B 1197   6.019   4.984   8.842  0.1602 -0.1286  0.2985
   75loPI   C2B 1198   6.038   5.098   8.401 -0.2276 -0.0507 -0.0251
   75loPI   C3B 1199   6.189   5.192   8.023 -0.1735 -0.0382  0.0845
   75loPI   C4B 1200   6.159   5.308   7.624 -0.2008 -0.1773 -0.2544
   76loPI    C1 1201  17.644  16.030  10.767 -0.3745  0.2775  0.0962
   76loPI    C2 1202  17.407  15.710  10.807 -0.2760  0.1792 -0.0939
   76loPI    C3 1203  17.693  15.782  11.077 -0.4305  0.2213  0.0605
   76loPI   PO4 1204  17.713  15.962  10.410  0.0619 -0.1188  0.1088
   76loPI   GL1 1205  17.558  15.975   9.954  0.0342  0.1808  0.1460
   76loPI   GL2 1206  17.278  15.684   9.792 -0.0104 -0.0726 -0.1656
   76loPI   C1A 1207  17.710  15.900   9.526  0.2885 -0.0194  0.1750
   76loPI   C2A 1208  17.634  15.787   9.174 -0.1724 -0.0317 -0.0224
   76loPI   C3A 1209  17.557  15.779   8.754 -0.0468 -0.1212  0.0408
   76loPI   C4A 1210  17.520  15.662   8.299 -0.0119  0.1124  0.0534
   76loPI   C5A 1211  17.378  15.839   7.892  0.2718 -0.1429 -0.2305
   76loPI   C6A 1212  17.207  16.019   7.516  0.1036 -0.2533  0.3792
   76loPI   C1B 1213  17.202  15.771   9.389 -0.0122  0.0646 -0.0712
   76loPI   C2B 1214  17.022  15.536   9.058  0.0140  0.0553 -0.1366
   76loPI   C3B 1215  17.088  15.593   8.601  0.0773  0.0472 -0.2250
   76loPI   C4B 1216  17.048  15.556   8.168  0.4906 -0.3308  0.1621
   77loPI    C1 1217   5.860  10.455   9.998 -0.1924 -0.5547  0.0522
   77loPI    C2 1218   6.173  10.629  10.177 -0.0838 -0.4218 -0.2613
   77loPI    C3 1219   6.065  10.259  10.281 -0.0017 -0.3608  0.0513
   77loPI   PO4 1220   5.923  10.512   9.703 -0.1771  0.0022 -0.0096
   77loPI   GL1 1221   5.756  10.581   9.329  0.3616  0.1314 -0.1658
   77loPI   GL2 1222   5.501  10.599   9.491 -0.1980  0.0352  0.0528
   77loPI   C1A 1223   5.872  10.484   8.863 -0.0487 -0.0051  0.0294
   77loPI   C2A 1224   6.010  10.372   8.401 -0.0496 -0.0178 -0.1905
   77loPI   C3A 1225   6.135  10.376   7.958 -0.0233 -0.2876 -0.2562
   77loPI   C4A 1226   6.420  10.264   7.636  0.2777  0.1139 -0.0385
   77loPI   C5A 1227   6.851  10.337   7.558 -0.1458 -0.0873 -0.0649
   77loPI   C6A 1228   7.233   9.939   7.338  0.0762 -0.2844 -0.0655
   77loPI   C1B 1229   5.374  10.690   9.076 -0.2208 -0.2185  0.3185
   77loPI   C2B 1230   5.268  10.767   8.674  0.2490 -0.1358  0.0339
   77loPI   C3B 1231   5.170  10.951   8.232 -0.2891 -0.1362  0.1068
   77loPI   C4B 1232   5.126  11.311   7.924 -0.0474  0.1600 -0.0801
   78loPI    C1 1233   4.033   5.652   9.744  0.4852  0.2197 -0.1040
   78loPI    C2 1234   3.995   5.454  10.089  0.0778 -0.1113 -0.3293
   78loPI    C3 1235   4.116   5.835  10.090  0.2772 -0.1678  0.1583
   78loPI   PO4 1236   4.187   5.466   9.602 -0.1122 -0.2510 -0.2280
   78loPI   GL1 1237   4.124   4.957   9.412 -0.0225  0.2395 -0.2144
   78loPI   GL2 1238   3.874   5.162   9.402  0.1355 -0.1167 -0.0682
   78loPI   C1A 1239   4.258   4.818   9.030  0.4152  0.0532  0.3057
   78loPI   C2A 1240   4.296   4.751   8.561 -0.0356 -0.1892 -0.2303
   78loPI   C3A 1241   4.199   4.804   8.122 -0.3227 -0.0944  0.1194
   78loPI   C4A 1242   4.092   4.642   7.781 -0.0160 -0.4319 -0.0706
   78loPI   C5A 1243   4.113   4.480   7.426 -0.0930  0.3038 -0.2071
   78loPI   C6A 1244   4.203   4.303   7.004  0.0573 -0.1624 -0.2708
   78loPI   C1B 1245   4.086   5.280   8.874  0.2796  0.0031 -0.0913
   78loPI   C2B 1246   4.181   5.209   8.410 -0.1733 -0.0933  0.0276
   78loPI   C3B 1247   4.207   5.292   8.006  0.1963  0.1317  0.0460
   78loPI   C4B 1248   4.065   5.379   7.700  0.0156 -0.1650 -0.1940
   79loPI    C1 1249   0.451   9.227   9.907  0.1759 -0.1865  0.1288
   79loPI    C2 1250   0.802   9.399   9.993  0.1417 -0.0167 -0.0630
   79loPI    C3 1251   0.499   9.423  10.252  0.2813 -0.1976  0.1210
   79loPI   PO4 1252   0.449   9.196   9.591 -0.0435  0.1943 -0.0077
   79loPI   GL1 1253   0.460   9.321   9.162  0.0535  0.2339  0.1387
   79loPI   GL2 1254   0.135   9.318   9.002 -0.3040 -0.0918 -0.3216
   79loPI   C1A 1255   0.690   9.131   8.884 -0.2036 -0.1758 -0.0543
   79loPI   C2A 1256   0.736   9.260   8.427  0.2222  0.0904  0.3131
   79loPI   C3A 1257   0.705   9.302   7.943 -0.1211 -0.0288  0.0837
   79loPI   C4A 1258   0.536   9.177   7.523  0.2646  0.1068  0.1307
   79loPI   C5A 1259   0.468   9.472   7.204  0.3436  0.6602 -0.2993
   79loPI   C6A 1260   0.188   9.851   7.238  0.3498  0.2129  0.0949
   79loPI   C1B 1261   0.235   9.171   8.702 -0.2269 -0.1071  0.0307
   79loPI   C2B 1262   0.267   9.177   8.299 -0.2385 -0.0443 -0.3844
   79loPI   C3B 1263   0.131   9.083   7.805 -0.1068 -0.1563  0.2558
   79loPI   C4B 1264  -0.205   8.861   7.842 -0.0912  0.0863  0.2055
   80loPI    C1 1265   2.375  17.846  10.316  0.0754 -0.0522 -0.1164
   80loPI    C2 1266   2.503  17.564  10.569  0.0993  0.1516  0.1038
   80loPI    C3 1267   2.748  17.706  10.287  0.1544  0.1011  0.1260
   80loPI   PO4 1268   2.154  17.754  10.142 -0.0218  0.1250  0.2437
   80loPI   GL1 1269   1.938  17.519   9.916 -0.0948 -0.0186  0.0676
   80loPI   GL2 1270   1.798  17.207   9.723 -0.3129 -0.0494 -0.0833
   80loPI   C1A 1271   1.749  17.654   9.525 -0.3904  0.0121 -0.3360
   80loPI   C2A 1272   1.942  17.498   9.160 -0.0007  0.3546 -0.1181
   80loPI   C3A 1273   2.034  17.258   8.714  0.0453  0.1027 -0.0301
   80loPI   C4A 1274   2.147  17.374   8.325 -0.1964  0.1919  0.1621
   80loPI   C5A 1275   2.320  17.422   7.966 -0.6037 -0.0979 -0.0554
   80loPI   C6A 1276   2.361  17.818   7.812 -0.2329  0.0713  0.1951
   80loPI   C1B 1277   1.546  17.129   9.369  0.0008  0.1826  0.1558
   80loPI   C2B 1278   1.342  16.993   8.965  0.0160 -0.0711  0.1264
   80loPI   C3B 1279   1.119  17.156   8.632  0.0782 -0.2031  0.0628
   80loPI   C4B 1280   1.025  17.229   8.172 -0.1455 -0.1335  0.2226
   81loPI    C1 1281  13.548   7.919   9.819  0.0869  0.2227 -0.0135
   81loPI    C2 1282  13.465   7.743  10.168  0.1117  0.1896 -0.0242
   81loPI    C3 1283  13.794   7.640   9.966 -0.1325 -0.1172 -0.2758
   81loPI   PO4 1284  13.307   7.871   9.743 -0.1054 -0.1496  0.0035
   81loPI   GL1 1285  13.204   7.761   9.414 -0.1711  0.1317 -0.1857
   81loPI   GL2 1286  13.076   7.436   9.423  0.0596  0.0173  0.0392
   81loPI   C1A 1287  12.761   7.859   9.221 -0.1946  0.2244  0.0545
   81loPI   C2A 1288  12.748   7.846   8.760 -0.4392  0.2331 -0.0374
   81loPI   C3A 1289  12.679   7.893   8.246 -0.0215 -0.0911  0.0599
   81loPI   C4A 1290  12.764   7.935   7.796 -0.0528 -0.4105 -0.0051
   81loPI   C5A 1291  12.995   7.947   7.467 -0.0350 -0.0271 -0.0007
   81loPI   C6A 1292  13.117   8.353   7.225  0.0362  0.0519 -0.1916
   81loPI   C1B 1293  13.123   7.435   9.050 -0.1679 -0.2481 -0.0827
   81loPI   C2B 1294  13.093   7.483   8.622  0.0706 -0.1508  0.2167
   81loPI   C3B 1295  13.101   7.634   8.326 -0.3268 -0.1048 -0.0888
   81loPI   C4B 1296  13.073   7.575   7.943  0.1535 -0.0975 -0.1772
   82loPI    C1 1297   5.639   5.666   9.668 -0.2347  0.0458  0.0656
   82loPI    C2 1298   5.908   5.665   9.965  0.0194 -0.0213 -0.1609
   82loPI    C3 1299   5.575   5.446   9.996  0.2235 -0.3272 -0.0828
   82loPI   PO4 1300   5.713   5.811   9.517  0.3362 -0.4189 -0.1055
   82loPI   GL1 1301   5.826   5.808   9.107  0.3128  0.2185 -0.2852
   82loPI   GL2 1302   6.016   5.995   8.956 -0.0423 -0.1726 -0.1116
   82loPI   C1A 1303   5.893   5.557   8.698 -0.2199 -0.1553  0.1021
   82loPI   C2A 1304   6.135   5.613   8.308  0.2197  0.2270  0.1448
   82loPI   C3A 1305   6.357   5.726   7.958 -0.0800  0.2333 -0.1132
   82loPI   C4A 1306   6.573   6.052   7.813 -0.1563  0.2810  0.1613
   82loPI   C5A 1307   6.494   6.182   7.391  0.0367 -0.3929  0.1161
   82loPI   C6A 1308   6.478   6.502   7.112  0.2812 -0.1825 -0.0484
   82loPI   C1B 1309   6.068   6.054   8.556  0.0319  0.1976  0.0806
   82loPI   C2B 1310   6.168   6.115   8.168 -0.3696 -0.0351  0.2627
   82loPI   C3B 1311   6.159   6.328   7.751  0.0810 -0.1530  0.1377
   82loPI   C4B 1312   6.074   6.690   7.435 -0.0036 -0.2969  0.0044
   83loPI    C1 1313   9.942  17.172   9.617  0.0625  0.1664  0.3096
   83loPI    C2 1314  10.026  17.538   9.479  0.2927 -0.0481 -0.1417
   83loPI    C3 1315   9.655  17.393   9.446  0.1547  0.2092  0.2089
   83loPI   PO4 1316  10.214  17.071   9.685 -0.0173 -0.1171  0.0107
   83loPI   GL1 1317  10.478  17.137   9.237 -0.0246 -0.1732  0.3088
   83loPI   GL2 1318  10.346  16.885   9.149  0.3241  0.0703 -0.1139
   83loPI   C1A 1319  10.618  17.298   8.892  0.0113 -0.0054  0.4684
   83loPI   C2A 1320  10.821  17.229   8.434  0.0979 -0.2930 -0.1057
   83loPI   C3A 1321  10.894  17.159   7.978 -0.1217 -0.0238 -0.2022
   83loPI   C4A 1322  10.904  17.068   7.547 -0.2221 -0.1412 -0.1567
   83loPI   C5A 1323  10.908  17.247   7.161 -0.1216 -0.0427  0.1699
   83loPI   C6A 1324  10.751  17.298   6.801  0.0546 -0.0589 -0.1312
   83loPI   C1B 1325  10.165  16.637   8.820 -0.0385 -0.1433  0.0697
   83loPI   C2B 1326   9.977  16.435   8.485 -0.1688  0.2653 -0.3195
   83loPI   C3B 1327   9.714  16.243   8.168 -0.4011  0.4307  0.1576
   83loPI   C4B 1328   9.663  16.028   7.744  0.1818  0.1010  0.4276
   84loPI    C1 1329   9.928  16.547   9.746  0.1555 -0.1532  0.0691
   84loPI    C2 1330   9.622  16.803   9.719  0.1366 -0.1794  0.0346
   84loPI    C3 1331   9.608  16.502   9.982 -0.0032 -0.3643 -0.1812
   84loPI   PO4 1332  10.025  16.518   9.555 -0.0739 -0.2590  0.1507
   84loPI   GL1 1333   9.701  16.641   9.185  0.0410  0.1161 -0.1287
   84loPI   GL2 1334   9.693  16.911   9.269  0.0971 -0.1015  0.2107
   84loPI   C1A 1335   9.506  16.380   8.906 -0.1022 -0.0424 -0.0898
   84loPI   C2A 1336   9.502  16.584   8.529 -0.1443 -0.0446  0.0428
   84loPI   C3A 1337   9.405  16.648   8.092  0.0869 -0.3862  0.2174
   84loPI   C4A 1338   9.119  16.532   7.698 -0.4366  0.0615 -0.3137
   84loPI   C5A 1339   8.806  16.287   7.443 -0.1858 -0.2614 -0.2346
   84loPI   C6A 1340   8.822  16.117   7.064 -0.4525 -0.0835  0.2468
   84loPI   C1B 1341   9.924  17.263   9.027  0.0339  0.1717 -0.0409
   84loPI   C2B 1342  10.136  17.097   8.611 -0.0061  0.0021 -0.4063
   84loPI   C3B 1343  10.411  16.856   8.385  0.1799  0.1527 -0.2775
   84loPI   C4B 1344  10.511  16.927   7.834  0.4940  0.0099  0.0085
   85loPI    C1 1345  15.192   5.161  10.662  0.2104 -0.4024  0.1628
   85loPI    C2 1346  15.350   4.863  10.877 -0.0583 -0.3818  0.3930
   85loPI    C3 1347  15.257   5.210  11.053  0.2993 -0.1387  0.1169
   85loPI   PO4 1348  15.293   5.159  10.422  0.0151 -0.1330 -0.3124
   85loPI   GL1 1349  15.114   5.456  10.051  0.0723  0.0875  0.0714
   85loPI   GL2 1350  15.007   5.174   9.867 -0.0693 -0.0109  0.3307
   85loPI   C1A 1351  15.029   5.646   9.639  0.2840 -0.1661 -0.0679
   85loPI   C2A 1352  15.126   5.654   9.018  0.2917 -0.3413 -0.1427
   85loPI   C3A 1353  14.956   5.999   8.854 -0.1055 -0.1032  0.1475
   85loPI   C4A 1354  14.751   6.028   8.502  0.2554 -0.3477 -0.0711
   85loPI   C5A 1355  14.460   5.779   8.252  0.0525  0.2669  0.0328
   85loPI   C6A 1356  14.242   5.322   8.380 -0.0573 -0.0223  0.0252
   85loPI   C1B 1357  14.935   4.899   9.442  0.0694  0.0978  0.0520
   85loPI   C2B 1358  14.851   4.936   9.087 -0.2289 -0.2256  0.2716
   85loPI   C3B 1359  15.147   5.037   8.655  0.1199 -0.1848  0.0857
   85loPI   C4B 1360  15.208   4.993   8.218 -0.1125 -0.0943 -0.0405
   86loPI    C1 1361   6.276  12.157  10.142 -0.1438  0.0798 -0.1163
   86loPI    C2 1362   6.495  12.492  10.124  0.1583 -0.1173 -0.1804
   86loPI    C3 1363   6.525  12.249  10.441  0.0268 -0.1426 -0.1869
   86loPI   PO4 1364   6.286  11.981   9.907 -0.5452  0.1772  0.3174
   86loPI   GL1 1365   6.209  11.578   9.592 -0.0224  0.2643  0.1595
   86loPI   GL2 1366   5.905  11.852   9.581  0.2744  0.0453 -0.1046
   86loPI   C1A 1367   6.164  11.520   9.265  0.4454 -0.0690  0.1265
   86loPI   C2A 1368   5.845  11.489   8.922 -0.1957 -0.2618 -0.2645
   86loPI   C3A 1369   5.818  11.683   8.432  0.0106  0.0017 -0.2196
   86loPI   C4A 1370   5.996  11.855   7.938 -0.3710 -0.1130 -0.1439
   86loPI   C5A 1371   6.147  11.771   7.650 -0.1012 -0.2707 -0.0612
   86loPI   C6A 1372   5.923  11.502   7.539 -0.1673 -0.2810  0.1593
   86loPI   C1B 1373   6.127  11.996   9.260  0.1485 -0.0987 -0.1379
   86loPI   C2B 1374   6.136  11.934   8.891  0.0079 -0.0372 -0.0291
   86loPI   C3B 1375   6.301  11.677   8.710 -0.0805 -0.0446  0.0041
   86loPI   C4B 1376   6.125  11.298   8.503 -0.2323  0.3672 -0.0147
   87loPI    C1 1377  16.771   2.621  10.326  0.0857 -0.1321 -0.0118
   87loPI    C2 1378  16.540   2.751  10.625 -0.0547 -0.1660 -0.1047
   87loPI    C3 1379  16.823   2.478  10.696  0.1676  0.1042  0.0700
   87loPI   PO4 1380  16.497   2.537  10.095  0.4505  0.2742  0.0395
   87loPI   GL1 1381  16.577   2.499   9.775  0.0208  0.0833  0.1243
   87loPI   GL2 1382  16.614   2.877   9.782 -0.3086 -0.3954  0.2925
   87loPI   C1A 1383  16.242   2.681   9.506 -0.0333 -0.0030 -0.1291
   87loPI   C2A 1384  15.947   2.882   9.149 -0.0536 -0.0368  0.1032
   87loPI   C3A 1385  15.984   2.780   8.601  0.2453 -0.0099  0.0765
   87loPI   C4A 1386  15.787   2.651   8.207 -0.1373 -0.1003 -0.0968
   87loPI   C5A 1387  15.744   2.779   7.790  0.2620 -0.0914 -0.2720
   87loPI   C6A 1388  15.930   3.219   7.608 -0.3479 -0.1051 -0.1712
   87loPI   C1B 1389  16.776   2.917   9.371  0.3470 -0.3199  0.2667
   87loPI   C2B 1390  16.879   2.778   8.948  0.0447 -0.1715 -0.2571
   87loPI   C3B 1391  16.963   2.578   8.600  0.2767  0.0960  0.0264
   87loPI   C4B 1392  17.069   2.195   8.437  0.0075  0.0618  0.2277
   88loPI    C1 1393   9.923  12.543   9.562  0.0147 -0.0102  0.0156
   88loPI    C2 1394   9.551  12.409   9.621  0.1113 -0.2523  0.0875
   88loPI    C3 1395   9.767  12.543   9.930 -0.0058  0.1339  0.0074
   88loPI   PO4 1396   9.979  12.422   9.349  0.2514 -0.3879 -0.3847
   88loPI   GL1 1397  10.004  12.224   8.934  0.1682 -0.1293 -0.0511
   88loPI   GL2 1398  10.232  12.435   8.949  0.0124 -0.2083 -0.0689
   88loPI   C1A 1399   9.897  12.219   8.489 -0.1771 -0.0272 -0.2009
   88loPI   C2A 1400   9.786  12.180   7.928 -0.2663  0.0064  0.0546
   88loPI   C3A 1401   9.615  12.288   7.492 -0.0378  0.0346  0.0669
   88loPI   C4A 1402   9.231  12.230   7.363  0.1972 -0.1084 -0.4135
   88loPI   C5A 1403   8.806  12.552   7.165 -0.0250  0.0668  0.0909
   88loPI   C6A 1404   8.638  12.760   6.822  0.1513  0.1813 -0.1865
   88loPI   C1B 1405  10.372  12.270   8.525 -0.0249 -0.1684  0.2806
   88loPI   C2B 1406  10.332  12.332   8.074 -0.2111 -0.2062  0.2287
   88loPI   C3B 1407  10.252  12.304   7.582  0.0290 -0.1337  0.0213
   88loPI   C4B 1408  10.385  12.356   7.108 -0.1243 -0.0182  0.0763
   89loPI    C1 1409  10.268  18.928   9.869 -0.1609 -0.1174  0.0802
   89loPI    C2 1410   9.910  18.751   9.852 -0.2150  0.0099 -0.1543
   89loPI    C3 1411   9.942  19.122   9.998 -0.1373 -0.0988  0.1125
   89loPI   PO4 1412  10.359  18.659   9.604  0.3587 -0.1040  0.0404
   89loPI   GL1 1413  10.214  18.667   9.245 -0.4183 -0.0942 -0.0141
   89loPI   GL2 1414  10.180  18.372   9.092  0.0204  0.0091 -0.1964
   89loPI   C1A 1415  10.498  18.685   8.810 -0.0740 -0.3206 -0.0750
   89loPI   C2A 1416  10.648  18.659   8.416 -0.1870 -0.1842  0.0459
   89loPI   C3A 1417  10.499  18.543   8.020  0.1687 -0.0882 -0.2378
   89loPI   C4A 1418  10.508  18.588   7.624  0.0750  0.2228 -0.0572
   89loPI   C5A 1419  10.932  18.545   7.403  0.2373 -0.2192  0.2464
   89loPI   C6A 1420  11.340  18.413   7.166  0.0929 -0.2141 -0.0066
   89loPI   C1B 1421  10.311  18.174   8.742 -0.3676  0.3883  0.2558
   89loPI   C2B 1422  10.413  18.127   8.287 -0.3074 -0.0299  0.2668
   89loPI   C3B 1423  10.646  18.085   7.875  0.0497  0.0500  0.1405
   89loPI   C4B 1424  10.768  18.082   7.399  0.1903 -0.3751  0.1986
   90loPI    C1 1425  12.961  15.180   9.849  0.0149  0.1023  0.0148
   90loPI    C2 1426  12.870  14.791   9.852  0.2484  0.0441 -0.1709
   90loPI    C3 1427  12.666  15.045  10.083  0.0079 -0.1677 -0.1453
   90loPI   PO4 1428  13.037  15.136   9.538  0.1169  0.1406  0.2433
   90loPI   GL1 1429  13.061  15.255   9.262  0.1698 -0.1261  0.0151
   90loPI   GL2 1430  12.806  15.111   9.053  0.0066 -0.0979 -0.0492
   90loPI   C1A 1431  13.255  15.524   9.019 -0.2410 -0.0214  0.1719
   90loPI   C2A 1432  13.251  15.736   8.655  0.1778  0.0799 -0.1639
   90loPI   C3A 1433  13.571  15.892   8.416  0.2851  0.0939  0.2350
   90loPI   C4A 1434  13.621  15.913   7.948 -0.0099  0.0076  0.0066
   90loPI   C5A 1435  13.562  16.187   7.624 -0.2192  0.0688 -0.1182
   90loPI   C6A 1436  13.253  16.433   7.350 -0.1399 -0.1110 -0.3512
   90loPI   C1B 1437  12.990  15.209   8.757 -0.1241  0.0014  0.2278
   90loPI   C2B 1438  13.085  15.364   8.370  0.2157  0.1376 -0.0261
   90loPI   C3B 1439  13.172  15.664   8.055 -0.3043  0.0198  0.0091
   90loPI   C4B 1440  13.375  15.662   7.575 -0.0971 -0.3302 -0.0243
   91loPI    C1 1441   3.706   6.549   9.684 -0.2765  0.3039  0.0977
   91loPI    C2 1442   3.839   6.248   9.912 -0.3039  0.2140 -0.0042
   91loPI    C3 1443   3.946   6.624   9.996 -0.2090  0.1690  0.0793
   91loPI   PO4 1444   3.572   6.310   9.418  0.0161 -0.0920  0.2420
   91loPI   GL1 1445   3.316   6.383   9.099 -0.2174  0.1268  0.2470
   91loPI   GL2 1446   3.378   6.729   9.008  0.2494 -0.1189 -0.1456
   91loPI   C1A 1447   3.292   6.341   8.678  0.1183 -0.1468 -0.0310
   91loPI   C2A 1448   3.265   6.376   8.237  0.0039  0.1349  0.0243
   91loPI   C3A 1449   3.290   6.649   7.975 -0.1894 -0.1531  0.5142
   91loPI   C4A 1450   3.368   7.019   7.720 -0.2425  0.0782  0.1743
   91loPI   C5A 1451   3.538   7.471   7.491 -0.2079 -0.1189 -0.2982
   91loPI   C6A 1452   3.666   7.918   7.554 -0.3194  0.1147 -0.1520
   91loPI   C1B 1453   3.278   6.798   8.493  0.4634 -0.2682 -0.0105
   91loPI   C2B 1454   3.364   7.062   8.221  0.1137  0.2124 -0.0578
   91loPI   C3B 1455   3.636   7.311   8.170  0.0307 -0.1470 -0.0583
   91loPI   C4B 1456   3.544   7.662   8.036 -0.0070 -0.2529  0.2424
   92loPI    C1 1457   4.294   7.366   9.735 -0.0068 -0.0945 -0.1436
   92loPI    C2 1458   4.121   7.012   9.670 -0.1758 -0.0615  0.1080
   92loPI    C3 1459   4.305   7.083  10.018 -0.2912  0.1565  0.1257
   92loPI   PO4 1460   4.420   7.431   9.340 -0.2229 -0.1012  0.0562
   92loPI   GL1 1461   4.376   7.386   8.883  0.2395 -0.2159 -0.2652
   92loPI   GL2 1462   4.701   7.170   8.971 -0.0769 -0.0428  0.2713
   92loPI   C1A 1463   4.596   7.408   8.482 -0.1512 -0.0008 -0.2417
   92loPI   C2A 1464   4.530   7.381   7.998 -0.4594  0.0312 -0.4422
   92loPI   C3A 1465   4.448   7.298   7.578 -0.2039  0.1580 -0.0234
   92loPI   C4A 1466   4.357   7.431   7.119  0.3037  0.0363 -0.2917
   92loPI   C5A 1467   4.241   7.395   6.703 -0.1553  0.1447  0.2132
   92loPI   C6A 1468   3.871   7.439   6.470 -0.0195 -0.0880 -0.1388
   92loPI   C1B 1469   4.767   6.825   8.651 -0.4037  0.2279  0.0763
   92loPI   C2B 1470   4.702   6.510   8.242  0.0686  0.2329 -0.0008
   92loPI   C3B 1471   4.633   6.391   7.764 -0.1084 -0.1531 -0.2443
   92loPI   C4B 1472   4.371   6.046   7.623 -0.2646  0.0261  0.0325
   93loPI    C1 1473   1.977   7.330   9.600  0.1604 -0.0752 -0.1310
   93loPI    C2 1474   2.057   7.389   9.987 -0.0653 -0.4021 -0.0304
   93loPI    C3 1475   1.722   7.537   9.827 -0.0053 -0.3249 -0.0852
   93loPI   PO4 1476   2.206   7.415   9.508 -0.0487  0.0882 -0.0232
   93loPI   GL1 1477   2.224   7.565   9.146  0.0597 -0.3864  0.1287
   93loPI   GL2 1478   2.512   7.730   9.049 -0.2963 -0.2195  0.3186
   93loPI   C1A 1479   2.269   7.523   8.687 -0.0678  0.1173  0.2954
   93loPI   C2A 1480   2.436   7.482   8.268  0.0787  0.1611 -0.2043
   93loPI   C3A 1481   2.628   7.449   7.829  0.1453 -0.1314  0.1495
   93loPI   C4A 1482   2.581   7.556   7.360  0.0991 -0.0170 -0.3151
   93loPI   C5A 1483   2.336   7.460   6.987 -0.2805 -0.0817 -0.0623
   93loPI   C6A 1484   1.958   7.357   6.747  0.0796  0.2621 -0.0112
   93loPI   C1B 1485   2.804   8.029   8.790  0.0207  0.2467 -0.3664
   93loPI   C2B 1486   2.865   8.058   8.375 -0.0286 -0.0030  0.3394
   93loPI   C3B 1487   2.872   8.122   7.955  0.1599 -0.3150 -0.6879
   93loPI   C4B 1488   2.699   8.326   7.593  0.2424 -0.2820 -0.1556
   94loPI    C1 1489   9.735   2.857  10.011  0.0579  0.3077 -0.3093
   94loPI    C2 1490   9.604   3.215  10.131 -0.0593  0.1176  0.1548
   94loPI    C3 1491   9.756   2.959  10.397 -0.0481 -0.2099 -0.1585
   94loPI   PO4 1492   9.737   2.875   9.816 -0.0179  0.0519  0.1212
   94loPI   GL1 1493   9.709   3.122   9.483 -0.2494  0.0078 -0.0352
   94loPI   GL2 1494  10.023   3.146   9.488  0.3445  0.1818  0.2542
   94loPI   C1A 1495   9.711   3.113   9.063  0.0786  0.2103 -0.0333
   94loPI   C2A 1496   9.542   2.764   8.864 -0.0812 -0.2953 -0.1527
   94loPI   C3A 1497   9.356   2.748   8.454  0.2049 -0.0773 -0.0329
   94loPI   C4A 1498   9.548   2.888   8.012 -0.0481  0.0034 -0.1036
   94loPI   C5A 1499   9.445   3.113   7.638 -0.0446 -0.3356  0.1935
   94loPI   C6A 1500   9.296   2.697   7.375 -0.2483 -0.1002  0.0084
   94loPI   C1B 1501  10.359   3.172   9.192 -0.0738  0.2311  0.0586
   94loPI   C2B 1502  10.829   3.227   9.108  0.1442 -0.0231  0.0806
   94loPI   C3B 1503  11.044   3.235   8.787 -0.1984  0.0846 -0.2757
   94loPI   C4B 1504  11.247   3.507   8.381  0.2835 -0.1005  0.0387
   95loPI    C1 1505   9.680   5.862  10.120 -0.2087 -0.0608  0.0089
   95loPI    C2 1506   9.300   5.760  10.044 -0.1943  0.0064 -0.1559
   95loPI    C3 1507   9.467   5.663  10.394 -0.2492 -0.3449 -0.2241
   95loPI   PO4 1508   9.731   6.001   9.910 -0.2940  0.0340  0.2265
   95loPI   GL1 1509   9.970   5.890   9.625  0.1960  0.0554 -0.0012
   95loPI   GL2 1510  10.272   6.086   9.749 -0.1497 -0.1838 -0.1755
   95loPI   C1A 1511   9.779   5.669   9.319 -0.1433 -0.0727 -0.1411
   95loPI   C2A 1512   9.533   5.762   9.093 -0.0262 -0.2150 -0.2022
   95loPI   C3A 1513   9.413   5.706   8.728  0.1686 -0.1424  0.2484
   95loPI   C4A 1514   9.375   5.960   8.330 -0.0136 -0.2465 -0.2548
   95loPI   C5A 1515   9.318   6.098   7.894  0.2559  0.2062 -0.1298
   95loPI   C6A 1516   9.590   5.827   7.747  0.6355  0.4127 -0.2051
   95loPI   C1B 1517  10.194   6.193   9.279 -0.1498 -0.3285  0.0945
   95loPI   C2B 1518  10.176   6.352   8.810  0.0013  0.0980 -0.0885
   95loPI   C3B 1519  10.227   6.323   8.398  0.0686  0.0549  0.0943
   95loPI   C4B 1520  10.341   6.029   8.142 -0.0439  0.1260 -0.0358
   96loPI    C1 1521   6.525  11.485   9.978 -0.0076 -0.0951  0.0739
   96loPI    C2 1522   6.485  11.690  10.320 -0.1104  0.3599 -0.2028
   96loPI    C3 1523   6.162  11.539  10.138 -0.0371 -0.0400 -0.0110
   96loPI   PO4 1524   6.663  11.617   9.854 -0.0155 -0.1182 -0.1868
   96loPI   GL1 1525   6.836  11.454   9.493  0.0762  0.1619  0.1189
   96loPI   GL2 1526   7.142  11.623   9.329  0.1129  0.2607  0.0042
   96loPI   C1A 1527   6.675  11.649   9.159  0.0429  0.2501  0.2059
   96loPI   C2A 1528   6.829  11.723   8.703  0.0722 -0.0149  0.0254
   96loPI   C3A 1529   7.073  11.718   8.483  0.2131 -0.1596  0.1957
   96loPI   C4A 1530   7.409  11.705   8.274  0.1779  0.3237  0.2775
   96loPI   C5A 1531   7.570  11.797   7.810 -0.3359 -0.0748  0.0424
   96loPI   C6A 1532   7.386  12.044   7.534 -0.3987  0.0724 -0.1928
   96loPI   C1B 1533   7.194  11.735   8.990 -0.0291  0.1178  0.0094
   96loPI   C2B 1534   7.476  11.592   8.745  0.2624  0.0578  0.0742
   96loPI   C3B 1535   7.751  11.386   8.494 -0.3602  0.1442  0.1472
   96loPI   C4B 1536   7.846  11.565   8.168 -0.0073 -0.2714 -0.1679
   97loPI    C1 1537   9.175   8.629  10.110 -0.1437  0.1602 -0.1377
   97loPI    C2 1538   8.922   8.326  10.170  0.0632 -0.0325 -0.2235
   97loPI    C3 1539   9.294   8.307  10.315 -0.0039  0.2990  0.0027
   97loPI   PO4 1540   9.084   8.807   9.828  0.2965 -0.0973 -0.1770
   97loPI   GL1 1541   8.949   8.831   9.445 -0.1145 -0.2016  0.0001
   97loPI   GL2 1542   8.717   9.005   9.393  0.1155  0.3165 -0.0220
   97loPI   C1A 1543   9.084   8.651   9.156  0.1446  0.0718 -0.2308
   97loPI   C2A 1544   9.321   8.434   8.780 -0.1687 -0.1500 -0.4395
   97loPI   C3A 1545   9.117   8.429   8.369 -0.2637 -0.0285  0.0229
   97loPI   C4A 1546   9.391   8.383   7.945  0.0438 -0.1168 -0.0028
   97loPI   C5A 1547   9.644   8.191   7.631  0.1065  0.0435  0.0959
   97loPI   C6A 1548   9.746   8.108   7.158 -0.1540 -0.1946 -0.0998
   97loPI   C1B 1549   8.750   9.404   9.379  0.0544 -0.2296 -0.1430
   97loPI   C2B 1550   8.628   9.721   9.068  0.0567 -0.0027  0.0860
   97loPI   C3B 1551   8.775   9.703   8.611 -0.0981  0.2092 -0.0697
   97loPI   C4B 1552   9.123   9.832   8.443 -0.1027  0.1846  0.2167
   98loPI    C1 1553  11.387   7.209  10.119 -0.0676 -0.1307 -0.1475
   98loPI    C2 1554  11.128   6.906  10.148 -0.3041  0.0914  0.1364
   98loPI    C3 1555  11.238   7.106  10.476  0.2517 -0.0127  0.0240
   98loPI   PO4 1556  11.346   7.278   9.835  0.2082 -0.2701  0.2777
   98loPI   GL1 1557  11.385   7.543   9.485 -0.0670 -0.0544  0.0433
   98loPI   GL2 1558  11.074   7.451   9.271 -0.3868  0.2135  0.0123
   98loPI   C1A 1559  11.556   7.343   9.228 -0.4638 -0.1925  0.0688
   98loPI   C2A 1560  11.548   7.204   8.809  0.1180 -0.0187 -0.1689
   98loPI   C3A 1561  11.709   7.130   8.359 -0.1242 -0.1650 -0.0688
   98loPI   C4A 1562  11.738   6.785   8.035  0.1137  0.0048 -0.0425
   98loPI   C5A 1563  11.811   6.645   7.690 -0.1508  0.1299  0.1172
   98loPI   C6A 1564  11.472   6.489   7.405  0.2550 -0.0393  0.3806
   98loPI   C1B 1565  11.081   7.480   8.881  0.0835 -0.1293  0.3851
   98loPI   C2B 1566  11.257   7.753   8.575 -0.2231  0.1538  0.1456
   98loPI   C3B 1567  11.224   8.209   8.472 -0.0671 -0.1534  0.0861
   98loPI   C4B 1568  10.956   8.515   8.375 -0.1564 -0.2619  0.2076
   99loPI    C1 1569  17.127   3.095  10.313  0.2074 -0.1816  0.0570
   99loPI    C2 1570  17.244   2.725  10.413  0.0705 -0.1461  0.3612
   99loPI    C3 1571  17.077   2.963  10.688 -0.2106  0.0008  0.0712
   99loPI   PO4 1572  17.077   3.050  10.049 -0.0633 -0.1503  0.3540
   99loPI   GL1 1573  17.141   3.161   9.661 -0.1552 -0.1527  0.1164
   99loPI   GL2 1574  16.945   3.342   9.704  0.2530  0.1149  0.3719
   99loPI   C1A 1575  17.170   3.162   9.109 -0.0544  0.3283 -0.1474
   99loPI   C2A 1576  17.285   3.231   8.653  0.0056 -0.0264  0.1554
   99loPI   C3A 1577  17.285   3.239   8.251  0.6290  0.0835  0.1373
   99loPI   C4A 1578  17.212   3.390   7.844  0.1384  0.0634 -0.2178
   99loPI   C5A 1579  17.336   3.586   7.510 -0.0177  0.0027 -0.0543
   99loPI   C6A 1580  17.405   3.672   7.032  0.2607 -0.1913 -0.1774
   99loPI   C1B 1581  16.938   3.511   9.399  0.0955  0.1386 -0.1079
   99loPI   C2B 1582  16.971   3.656   9.014 -0.0391  0.0845 -0.0389
   99loPI   C3B 1583  16.900   3.576   8.584  0.1218  0.3791  0.2317
   99loPI   C4B 1584  16.884   3.689   8.161  0.0463 -0.0468  0.1457
  100loPI    C1 1585   6.652   6.487   9.643  0.2506 -0.1932  0.0412
  100loPI    C2 1586   6.537   6.761   9.911 -0.0703 -0.1740 -0.1112
  100loPI    C3 1587   6.341   6.414   9.884  0.0737 -0.2496 -0.2001
  100loPI   PO4 1588   6.619   6.602   9.395  0.1251  0.0768 -0.5040
  100loPI   GL1 1589   6.429   6.559   8.959 -0.2264 -0.0656  0.1549
  100loPI   GL2 1590   6.118   6.454   9.053 -0.1407  0.0591  0.0429
  100loPI   C1A 1591   6.471   6.351   8.659  0.3707  0.0545 -0.1578
  100loPI   C2A 1592   6.583   6.404   8.277 -0.0130  0.1870 -0.3409
  100loPI   C3A 1593   6.666   6.503   7.901  0.5808  0.0352  0.0918
  100loPI   C4A 1594   6.844   6.536   7.532  0.1738 -0.0557  0.5281
  100loPI   C5A 1595   6.851   6.860   7.155  0.0796  0.2744  0.0000
  100loPI   C6A 1596   6.690   7.196   7.006 -0.1917  0.3185 -0.0913
  100loPI   C1B 1597   6.058   6.577   8.561  0.0870  0.1270  0.0376
  100loPI   C2B 1598   6.138   6.640   8.188  0.2798  0.3272 -0.4613
  100loPI   C3B 1599   6.319   6.890   7.852 -0.1804  0.1337  0.0927
  100loPI   C4B 1600   6.478   6.986   7.437 -0.0407  0.0286 -0.0818
  101loPI    C1 1601  18.166   9.240   9.902  0.0462  0.0896 -0.0602
  101loPI    C2 1602  17.834   9.396  10.061  0.1802  0.2344  0.0815
  101loPI    C3 1603  18.141   9.295  10.297  0.2034  0.0157 -0.0391
  101loPI   PO4 1604  18.033   9.062   9.747  0.5661 -0.0233  0.1112
  101loPI   GL1 1605  18.208   8.791   9.454  0.0478 -0.0636 -0.1327
  101loPI   GL2 1606  17.969   8.599   9.423  0.0764  0.0468  0.0029
  101loPI   C1A 1607  18.254   8.688   8.992  0.1971 -0.0139  0.0260
  101loPI   C2A 1608  18.121   8.623   8.494 -0.2911  0.1375 -0.1515
  101loPI   C3A 1609  17.978   8.784   8.098  0.0260  0.0056  0.3003
  101loPI   C4A 1610  17.535   8.844   8.072 -0.0516 -0.2968  0.0844
  101loPI   C5A 1611  17.153   8.597   7.763 -0.0118  0.1770  0.1389
  101loPI   C6A 1612  17.177   8.220   7.610  0.3285 -0.1401  0.0541
  101loPI   C1B 1613  17.762   8.492   9.016  0.0065  0.3306 -0.1397
  101loPI   C2B 1614  17.595   8.399   8.564 -0.0919 -0.0929  0.2297
  101loPI   C3B 1615  17.545   8.337   8.131  0.0369  0.0096 -0.1494
  101loPI   C4B 1616  17.645   8.436   7.704 -0.1675  0.0238 -0.0672
  102loPI    C1 1617   3.371   1.090   9.677  0.0087 -0.0652 -0.2392
  102loPI    C2 1618   3.655   0.855   9.832 -0.0837 -0.1542 -0.2042
  102loPI    C3 1619   3.377   1.016  10.070 -0.0864 -0.0999 -0.2441
  102loPI   PO4 1620   3.401   1.235   9.531  0.0051 -0.0567  0.6468
  102loPI   GL1 1621   3.585   1.334   9.048  0.0919  0.1737 -0.5549
  102loPI   GL2 1622   3.825   1.075   8.990 -0.0665  0.3849  0.1591
  102loPI   C1A 1623   3.458   1.393   8.800  0.2366  0.0301  0.0719
  102loPI   C2A 1624   3.207   1.370   8.414 -0.0813  0.2330 -0.0386
  102loPI   C3A 1625   3.218   1.216   7.947 -0.2143 -0.1761 -0.4563
  102loPI   C4A 1626   3.293   0.942   7.510  0.3041  0.1105  0.2564
  102loPI   C5A 1627   3.552   1.177   7.139  0.2066 -0.1244 -0.2068
  102loPI   C6A 1628   3.540   1.482   6.987 -0.0774 -0.0836  0.1368
  102loPI   C1B 1629   3.861   1.218   8.558 -0.2124  0.3012  0.1640
  102loPI   C2B 1630   3.683   1.155   8.180 -0.1066  0.0444 -0.2144
  102loPI   C3B 1631   3.703   1.129   7.823  0.1580  0.1857  0.0694
  102loPI   C4B 1632   3.732   1.327   7.567  0.1802 -0.1499  0.1514
  103loPI    C1 1633  11.176  13.734   9.934 -0.1236  0.2214  0.2316
  103loPI    C2 1634  11.053  13.587  10.285 -0.1394  0.2212  0.2260
  103loPI    C3 1635  11.416  13.751  10.253  0.0575 -0.2217  0.1254
  103loPI   PO4 1636  10.961  13.751   9.713 -0.0663 -0.2373  0.1534
  103loPI   GL1 1637  10.744  14.009   9.354  0.2326 -0.1460  0.2989
  103loPI   GL2 1638  11.052  13.998   9.145  0.1471  0.2157  0.3975
  103loPI   C1A 1639  10.597  14.013   8.901  0.2209  0.0869  0.2191
  103loPI   C2A 1640  10.661  14.250   8.560 -0.1968  0.0823  0.1552
  103loPI   C3A 1641  10.939  14.060   8.222  0.2121 -0.0264 -0.0360
  103loPI   C4A 1642  10.767  13.772   8.009  0.2105  0.0100  0.2675
  103loPI   C5A 1643  10.929  13.662   7.648  0.2565  0.0934  0.0376
  103loPI   C6A 1644  10.916  13.703   7.137  0.1302  0.1168  0.0479
  103loPI   C1B 1645  11.074  13.944   8.772  0.0818 -0.2762  0.0949
  103loPI   C2B 1646  11.386  13.969   8.375  0.1720 -0.1019  0.0865
  103loPI   C3B 1647  11.382  14.040   7.940 -0.1200 -0.0533 -0.4582
  103loPI   C4B 1648  11.343  13.860   7.454  0.2328 -0.0942 -0.2758
  104loPI    C1 1649   2.678  17.115  10.509  0.0803  0.1454  0.2028
  104loPI    C2 1650   3.071  17.060  10.456  0.0547  0.0446  0.1147
  104loPI    C3 1651   2.940  17.354  10.695  0.1792  0.2209 -0.0309
  104loPI   PO4 1652   2.581  16.801  10.283 -0.0991  0.0116  0.0287
  104loPI   GL1 1653   2.514  16.771   9.804 -0.3121  0.0740 -0.0371
  104loPI   GL2 1654   2.169  16.843   9.939  0.1687 -0.0697  0.2548
  104loPI   C1A 1655   2.336  16.644   9.409  0.1229  0.1901  0.1279
  104loPI   C2A 1656   1.952  16.878   9.168  0.0080 -0.1210  0.1152
  104loPI   C3A 1657   1.757  16.715   8.802 -0.0149 -0.0975  0.1057
  104loPI   C4A 1658   1.550  16.824   8.464  0.2176 -0.0970  0.2627
  104loPI   C5A 1659   1.356  16.826   8.073 -0.0706  0.1761 -0.0742
  104loPI   C6A 1660   1.515  16.918   7.747  0.3433 -0.0990  0.0532
  104loPI   C1B 1661   1.816  16.656   9.696  0.1062 -0.4564  0.1183
  104loPI   C2B 1662   1.549  16.607   9.355  0.0003 -0.0518  0.0543
  104loPI   C3B 1663   1.260  16.465   8.953 -0.0601  0.2428 -0.0023
  104loPI   C4B 1664   1.270  16.384   8.502 -0.0241 -0.3149  0.0070
  105loPI    C1 1665   8.200   4.653  10.019 -0.1273  0.3088  0.0021
  105loPI    C2 1666   8.457   4.830  10.269  0.1970 -0.0262 -0.0856
  105loPI    C3 1667   8.162   4.602  10.414  0.2829 -0.0846 -0.0013
  105loPI   PO4 1668   8.303   4.589   9.840  0.2139 -0.1661 -0.0328
  105loPI   GL1 1669   8.350   4.781   9.356 -0.1421 -0.0938 -0.1867
  105loPI   GL2 1670   8.078   4.525   9.434 -0.0668  0.0201  0.1900
  105loPI   C1A 1671   8.456   4.807   8.841  0.2319 -0.0727 -0.1331
  105loPI   C2A 1672   8.572   4.578   8.414 -0.1185  0.1400 -0.1937
  105loPI   C3A 1673   8.870   4.649   7.932  0.0677  0.1930  0.0845
  105loPI   C4A 1674   9.157   4.642   7.600 -0.1872 -0.2376 -0.2230
  105loPI   C5A 1675   9.168   4.739   7.148 -0.0282  0.1022  0.3780
  105loPI   C6A 1676   9.008   4.578   6.748  0.0182 -0.2204 -0.2604
  105loPI   C1B 1677   8.068   4.326   8.913  0.1668 -0.1015  0.0215
  105loPI   C2B 1678   8.176   4.312   8.478  0.0737 -0.1638 -0.3869
  105loPI   C3B 1679   8.252   4.397   7.975 -0.2204 -0.3531 -0.1419
  105loPI   C4B 1680   8.512   4.296   7.716 -0.2650  0.0602 -0.0636
  106loPI    C1 1681  11.535   1.260   9.557 -0.2073 -0.0112 -0.1165
  106loPI    C2 1682  11.263   1.085   9.792 -0.0366 -0.0301  0.0695
  106loPI    C3 1683  11.588   1.252   9.953 -0.0587  0.2107 -0.1304
  106loPI   PO4 1684  11.353   1.360   9.359  0.1631 -0.2523 -0.1744
  106loPI   GL1 1685  11.122   1.246   9.029 -0.0306 -0.0363  0.1069
  106loPI   GL2 1686  11.107   0.874   8.921 -0.0865 -0.0082 -0.3346
  106loPI   C1A 1687  11.052   1.601   8.802 -0.3333  0.3938  0.0319
  106loPI   C2A 1688  11.024   1.670   8.356  0.2049 -0.2888  0.0587
  106loPI   C3A 1689  11.081   1.889   8.012  0.2562  0.0067  0.0679
  106loPI   C4A 1690  11.179   1.892   7.547 -0.2799  0.1279 -0.3083
  106loPI   C5A 1691  11.444   1.952   7.219  0.2759 -0.1007  0.0859
  106loPI   C6A 1692  11.352   1.870   6.802  0.2564  0.0851  0.1838
  106loPI   C1B 1693  11.273   1.111   8.532  0.2853 -0.0409 -0.1474
  106loPI   C2B 1694  11.458   1.456   8.509  0.2678  0.2445 -0.2071
  106loPI   C3B 1695  11.769   1.536   8.299  0.1864 -0.1824 -0.0423
  106loPI   C4B 1696  11.952   1.754   8.041 -0.2587  0.1443 -0.2652
  107loPI    C1 1697  17.574   1.743  10.380  0.2398 -0.0637  0.1050
  107loPI    C2 1698  17.259   1.694  10.621  0.1940 -0.2338  0.0127
  107loPI    C3 1699  17.532   1.974  10.703  0.0305 -0.0992  0.1045
  107loPI   PO4 1700  17.551   1.456  10.181  0.6324  0.3044 -0.1685
  107loPI   GL1 1701  17.558   1.513   9.865 -0.1930  0.0661  0.1295
  107loPI   GL2 1702  17.747   1.575   9.606 -0.0671 -0.0283  0.4051
  107loPI   C1A 1703  17.467   1.120   9.494 -0.2413 -0.0932  0.0712
  107loPI   C2A 1704  17.604   0.895   9.145  0.1735 -0.4710  0.2946
  107loPI   C3A 1705  17.714   0.818   8.692  0.0330 -0.0499  0.2170
  107loPI   C4A 1706  17.769   0.863   8.267  0.0019 -0.1387 -0.1495
  107loPI   C5A 1707  18.070   0.520   8.144 -0.1644 -0.1588 -0.0751
  107loPI   C6A 1708  17.972   0.219   7.810 -0.0216  0.1685  0.2046
  107loPI   C1B 1709  17.806   1.341   9.197 -0.1361 -0.1304  0.6571
  107loPI   C2B 1710  18.088   1.112   9.038  0.0550 -0.1799  0.1062
  107loPI   C3B 1711  18.219   0.959   8.676  0.2172 -0.1858  0.1949
  107loPI   C4B 1712  18.402   0.668   8.465  0.0313  0.3233 -0.0411
  108loPI    C1 1713  17.816   7.668  10.454  0.0037  0.0511 -0.0526
  108loPI    C2 1714  18.182   7.570  10.582 -0.0665  0.2782  0.3365
  108loPI    C3 1715  18.127   7.907  10.374 -0.0858  0.3576  0.4685
  108loPI   PO4 1716  17.656   7.476  10.373 -0.1042  0.1118  0.3419
  108loPI   GL1 1717  17.647   7.142  10.049  0.1562  0.1031 -0.1490
  108loPI   GL2 1718  17.652   7.384   9.808  0.1148 -0.1590 -0.1825
  108loPI   C1A 1719  17.418   7.072   9.538 -0.2921  0.2244 -0.2335
  108loPI   C2A 1720  17.475   7.094   9.039  0.3584  0.1649  0.1454
  108loPI   C3A 1721  17.486   7.318   8.636  0.0452 -0.2651  0.0157
  108loPI   C4A 1722  17.491   7.339   8.199  0.1681  0.1063  0.0170
  108loPI   C5A 1723  17.376   7.227   7.751 -0.2961 -0.3170 -0.0493
  108loPI   C6A 1724  17.385   7.111   7.189  0.1037  0.1476 -0.2691
  108loPI   C1B 1725  17.945   7.422   9.313  0.0261  0.4072  0.2853
  108loPI   C2B 1726  17.783   7.521   8.951  0.2575  0.0832 -0.1276
  108loPI   C3B 1727  17.912   7.636   8.591 -0.0019  0.1566 -0.2882
  108loPI   C4B 1728  17.964   7.524   8.214 -0.2782  0.2483 -0.0722
  109loPI    C1 1729   9.851   8.075   9.873 -0.1620  0.1532  0.0132
  109loPI    C2 1730   9.461   8.163   9.872 -0.2230 -0.0857  0.3922
  109loPI    C3 1731   9.595   7.855  10.088  0.1406 -0.1878  0.0340
  109loPI   PO4 1732   9.875   8.301   9.647 -0.2278 -0.0656  0.0848
  109loPI   GL1 1733   9.862   8.320   9.160  0.0086 -0.0494  0.2869
  109loPI   GL2 1734   9.765   8.056   8.994 -0.1165  0.0832 -0.3661
  109loPI   C1A 1735   9.611   8.714   9.073  0.1164 -0.2155 -0.0014
  109loPI   C2A 1736   9.550   8.944   8.787 -0.0849  0.3726  0.0546
  109loPI   C3A 1737   9.374   8.929   8.363  0.1584 -0.3896 -0.0709
  109loPI   C4A 1738   9.239   8.945   7.896  0.0835 -0.1422  0.0611
  109loPI   C5A 1739   9.541   8.731   7.549  0.0031  0.0841  0.1724
  109loPI   C6A 1740   9.842   8.662   7.315 -0.0510  0.0146  0.1185
  109loPI   C1B 1741   9.570   7.972   8.610 -0.1077  0.1230  0.1011
  109loPI   C2B 1742   9.558   7.821   8.217  0.3603 -0.2194  0.1887
  109loPI   C3B 1743   9.739   7.718   7.954 -0.0258  0.3370 -0.3982
  109loPI   C4B 1744   9.597   7.682   7.501  0.0417  0.2723 -0.0421
  110loPI    C1 1745   1.433  13.929  10.306  0.2040 -0.0345  0.0176
  110loPI    C2 1746   1.455  13.971  10.703 -0.0238 -0.0714  0.0357
  110loPI    C3 1747   1.494  13.609  10.538  0.0647 -0.0569  0.0242
  110loPI   PO4 1748   1.498  14.126  10.144  0.0613 -0.4108 -0.1817
  110loPI   GL1 1749   1.577  14.125   9.643  0.1917  0.0099 -0.2539
  110loPI   GL2 1750   1.788  14.331   9.757  0.2483 -0.1353 -0.3600
  110loPI   C1A 1751   1.369  14.112   9.321 -0.2213  0.4465 -0.0288
  110loPI   C2A 1752   1.249  13.972   9.000  0.0907 -0.1225 -0.3840
  110loPI   C3A 1753   1.073  13.846   8.656  0.1132  0.0580  0.3567
  110loPI   C4A 1754   0.847  13.855   8.224 -0.0700 -0.3810 -0.0769
  110loPI   C5A 1755   0.733  13.670   7.837 -0.1336 -0.2372 -0.1404
  110loPI   C6A 1756   0.656  13.318   7.562  0.0793 -0.1222  0.1464
  110loPI   C1B 1757   1.669  14.580   9.500 -0.3774 -0.0202 -0.1639
  110loPI   C2B 1758   1.398  14.569   9.073  0.1355 -0.0750 -0.0305
  110loPI   C3B 1759   1.222  14.365   8.698  0.5056  0.1920  0.0293
  110loPI   C4B 1760   0.934  14.265   8.447  0.1327 -0.3006  0.2565
  111loPI    C1 1761   6.148   7.589   9.485 -0.1315 -0.0061 -0.1085
  111loPI    C2 1762   6.384   7.837   9.279  0.0071  0.0875  0.1582
  111loPI    C3 1763   6.535   7.502   9.437 -0.0911  0.0320  0.1354
  111loPI   PO4 1764   5.871   7.673   9.363 -0.0742  0.1301 -0.4477
  111loPI   GL1 1765   5.941   7.898   8.997  0.0467  0.0773  0.0434
  111loPI   GL2 1766   5.962   7.813   8.680 -0.0190 -0.1547 -0.0821
  111loPI   C1A 1767   5.832   8.245   8.900 -0.0137 -0.3109 -0.1761
  111loPI   C2A 1768   5.897   8.323   8.499 -0.2549  0.0174  0.0222
  111loPI   C3A 1769   5.931   8.325   8.027  0.3454 -0.3358  0.0810
  111loPI   C4A 1770   5.762   8.142   7.589 -0.2597 -0.1215 -0.0142
  111loPI   C5A 1771   5.596   8.095   7.171 -0.0898  0.1304  0.0018
  111loPI   C6A 1772   5.588   7.989   6.801 -0.0547  0.2928 -0.2419
  111loPI   C1B 1773   5.845   7.486   8.579  0.0945  0.0618  0.0876
  111loPI   C2B 1774   5.506   7.424   8.425 -0.0631 -0.0611 -0.2447
  111loPI   C3B 1775   5.390   7.294   7.992  0.3025  0.3257  0.2104
  111loPI   C4B 1776   5.063   7.405   7.666 -0.1269 -0.0823 -0.2837
  112loPI    C1 1777  14.714   1.913  10.448  0.1566 -0.1653  0.0982
  112loPI    C2 1778  14.929   1.680  10.691 -0.1469 -0.1496  0.3892
  112loPI    C3 1779  14.681   1.953  10.845 -0.1289  0.0598  0.0551
  112loPI   PO4 1780  14.669   1.770  10.248 -0.2412 -0.2052  0.0291
  112loPI   GL1 1781  14.813   1.888   9.866  0.2053  0.0833  0.2029
  112loPI   GL2 1782  14.536   2.083   9.744 -0.1180  0.3257  0.1407
  112loPI   C1A 1783  14.993   1.660   9.496 -0.3048  0.1818 -0.1466
  112loPI   C2A 1784  15.110   1.667   9.101 -0.1004 -0.0540  0.2063
  112loPI   C3A 1785  15.259   1.317   8.785 -0.2149  0.0504  0.0001
  112loPI   C4A 1786  15.338   1.271   8.329  0.1726  0.1753  0.1663
  112loPI   C5A 1787  15.413   1.010   7.900  0.1378 -0.0061 -0.1536
  112loPI   C6A 1788  15.795   1.019   7.650 -0.0007  0.0884 -0.0293
  112loPI   C1B 1789  14.786   2.226   9.390  0.0774  0.1681 -0.1247
  112loPI   C2B 1790  14.834   2.269   9.011 -0.3827  0.0052 -0.0264
  112loPI   C3B 1791  15.009   2.425   8.544  0.0657  0.0558  0.0649
  112loPI   C4B 1792  15.385   2.676   8.509  0.0122  0.0027 -0.3173
  113loPI    C1 1793  12.070  16.542   9.682  0.0552 -0.1836  0.1879
  113loPI    C2 1794  12.055  16.885   9.886  0.0868 -0.1822  0.1879
  113loPI    C3 1795  12.316  16.601   9.991  0.1985 -0.1262  0.0642
  113loPI   PO4 1796  12.094  16.654   9.427  0.3659  0.1618 -0.1783
  113loPI   GL1 1797  12.326  16.679   9.097  0.2622  0.4098  0.0353
  113loPI   GL2 1798  12.138  16.358   8.980  0.3702  0.1935 -0.1319
  113loPI   C1A 1799  12.346  16.715   8.665 -0.0675 -0.1628  0.3045
  113loPI   C2A 1800  12.309  16.589   8.122  0.1718 -0.0529 -0.2631
  113loPI   C3A 1801  12.520  16.769   7.639  0.1584 -0.1895 -0.2097
  113loPI   C4A 1802  12.383  16.797   7.283 -0.3089 -0.1978  0.0119
  113loPI   C5A 1803  12.408  16.677   6.817  0.1109 -0.1079 -0.2359
  113loPI   C6A 1804  12.504  16.781   6.337 -0.2759 -0.1056 -0.0831
  113loPI   C1B 1805  12.055  16.283   8.496  0.1865  0.3584 -0.2249
  113loPI   C2B 1806  11.949  16.198   8.040  0.0211  0.2371 -0.0403
  113loPI   C3B 1807  11.985  15.889   7.752  0.0312  0.1586  0.0262
  113loPI   C4B 1808  11.846  15.670   7.466  0.0566  0.3661 -0.1468
  114loPI    C1 1809  11.863   0.939  10.308  0.0386 -0.3523  0.0700
  114loPI    C2 1810  12.201   1.121  10.422 -0.0432 -0.2056  0.0806
  114loPI    C3 1811  11.923   1.025  10.694 -0.1307 -0.0767  0.0373
  114loPI   PO4 1812  12.042   0.724  10.094 -0.0602 -0.2010 -0.3852
  114loPI   GL1 1813  12.032   0.702   9.619  0.2594 -0.2477 -0.1255
  114loPI   GL2 1814  11.895   0.902   9.564 -0.2894  0.0909  0.3669
  114loPI   C1A 1815  12.021   0.415   9.194  0.0586  0.0430 -0.4006
  114loPI   C2A 1816  11.944   0.449   8.815 -0.0714 -0.0675 -0.2149
  114loPI   C3A 1817  11.905   0.395   8.389 -0.0314  0.0212 -0.1772
  114loPI   C4A 1818  11.796   0.256   7.986  0.1363  0.1831 -0.2388
  114loPI   C5A 1819  11.616   0.088   7.685  0.2629 -0.0025  0.2991
  114loPI   C6A 1820  11.505  -0.267   7.302 -0.0731  0.0525 -0.2661
  114loPI   C1B 1821  12.025   0.897   9.113 -0.0557 -0.1431 -0.2395
  114loPI   C2B 1822  12.289   0.859   8.687  0.2049  0.0887  0.1939
  114loPI   C3B 1823  12.244   0.798   8.208  0.2005 -0.2017 -0.0722
  114loPI   C4B 1824  11.922   0.735   7.918  0.1186  0.3697  0.3042
  115loPI    C1 1825   5.093   9.879  10.173  0.0527  0.0711  0.1432
  115loPI    C2 1826   5.377   9.637  10.320 -0.0036 -0.0248  0.0948
  115loPI    C3 1827   4.990   9.545  10.368 -0.0255  0.0546  0.0737
  115loPI   PO4 1828   5.166   9.935   9.886  0.0009  0.2652  0.0755
  115loPI   GL1 1829   5.176  10.099   9.595  0.1070 -0.0189 -0.1251
  115loPI   GL2 1830   5.259   9.752   9.423 -0.0600 -0.0276  0.1397
  115loPI   C1A 1831   5.172  10.282   9.205  0.1229 -0.0472 -0.1857
  115loPI   C2A 1832   5.430  10.234   8.763  0.0970  0.1050 -0.1828
  115loPI   C3A 1833   5.556  10.367   8.406 -0.4850  0.0787 -0.0336
  115loPI   C4A 1834   5.322  10.502   7.979 -0.2177  0.0296 -0.0426
  115loPI   C5A 1835   5.287  10.863   7.693  0.0301  0.4512  0.3171
  115loPI   C6A 1836   5.579  11.115   7.568 -0.0321  0.1310 -0.3098
  115loPI   C1B 1837   5.320   9.804   9.019  0.1431 -0.0460  0.3624
  115loPI   C2B 1838   5.341   9.751   8.598  0.0058 -0.0461  0.1326
  115loPI   C3B 1839   5.486   9.483   8.211 -0.0430 -0.0511  0.0582
  115loPI   C4B 1840   5.605   9.552   7.799 -0.0026 -0.1195 -0.1215
  116loPI    C1 1841  18.344  15.993  10.388  0.2066 -0.0868 -0.0516
  116loPI    C2 1842  18.099  15.901  10.690 -0.0226  0.1334 -0.1667
  116loPI    C3 1843  18.415  16.138  10.754  0.1357 -0.1099 -0.0285
  116loPI   PO4 1844  18.106  15.924  10.167 -0.1399  0.0519  0.1775
  116loPI   GL1 1845  18.076  16.009   9.778 -0.0720  0.1155  0.2065
  116loPI   GL2 1846  18.396  15.935   9.734  0.0202 -0.0444  0.2536
  116loPI   C1A 1847  18.092  16.049   9.306 -0.0171 -0.2190  0.0622
  116loPI   C2A 1848  18.189  16.145   8.775 -0.0389 -0.1488 -0.0542
  116loPI   C3A 1849  17.992  15.968   8.308 -0.2555 -0.0434 -0.1598
  116loPI   C4A 1850  17.865  15.829   7.931  0.0554  0.3339 -0.0171
  116loPI   C5A 1851  17.725  16.007   7.581 -0.0395 -0.2815  0.2113
  116loPI   C6A 1852  17.694  16.096   7.233 -0.1937  0.0040 -0.1953
  116loPI   C1B 1853  18.609  16.201   9.457  0.2735  0.1511 -0.0038
  116loPI   C2B 1854  18.641  16.237   9.070 -0.1812  0.2732 -0.0558
  116loPI   C3B 1855  18.623  16.091   8.544  0.0264 -0.1199  0.2365
  116loPI   C4B 1856  18.403  16.110   8.117  0.0062 -0.1024 -0.1922
  117loPI    C1 1857  19.134  16.114  10.542  0.2947  0.0017  0.0622
  117loPI    C2 1858  19.283  15.756  10.640  0.0565 -0.1641 -0.1661
  117loPI    C3 1859  18.898  15.839  10.711  0.0594 -0.0282 -0.3042
  117loPI   PO4 1860  19.261  16.154  10.248  0.3917 -0.0028 -0.1035
  117loPI   GL1 1861  19.079  16.091   9.821 -0.0927  0.1421 -0.1028
  117loPI   GL2 1862  19.121  15.820   9.611 -0.1839  0.3112  0.1491
  117loPI   C1A 1863  19.138  16.325   9.454  0.4162 -0.3733 -0.0206
  117loPI   C2A 1864  19.095  16.381   9.046  0.1322  0.2705  0.2305
  117loPI   C3A 1865  19.115  16.358   8.690  0.0308  0.0193 -0.1200
  117loPI   C4A 1866  19.159  16.445   8.172  0.1283 -0.3301  0.0792
  117loPI   C5A 1867  18.964  16.270   7.856 -0.0312 -0.0251 -0.0538
  117loPI   C6A 1868  18.912  16.538   7.431 -0.0471  0.2993  0.0540
  117loPI   C1B 1869  18.999  15.903   9.257 -0.0755 -0.0917  0.0514
  117loPI   C2B 1870  18.981  15.862   8.834  0.1667  0.1617 -0.1903
  117loPI   C3B 1871  19.070  15.812   8.397 -0.0433  0.0901 -0.0222
  117loPI   C4B 1872  18.976  15.818   7.911 -0.1502 -0.0742 -0.2570
  118loPI    C1 1873  18.717  10.586   9.894  0.0521  0.3738  0.2728
  118loPI    C2 1874  19.008  10.380  10.074  0.0706 -0.0190 -0.1862
  118loPI    C3 1875  18.693  10.506  10.285  0.2552 -0.1632  0.1844
  118loPI   PO4 1876  18.671  10.496   9.592  0.1122  0.0283 -0.4467
  118loPI   GL1 1877  18.594  10.575   9.270 -0.2557 -0.1711  0.0345
  118loPI   GL2 1878  18.479  10.268   9.122 -0.2061 -0.2861  0.0010
  118loPI   C1A 1879  18.828  10.775   8.887  0.2820  0.2709 -0.2146
  118loPI   C2A 1880  18.938  10.914   8.474  0.0677 -0.0534 -0.0130
  118loPI   C3A 1881  18.972  11.098   7.968 -0.2119  0.0007  0.0154
  118loPI   C4A 1882  19.070  11.510   7.885  0.0642 -0.1323 -0.0320
  118loPI   C5A 1883  19.177  11.784   7.555  0.1600  0.0797  0.0369
  118loPI   C6A 1884  19.414  11.811   7.224  0.0600  0.1521 -0.1320
  118loPI   C1B 1885  18.332  10.128   8.725  0.1169  0.1204 -0.1698
  118loPI   C2B 1886  18.244  10.243   8.287  0.1226  0.0461 -0.2022
  118loPI   C3B 1887  18.319  10.348   7.774 -0.0278  0.0199  0.1552
  118loPI   C4B 1888  18.359  10.332   7.326  0.2891  0.3892  0.1843
  119loPI    C1 1889   2.014   6.804   9.524  0.1046 -0.0203 -0.0232
  119loPI    C2 1890   2.094   6.936   9.893 -0.1869  0.0847  0.0049
  119loPI    C3 1891   2.080   6.543   9.819 -0.1598  0.0631  0.1127
  119loPI   PO4 1892   2.165   6.928   9.363 -0.1294 -0.0092 -0.2755
  119loPI   GL1 1893   2.077   7.086   9.029 -0.1608 -0.1399  0.1674
  119loPI   GL2 1894   1.797   7.282   9.004 -0.2085  0.0444 -0.3779
  119loPI   C1A 1895   2.291   7.035   8.570  0.1101  0.1524  0.2143
  119loPI   C2A 1896   2.353   6.994   8.113 -0.1843 -0.2745  0.1476
  119loPI   C3A 1897   2.308   6.986   7.603 -0.2326 -0.2269 -0.0690
  119loPI   C4A 1898   2.463   6.993   7.266 -0.1487 -0.3844  0.1159
  119loPI   C5A 1899   2.253   6.929   6.966  0.2375  0.2642 -0.0695
  119loPI   C6A 1900   1.766   6.928   6.986  0.1563 -0.1405  0.0287
  119loPI   C1B 1901   1.804   7.303   8.630  0.3153 -0.1102  0.2796
  119loPI   C2B 1902   1.988   7.406   8.264 -0.0018  0.0390  0.0027
  119loPI   C3B 1903   2.122   7.500   7.822 -0.2533  0.0028 -0.0006
  119loPI   C4B 1904   2.259   7.959   7.534 -0.1699  0.0971  0.3302
  120loPI    C1 1905  11.853   6.519  10.174  0.2222  0.0963  0.0896
  120loPI    C2 1906  11.716   6.854  10.344  0.2380  0.1445  0.0079
  120loPI    C3 1907  11.515   6.688  10.041  0.0827 -0.0715  0.2256
  120loPI   PO4 1908  12.021   6.571  10.083  0.1588 -0.1964 -0.0843
  120loPI   GL1 1909  12.116   6.585   9.707  0.0333  0.0590  0.3012
  120loPI   GL2 1910  11.758   6.590   9.620 -0.0185 -0.2218 -0.0985
  120loPI   C1A 1911  12.208   6.690   9.230 -0.1862  0.0230  0.0528
  120loPI   C2A 1912  12.292   6.463   8.901  0.1770  0.1647  0.1765
  120loPI   C3A 1913  12.262   6.198   8.548  0.0194 -0.1074  0.3649
  120loPI   C4A 1914  12.480   6.126   8.163  0.0778  0.0243 -0.0533
  120loPI   C5A 1915  12.312   5.872   7.790 -0.1761  0.1326  0.0059
  120loPI   C6A 1916  12.080   5.521   7.564 -0.0321  0.4466 -0.0676
  120loPI   C1B 1917  11.926   6.305   9.262  0.1993  0.0134 -0.2428
  120loPI   C2B 1918  11.980   6.064   8.913  0.2905  0.0576 -0.3245
  120loPI   C3B 1919  11.793   6.129   8.396 -0.3396 -0.0312 -0.2690
  120loPI   C4B 1920  11.736   6.306   7.981  0.1455 -0.0474  0.0164
  121loPI    C1 1921  16.827   1.037  10.850 -0.5882  0.1599  0.1555
  121loPI    C2 1922  16.839   1.414  10.717  0.0288  0.0575 -0.1102
  121loPI    C3 1923  17.031   1.314  11.053 -0.1679 -0.0138 -0.0180
  121loPI   PO4 1924  16.796   0.905  10.623 -0.1703  0.2019  0.2433
  121loPI   GL1 1925  17.055   0.877  10.254  0.1800  0.0598  0.1321
  121loPI   GL2 1926  17.260   1.118   9.992  0.0213  0.1060 -0.1109
  121loPI   C1A 1927  17.238   0.687   9.751  0.1594  0.2599  0.2283
  121loPI   C2A 1928  17.656   0.608   9.596  0.1612  0.0253 -0.1581
  121loPI   C3A 1929  17.849   0.207   9.348  0.1961  0.3245 -0.1025
  121loPI   C4A 1930  17.824  -0.286   9.365  0.3189 -0.1762  0.3488
  121loPI   C5A 1931  17.940  -0.745   9.384 -0.1540 -0.0255 -0.1907
  121loPI   C6A 1932  18.074  -1.109   9.202  0.0141  0.1112 -0.1631
  121loPI   C1B 1933  16.976   1.314   9.678 -0.2157 -0.0369  0.0418
  121loPI   C2B 1934  16.724   1.521   9.521 -0.1454  0.0110  0.2796
  121loPI   C3B 1935  16.599   1.795   9.105 -0.0589  0.3182  0.2678
  121loPI   C4B 1936  16.613   1.579   8.749 -0.0609  0.1071  0.0394
  122loPI    C1 1937   4.083  14.437  10.431 -0.1999 -0.0642 -0.0229
  122loPI    C2 1938   4.230  14.395  10.061 -0.2122  0.0703 -0.0437
  122loPI    C3 1939   4.313  14.122  10.342 -0.0704  0.0515 -0.1028
  122loPI   PO4 1940   3.826  14.511  10.347  0.2416  0.2238 -0.1049
  122loPI   GL1 1941   3.692  14.684   9.951 -0.1339 -0.4757 -0.0952
  122loPI   GL2 1942   3.452  14.696   9.699  0.4399  0.0108 -0.0951
  122loPI   C1A 1943   3.928  14.556   9.518  0.0224 -0.0264 -0.0455
  122loPI   C2A 1944   3.921  14.660   9.076 -0.0938  0.3748  0.1182
  122loPI   C3A 1945   3.733  14.615   8.647 -0.0656  0.0506 -0.0256
  122loPI   C4A 1946   3.553  14.855   8.329 -0.0611  0.0179 -0.2044
  122loPI   C5A 1947   3.552  15.071   7.937 -0.2080 -0.1575 -0.3306
  122loPI   C6A 1948   3.341  15.492   7.893 -0.0952  0.1343 -0.4340
  122loPI   C1B 1949   3.420  14.732   9.199 -0.1522  0.0223 -0.3045
  122loPI   C2B 1950   3.248  14.807   8.818  0.1682  0.0770  0.1856
  122loPI   C3B 1951   3.139  14.569   8.503 -0.0825 -0.6007  0.1049
  122loPI   C4B 1952   3.163  14.468   8.156  0.0202 -0.5368 -0.0708
  123loPI    C1 1953   8.210  15.298   9.789  0.0715 -0.1401  0.0579
  123loPI    C2 1954   7.971  15.557   9.978 -0.0930 -0.0766 -0.2298
  123loPI    C3 1955   7.998  15.179  10.106  0.1143  0.0666  0.1656
  123loPI   PO4 1956   8.205  15.432   9.537 -0.2140  0.2236 -0.0194
  123loPI   GL1 1957   8.434  15.322   9.131 -0.1760  0.1172 -0.0565
  123loPI   GL2 1958   8.062  15.250   9.102 -0.1732 -0.0611 -0.1389
  123loPI   C1A 1959   8.454  15.066   8.728 -0.0677 -0.1119 -0.1404
  123loPI   C2A 1960   8.446  14.655   8.705 -0.0051  0.0612  0.2914
  123loPI   C3A 1961   8.393  14.642   8.372 -0.1113 -0.1255 -0.0877
  123loPI   C4A 1962   8.517  14.860   7.981 -0.1531  0.0714 -0.1420
  123loPI   C5A 1963   8.531  14.518   7.653 -0.0292  0.0023 -0.1107
  123loPI   C6A 1964   8.535  14.335   7.235 -0.1670  0.2921 -0.0666
  123loPI   C1B 1965   8.164  15.493   8.763  0.1478  0.0151 -0.2206
  123loPI   C2B 1966   8.170  15.747   8.385  0.2045 -0.1304  0.0979
  123loPI   C3B 1967   8.117  15.854   7.867 -0.0521  0.0669 -0.1144
  123loPI   C4B 1968   7.790  15.665   7.587  0.1766 -0.4483  0.1621
  124loPI    C1 1969  13.505   6.696  10.089 -0.0524  0.0571  0.2369
  124loPI    C2 1970  13.222   6.452  10.231  0.0930 -0.1409  0.1911
  124loPI    C3 1971  13.311   6.790  10.426 -0.2375 -0.0300  0.1558
  124loPI   PO4 1972  13.477   6.688   9.843  0.2381  0.0580  0.1389
  124loPI   GL1 1973  13.321   6.752   9.501  0.0179 -0.1306  0.1593
  124loPI   GL2 1974  13.083   6.965   9.584 -0.0558 -0.1690 -0.1769
  124loPI   C1A 1975  13.338   6.633   9.015 -0.2569 -0.0284 -0.3074
  124loPI   C2A 1976  13.349   6.557   8.601  0.2182 -0.1500  0.1884
  124loPI   C3A 1977  13.093   6.461   8.182  0.1767  0.0094 -0.1651
  124loPI   C4A 1978  12.992   6.064   8.057  0.0948  0.4197  0.0845
  124loPI   C5A 1979  13.160   5.670   7.985  0.0668  0.1931  0.1901
  124loPI   C6A 1980  13.101   5.143   7.915 -0.2255 -0.0207 -0.1012
  124loPI   C1B 1981  12.928   6.918   9.214  0.1049 -0.0778  0.2511
  124loPI   C2B 1982  12.872   6.820   8.747 -0.0019  0.0772 -0.0286
  124loPI   C3B 1983  12.579   6.603   8.426 -0.0289  0.0525 -0.4421
  124loPI   C4B 1984  12.182   6.536   8.173 -0.0680  0.0607 -0.1082
  125loPI    C1 1985   9.124   9.731  10.082 -0.0893 -0.0079 -0.0486
  125loPI    C2 1986   9.295   9.588  10.415 -0.0100  0.0012 -0.0851
  125loPI    C3 1987   8.899   9.645  10.402  0.0208  0.2820  0.1107
  125loPI   PO4 1988   9.334   9.609   9.879  0.0054 -0.1935  0.0976
  125loPI   GL1 1989   9.539   9.263   9.620 -0.2915  0.3455  0.0622
  125loPI   GL2 1990   9.237   9.288   9.479  0.0346  0.3154  0.1637
  125loPI   C1A 1991   9.659   9.181   9.239 -0.1287  0.0001  0.1405
  125loPI   C2A 1992   9.635   9.436   8.903 -0.0961  0.2217  0.2287
  125loPI   C3A 1993   9.654   9.401   8.487 -0.0859 -0.2050  0.1126
  125loPI   C4A 1994   9.667   9.279   8.066 -0.1353  0.3225 -0.0671
  125loPI   C5A 1995   9.806   9.208   7.700 -0.1357  0.0026  0.0731
  125loPI   C6A 1996   9.905   9.248   7.243  0.1621  0.2205 -0.0448
  125loPI   C1B 1997   9.177   9.168   9.080 -0.0529  0.2215  0.0737
  125loPI   C2B 1998   9.005   8.918   8.750  0.0684  0.1020 -0.0965
  125loPI   C3B 1999   8.741   8.774   8.356 -0.4132  0.2235  0.1127
  125loPI   C4B 2000   8.923   8.519   7.924  0.1953 -0.1291 -0.0133
  126loPI    C1 2001   1.956  12.046   9.921 -0.2783 -0.2414 -0.0612
  126loPI    C2 2002   2.104  12.103  10.288  0.1194 -0.0516 -0.2447
  126loPI    C3 2003   1.783  11.871  10.235 -0.2185  0.2783  0.2737
  126loPI   PO4 2004   2.043  12.335   9.805 -0.2191  0.1322 -0.1230
  126loPI   GL1 2005   2.260  12.497   9.463  0.0789  0.1213 -0.1751
  126loPI   GL2 2006   2.038  12.536   9.230  0.0209  0.2101  0.2021
  126loPI   C1A 2007   2.512  12.498   9.038 -0.0018 -0.1790  0.2493
  126loPI   C2A 2008   2.828  12.547   8.661 -0.0308 -0.0473 -0.0652
  126loPI   C3A 2009   3.033  12.648   8.262 -0.0910 -0.0918  0.5121
  126loPI   C4A 2010   3.207  12.453   7.874  0.1746  0.3279 -0.0949
  126loPI   C5A 2011   3.479  12.411   7.549  0.0077  0.0288  0.2019
  126loPI   C6A 2012   3.896  12.314   7.464 -0.2112 -0.0075 -0.0018
  126loPI   C1B 2013   2.051  12.535   8.805 -0.2451 -0.2306 -0.1619
  126loPI   C2B 2014   2.051  12.666   8.384 -0.0910  0.0206 -0.2347
  126loPI   C3B 2015   2.512  12.640   8.229  0.0238 -0.1469 -0.1263
  126loPI   C4B 2016   2.644  12.688   7.804  0.0509 -0.0538 -0.1972
  127loPI    C1 2017   1.837   4.209   9.992  0.0123  0.0185  0.0337
  127loPI    C2 2018   2.085   4.488  10.135 -0.1019  0.1161  0.0429
  127loPI    C3 2019   1.690   4.548  10.144 -0.1413 -0.1590  0.2890
  127loPI   PO4 2020   2.003   4.080   9.743  0.0418 -0.4902  0.2094
  127loPI   GL1 2021   1.876   4.075   9.431  0.0552 -0.2216  0.1700
  127loPI   GL2 2022   2.070   3.819   9.330  0.1383 -0.1942 -0.2013
  127loPI   C1A 2023   1.754   4.316   9.104  0.4248 -0.1443 -0.2903
  127loPI   C2A 2024   1.878   4.308   8.640 -0.0325 -0.0628 -0.3367
  127loPI   C3A 2025   1.844   4.547   8.305 -0.1530 -0.0605  0.1301
  127loPI   C4A 2026   1.681   4.394   7.847  0.0673 -0.1136 -0.1056
  127loPI   C5A 2027   1.672   4.186   7.571  0.0985 -0.1082 -0.0116
  127loPI   C6A 2028   1.665   3.740   7.732 -0.1523 -0.0711  0.1944
  127loPI   C1B 2029   1.989   3.829   8.953  0.1046 -0.0186  0.0035
  127loPI   C2B 2030   1.817   3.797   8.495  0.2443  0.1685 -0.1725
  127loPI   C3B 2031   1.455   3.681   8.209  0.0252 -0.0878  0.2311
  127loPI   C4B 2032   1.295   3.391   7.976 -0.0256  0.1462 -0.0983
  128loPI    C1 2033   8.222  10.321   9.845 -0.0802 -0.2142 -0.0085
  128loPI    C2 2034   8.466  10.266   9.533 -0.0751 -0.1427 -0.0171
  128loPI    C3 2035   8.605  10.434   9.869 -0.0996 -0.1494 -0.0036
  128loPI   PO4 2036   8.032  10.357   9.764 -0.1180 -0.0773  0.0718
  128loPI   GL1 2037   7.889  10.342   9.398 -0.1919 -0.1933  0.2541
  128loPI   GL2 2038   8.064  10.191   9.252 -0.3563  0.1283 -0.3318
  128loPI   C1A 2039   7.695  10.335   8.890  0.2211 -0.0458  0.0377
  128loPI   C2A 2040   7.534  10.428   8.545 -0.3210  0.2542 -0.1922
  128loPI   C3A 2041   7.422  10.208   8.314  0.1510 -0.0653  0.1396
  128loPI   C4A 2042   7.439  10.091   7.906  0.1080 -0.3275  0.1121
  128loPI   C5A 2043   7.690   9.923   7.587 -0.0056  0.0919 -0.1335
  128loPI   C6A 2044   8.065   9.707   7.588 -0.1489  0.3922  0.2171
  128loPI   C1B 2045   8.181  10.347   8.879  0.2888 -0.3323  0.0878
  128loPI   C2B 2046   7.977  10.282   8.431 -0.1451 -0.1822 -0.0182
  128loPI   C3B 2047   7.842   9.952   8.207  0.2050  0.1029  0.1718
  128loPI   C4B 2048   7.784   9.577   8.021  0.2886 -0.1094  0.1729
  129loPI    C1 2049   4.456   9.358   9.713 -0.1491 -0.2224  0.0265
  129loPI    C2 2050   4.487   9.011   9.910  0.3350 -0.2016 -0.0017
  129loPI    C3 2051   4.751   9.304   9.978  0.0149  0.1123 -0.0822
  129loPI   PO4 2052   4.152   9.391   9.653 -0.3133  0.1984 -0.0185
  129loPI   GL1 2053   3.828   9.281   9.357 -0.0581 -0.1950 -0.0124
  129loPI   GL2 2054   3.926   9.600   9.231  0.1078  0.4456  0.0065
  129loPI   C1A 2055   3.527   9.481   8.974  0.0866 -0.3020 -0.1335
  129loPI   C2A 2056   3.276   9.556   8.630  0.0210  0.1271  0.2309
  129loPI   C3A 2057   2.954   9.350   8.439  0.1794  0.0598 -0.0040
  129loPI   C4A 2058   2.911   9.407   8.022  0.1100  0.0405  0.0299
  129loPI   C5A 2059   2.901   9.206   7.662  0.0881 -0.1570  0.0619
  129loPI   C6A 2060   3.187   8.809   7.530 -0.1398 -0.1797  0.2079
  129loPI   C1B 2061   4.174   9.906   9.149  0.0475 -0.1760 -0.0661
  129loPI   C2B 2062   4.029  10.102   8.831 -0.1316 -0.1889 -0.1242
  129loPI   C3B 2063   3.918  10.253   8.423  0.0446  0.1276 -0.0590
  129loPI   C4B 2064   4.072  10.356   7.968  0.1993  0.0274  0.2852
  130loPI    C1 2065   8.737   5.490   9.897 -0.1051  0.3413 -0.0731
  130loPI    C2 2066   8.933   5.473  10.246  0.1635  0.2880 -0.2239
  130loPI    C3 2067   8.569   5.311  10.213  0.2308  0.0931 -0.0287
  130loPI   PO4 2068   8.816   5.428   9.685 -0.0553 -0.2446  0.0368
  130loPI   GL1 2069   8.956   5.050   9.479  0.3266  0.0025  0.1142
  130loPI   GL2 2070   8.848   4.781   9.428  0.1053  0.2877  0.3819
  130loPI   C1A 2071   8.743   5.178   9.113  0.2273 -0.1889  0.2558
  130loPI   C2A 2072   8.784   5.092   8.683  0.0315  0.1835  0.0992
  130loPI   C3A 2073   8.720   5.111   8.264 -0.4371  0.0856 -0.2023
  130loPI   C4A 2074   8.895   5.164   7.799  0.1883 -0.1896  0.1319
  130loPI   C5A 2075   8.782   5.306   7.365 -0.2240 -0.1893 -0.1741
  130loPI   C6A 2076   8.778   5.504   6.976 -0.2192  0.1134 -0.0658
  130loPI   C1B 2077   8.946   4.759   8.972  0.0364 -0.0757 -0.3410
  130loPI   C2B 2078   9.061   4.729   8.526  0.1076  0.2839 -0.1094
  130loPI   C3B 2079   9.252   4.906   8.201  0.3281 -0.1395 -0.0423
  130loPI   C4B 2080   9.457   5.055   7.681 -0.1224  0.2357 -0.1809
  131loPI    C1 2081  16.052   4.266  10.140 -0.0607 -0.1427  0.1018
  131loPI    C2 2082  15.749   4.509  10.042  0.2067  0.1870  0.0756
  131loPI    C3 2083  15.758   4.335  10.402  0.0353  0.2504  0.1115
  131loPI   PO4 2084  16.242   4.371   9.950 -0.2512  0.1911  0.1796
  131loPI   GL1 2085  16.269   4.283   9.559  0.0905 -0.0943  0.0777
  131loPI   GL2 2086  16.042   4.068   9.638 -0.3593 -0.0878 -0.3036
  131loPI   C1A 2087  16.363   4.448   9.182  0.1774  0.3009  0.3014
  131loPI   C2A 2088  16.277   4.790   8.913 -0.1550 -0.0536 -0.1482
  131loPI   C3A 2089  16.337   4.823   8.499 -0.0578  0.0977 -0.1263
  131loPI   C4A 2090  16.097   4.896   8.116 -0.0207 -0.2434  0.0767
  131loPI   C5A 2091  16.304   5.360   7.854 -0.3999  0.1571  0.2376
  131loPI   C6A 2092  16.016   5.662   7.561  0.0814  0.0453  0.0371
  131loPI   C1B 2093  16.152   3.885   9.234  0.0408  0.0414 -0.1982
  131loPI   C2B 2094  16.225   3.755   8.861 -0.0395  0.0671 -0.3777
  131loPI   C3B 2095  16.436   3.729   8.412 -0.0704  0.0579 -0.1924
  131loPI   C4B 2096  16.460   3.465   7.984 -0.3275  0.3538  0.0268
  132loPI    C1 2097  14.420   5.162  10.431  0.2144 -0.3266 -0.0505
  132loPI    C2 2098  14.732   5.396  10.342  0.0043 -0.0282 -0.0200
  132loPI    C3 2099  14.702   5.232  10.706  0.0698  0.0315  0.0127
  132loPI   PO4 2100  14.438   4.979  10.301  0.0243 -0.2239  0.3784
  132loPI   GL1 2101  14.263   5.105   9.951  0.1275 -0.3374  0.0644
  132loPI   GL2 2102  14.546   5.189   9.852  0.1210  0.1907  0.2094
  132loPI   C1A 2103  13.971   4.952   9.571 -0.0200  0.0631 -0.5719
  132loPI   C2A 2104  13.979   4.872   9.206  0.0404  0.1436  0.0880
  132loPI   C3A 2105  14.113   4.874   8.697  0.3472  0.1104  0.0946
  132loPI   C4A 2106  14.505   5.035   8.690  0.0836 -0.0825  0.0772
  132loPI   C5A 2107  14.733   5.119   8.283 -0.0999 -0.0349  0.1850
  132loPI   C6A 2108  14.605   5.356   7.825 -0.0872 -0.1324 -0.0294
  132loPI   C1B 2109  14.465   5.342   9.395  0.1103 -0.0068 -0.4495
  132loPI   C2B 2110  14.775   5.410   9.297  0.0778  0.0615 -0.1667
  132loPI   C3B 2111  15.157   5.281   9.300 -0.0928  0.1935  0.1651
  132loPI   C4B 2112  15.413   5.022   9.143 -0.2106  0.1722 -0.0442
  133loPI    C1 2113   8.335   6.791   9.679 -0.0349 -0.1841 -0.1839
  133loPI    C2 2114   8.422   7.162   9.801  0.1616 -0.2489 -0.1221
  133loPI    C3 2115   8.065   7.001   9.885  0.0831 -0.0817 -0.1325
  133loPI   PO4 2116   8.430   6.816   9.453 -0.0469  0.2913 -0.3174
  133loPI   GL1 2117   8.365   6.740   9.037 -0.0345 -0.3274  0.0946
  133loPI   GL2 2118   8.170   7.020   8.892  0.1993  0.5308 -0.0574
  133loPI   C1A 2119   8.521   6.745   8.684  0.0477 -0.1347  0.1345
  133loPI   C2A 2120   8.605   6.555   8.238 -0.0260  0.0428 -0.2082
  133loPI   C3A 2121   8.575   6.662   7.860  0.0480 -0.0122 -0.2549
  133loPI   C4A 2122   8.614   6.541   7.461 -0.1033 -0.1692  0.1152
  133loPI   C5A 2123   8.477   6.330   7.244  0.2525  0.3239  0.0742
  133loPI   C6A 2124   8.551   6.070   6.875 -0.2060 -0.3555 -0.2069
  133loPI   C1B 2125   8.136   7.031   8.526  0.1029 -0.1303 -0.2671
  133loPI   C2B 2126   8.145   6.935   8.035  0.1050  0.0298 -0.2980
  133loPI   C3B 2127   8.213   6.885   7.541 -0.2666  0.0115 -0.1160
  133loPI   C4B 2128   8.227   6.987   7.093 -0.2331 -0.2696 -0.0183
  134loPI    C1 2129  13.326  18.941   9.961  0.1106  0.1267  0.0995
  134loPI    C2 2130  13.676  18.884   9.777 -0.0254  0.0008 -0.1242
  134loPI    C3 2131  13.654  19.128  10.092  0.2473  0.0720 -0.1578
  134loPI   PO4 2132  13.194  19.062   9.744  0.1489  0.0278  0.1745
  134loPI   GL1 2133  13.182  19.288   9.478  0.0110 -0.0970 -0.1376
  134loPI   GL2 2134  13.118  19.617   9.628 -0.0465  0.3139  0.1371
  134loPI   C1A 2135  13.153  19.267   9.046 -0.0587 -0.0335  0.0493
  134loPI   C2A 2136  13.132  19.267   8.618 -0.4620 -0.1908  0.1243
  134loPI   C3A 2137  13.076  19.546   8.282 -0.0372 -0.3514  0.0289
  134loPI   C4A 2138  13.122  19.671   7.790 -0.0515  0.1104  0.0605
  134loPI   C5A 2139  13.555  19.538   7.603  0.2356  0.1800 -0.3431
  134loPI   C6A 2140  13.616  19.496   7.195  0.2251 -0.2794  0.0288
  134loPI   C1B 2141  13.400  19.731   9.239  0.1767  0.0179 -0.0427
  134loPI   C2B 2142  13.516  19.815   8.804  0.1195  0.0443 -0.1560
  134loPI   C3B 2143  13.531  19.876   8.362 -0.3871 -0.0833  0.0199
  134loPI   C4B 2144  13.536  19.984   7.921  0.3234 -0.2765 -0.2564
  135loPI    C1 2145   8.738  15.391   9.756 -0.1948  0.0354  0.4040
  135loPI    C2 2146   8.971  15.169   9.994 -0.0904 -0.1239  0.1572
  135loPI    C3 2147   8.925  15.560  10.067  0.3563 -0.0630  0.1385
  135loPI   PO4 2148   8.830  15.273   9.502 -0.1960 -0.0770 -0.2917
  135loPI   GL1 2149   8.958  15.237   9.009  0.3147 -0.1223  0.2138
  135loPI   GL2 2150   8.769  14.860   9.096 -0.1728 -0.0673 -0.1940
  135loPI   C1A 2151   8.849  15.350   8.582  0.1150 -0.2165 -0.0998
  135loPI   C2A 2152   8.794  15.212   8.158  0.2167 -0.0632  0.2567
  135loPI   C3A 2153   8.695  15.143   7.665  0.4158 -0.1412  0.1865
  135loPI   C4A 2154   8.324  15.067   7.464 -0.1989  0.1817 -0.0000
  135loPI   C5A 2155   8.136  15.105   7.076 -0.0611 -0.0881 -0.3003
  135loPI   C6A 2156   7.752  15.378   7.077 -0.1129  0.1700 -0.2499
  135loPI   C1B 2157   8.919  14.873   8.660 -0.2847  0.1671 -0.2041
  135loPI   C2B 2158   8.977  14.767   8.286 -0.1680  0.0163 -0.0217
  135loPI   C3B 2159   9.125  14.912   7.903  0.2800 -0.0318  0.0643
  135loPI   C4B 2160   9.338  15.081   7.534 -0.1721  0.0333 -0.1954
  136loPI    C1 2161   2.536  12.203  10.114  0.0754 -0.1110  0.1084
  136loPI    C2 2162   2.835  12.430  10.252  0.0045  0.0127  0.0597
  136loPI    C3 2163   2.473  12.449  10.423  0.0207 -0.1276  0.1107
  136loPI   PO4 2164   2.561  12.232   9.809  0.1335  0.1414 -0.2847
  136loPI   GL1 2165   2.639  12.168   9.351 -0.1859  0.3396 -0.0936
  136loPI   GL2 2166   2.875  12.175   9.399 -0.1956 -0.1702 -0.1474
  136loPI   C1A 2167   2.600  12.019   8.976 -0.2241  0.0933  0.0236
  136loPI   C2A 2168   2.684  12.067   8.499  0.0962  0.2928 -0.2083
  136loPI   C3A 2169   2.726  12.164   7.972  0.1530 -0.2445  0.0100
  136loPI   C4A 2170   2.549  12.227   7.496 -0.1086 -0.0793  0.0830
  136loPI   C5A 2171   2.781  12.193   7.132 -0.0881  0.0677  0.0037
  136loPI   C6A 2172   3.012  12.066   6.893 -0.0724  0.2329  0.0079
  136loPI   C1B 2173   2.982  12.370   9.092 -0.1197  0.0591  0.1066
  136loPI   C2B 2174   3.201  12.137   8.752 -0.0959 -0.1931 -0.1132
  136loPI   C3B 2175   3.193  12.091   8.313  0.0715  0.0098 -0.0251
  136loPI   C4B 2176   3.163  11.799   8.028  0.0853  0.1887 -0.2721
  137loPI    C1 2177   0.361  11.510   9.709  0.1515  0.2715 -0.2684
  137loPI    C2 2178   0.652  11.284   9.554  0.1706  0.0976  0.0128
  137loPI    C3 2179   0.510  11.203   9.919 -0.0633  0.3307 -0.0238
  137loPI   PO4 2180   0.218  11.617   9.529 -0.1017 -0.0061 -0.1203
  137loPI   GL1 2181  -0.023  11.814   9.171 -0.0291  0.0060  0.0896
  137loPI   GL2 2182  -0.345  11.802   9.209  0.0776  0.4909 -0.0104
  137loPI   C1A 2183   0.059  11.836   8.773 -0.2448  0.1743  0.3714
  137loPI   C2A 2184  -0.082  11.818   8.233  0.1104 -0.2041  0.1323
  137loPI   C3A 2185  -0.284  12.050   7.893  0.2376  0.1505 -0.1242
  137loPI   C4A 2186  -0.379  12.166   7.449 -0.0557  0.0474  0.1030
  137loPI   C5A 2187  -0.168  12.086   7.094  0.1772  0.0073 -0.0231
  137loPI   C6A 2188  -0.246  12.075   6.684 -0.2691 -0.1134 -0.1527
  137loPI   C1B 2189  -0.498  11.779   8.810 -0.1780 -0.1326  0.1321
  137loPI   C2B 2190  -0.616  11.891   8.490  0.0624 -0.0725 -0.0062
  137loPI   C3B 2191  -0.871  11.982   8.097  0.1089 -0.0748  0.2935
  137loPI   C4B 2192  -1.177  11.791   7.749  0.1433  0.0456  0.0027
  138loPI    C1 2193   0.962  17.755  10.667 -0.2362 -0.2190 -0.0568
  138loPI    C2 2194   0.827  17.995  10.957 -0.1001  0.0734 -0.2310
  138loPI    C3 2195   0.569  17.808  10.715 -0.2081  0.0098 -0.0678
  138loPI   PO4 2196   1.207  17.914  10.533  0.0557  0.2137  0.1278
  138loPI   GL1 2197   1.198  18.208  10.134  0.1422  0.2519 -0.0843
  138loPI   GL2 2198   0.890  18.210   9.965 -0.3200 -0.2286 -0.2384
  138loPI   C1A 2199   1.413  18.319   9.751 -0.1653  0.2252  0.2539
  138loPI   C2A 2200   1.571  18.432   9.439  0.0954  0.0829  0.3036
  138loPI   C3A 2201   1.656  18.790   9.186  0.1400 -0.2735 -0.0204
  138loPI   C4A 2202   1.430  19.221   8.913 -0.2220 -0.0763 -0.2775
  138loPI   C5A 2203   1.185  19.350   8.482  0.1175  0.0817  0.1136
  138loPI   C6A 2204   1.154  19.303   8.151  0.1566 -0.2297  0.1555
  138loPI   C1B 2205   0.716  18.077   9.477 -0.2767  0.4581 -0.0114
  138loPI   C2B 2206   0.458  18.054   9.044 -0.2657 -0.0455  0.3767
  138loPI   C3B 2207   0.522  17.850   8.676  0.0625 -0.0715 -0.1027
  138loPI   C4B 2208   0.737  17.553   8.451 -0.4748  0.1056  0.1069
  139loPI    C1 2209  13.662  13.275   9.994 -0.2462  0.0064 -0.1699
  139loPI    C2 2210  13.303  13.116  10.073 -0.1019 -0.0578  0.4057
  139loPI    C3 2211  13.551  13.208  10.373  0.3464  0.0353  0.0189
  139loPI   PO4 2212  13.640  13.334   9.747 -0.1233 -0.2299 -0.1331
  139loPI   GL1 2213  13.873  13.218   9.325 -0.0072 -0.0980 -0.1387
  139loPI   GL2 2214  13.559  13.132   9.253 -0.5820  0.0140  0.2439
  139loPI   C1A 2215  13.953  13.617   9.019 -0.1530  0.1035 -0.1727
  139loPI   C2A 2216  13.987  13.540   8.617 -0.1404  0.1005  0.0854
  139loPI   C3A 2217  13.987  13.588   8.222 -0.0689  0.1193 -0.2419
  139loPI   C4A 2218  13.954  13.403   7.822  0.1750 -0.0438  0.0052
  139loPI   C5A 2219  14.244  13.389   7.571  0.1248 -0.1141  0.0476
  139loPI   C6A 2220  14.484  13.514   7.230  0.6431  0.2024 -0.2355
  139loPI   C1B 2221  13.503  13.250   8.797 -0.0695 -0.0504  0.2729
  139loPI   C2B 2222  13.539  13.366   8.330 -0.0302 -0.2276 -0.2194
  139loPI   C3B 2223  13.542  13.074   7.940  0.2492  0.1164 -0.0135
  139loPI   C4B 2224  13.508  12.676   7.859 -0.1354 -0.0973  0.2175
  140loPI    C1 2225   0.326  15.233  10.359 -0.0017  0.0546 -0.0118
  140loPI    C2 2226   0.554  15.443  10.613  0.0948 -0.2127  0.1263
  140loPI    C3 2227   0.250  15.223  10.751  0.0920 -0.2892  0.0009
  140loPI   PO4 2228   0.412  15.223  10.024  0.2077  0.4022 -0.0490
  140loPI   GL1 2229   0.183  15.028   9.758  0.2038 -0.0382  0.1048
  140loPI   GL2 2230  -0.031  15.323   9.781 -0.0811 -0.4649  0.0736
  140loPI   C1A 2231   0.503  15.178   9.396  0.2826  0.1346  0.3639
  140loPI   C2A 2232   0.563  15.360   9.005 -0.0333 -0.3292 -0.0345
  140loPI   C3A 2233   0.762  15.161   8.529  0.0371  0.2576  0.3601
  140loPI   C4A 2234   0.820  15.361   8.218  0.2554 -0.0198  0.1787
  140loPI   C5A 2235   1.034  15.367   7.841 -0.4484  0.0973  0.0132
  140loPI   C6A 2236   1.109  15.565   7.527  0.0251 -0.0443 -0.1113
  140loPI   C1B 2237  -0.080  15.425   9.306 -0.0455 -0.2929 -0.1804
  140loPI   C2B 2238   0.046  15.423   8.927  0.1152  0.1519 -0.0172
  140loPI   C3B 2239   0.321  15.562   8.514  0.1063  0.0962  0.4054
  140loPI   C4B 2240   0.196  15.607   8.103 -0.0510  0.0016  0.0586
  141loPI    C1 2241  17.174  17.371  10.255  0.0325 -0.1565 -0.0810
  141loPI    C2 2242  17.139  17.175  10.602  0.0643 -0.0894 -0.0396
  141loPI    C3 2243  16.815  17.247  10.379  0.0244 -0.0133  0.0422
  141loPI   PO4 2244  17.325  17.297  10.150  0.1424 -0.3016 -0.2232
  141loPI   GL1 2245  17.520  17.227   9.779  0.1799  0.3049 -0.3411
  141loPI   GL2 2246  17.679  16.898   9.948  0.0029 -0.1161 -0.0057
  141loPI   C1A 2247  17.552  17.279   9.361  0.1808  0.2726  0.1714
  141loPI   C2A 2248  17.382  17.145   8.908 -0.0464  0.1682 -0.2596
  141loPI   C3A 2249  17.528  16.745   8.623 -0.2743 -0.0348  0.0177
  141loPI   C4A 2250  17.829  16.798   8.363  0.2535  0.1164  0.2920
  141loPI   C5A 2251  17.837  16.806   7.835  0.3721 -0.0027 -0.1811
  141loPI   C6A 2252  17.927  16.515   7.458 -0.0543  0.0909  0.1486
  141loPI   C1B 2253  17.754  16.830   9.422 -0.0183  0.0128 -0.0290
  141loPI   C2B 2254  17.787  16.835   9.046 -0.3466 -0.0143 -0.0253
  141loPI   C3B 2255  18.059  17.029   8.777 -0.0449 -0.0004  0.1149
  141loPI   C4B 2256  18.424  16.943   8.501  0.1838 -0.0216  0.0552
  142loPI    C1 2257   4.248  10.232  10.082 -0.0177 -0.1632  0.1283
  142loPI    C2 2258   4.499  10.070  10.348  0.0492 -0.0342  0.1445
  142loPI    C3 2259   4.324  10.421  10.426 -0.1773 -0.1482  0.1558
  142loPI   PO4 2260   4.340  10.307   9.830 -0.1486 -0.0570  0.0370
  142loPI   GL1 2261   4.619  10.199   9.479 -0.0588 -0.0566 -0.0100
  142loPI   GL2 2262   4.768   9.969   9.292 -0.2265 -0.0129 -0.0057
  142loPI   C1A 2263   4.514  10.258   8.965  0.1117 -0.3586  0.2206
  142loPI   C2A 2264   4.842  10.477   8.827  0.1135 -0.3613 -0.3253
  142loPI   C3A 2265   5.041  10.341   8.511 -0.1610 -0.2180  0.1924
  142loPI   C4A 2266   5.255  10.069   8.210 -0.1262 -0.0389  0.0298
  142loPI   C5A 2267   5.181   9.930   7.824  0.0236  0.2430 -0.0370
  142loPI   C6A 2268   4.870   9.919   7.609  0.2498  0.2612  0.1048
  142loPI   C1B 2269   4.846   9.918   8.815  0.4938  0.0860  0.2499
  142loPI   C2B 2270   4.783   9.890   8.363 -0.1101  0.1366 -0.4199
  142loPI   C3B 2271   4.539   9.982   8.061 -0.2024 -0.2114 -0.1095
  142loPI   C4B 2272   4.124   9.829   7.989  0.0512 -0.0565  0.1380
  143loPI    C1 2273   6.679   2.093   9.630  0.0001  0.0096  0.1458
  143loPI    C2 2274   6.516   1.824   9.877 -0.0239  0.0156  0.1366
  143loPI    C3 2275   6.902   1.925   9.917 -0.0098 -0.0348  0.1275
  143loPI   PO4 2276   6.417   2.247   9.551 -0.2214  0.0572 -0.4595
  143loPI   GL1 2277   6.290   2.591   9.368 -0.0157 -0.0464 -0.2034
  143loPI   GL2 2278   5.860   2.665   9.258  0.0411  0.2073 -0.1384
  143loPI   C1A 2279   6.331   2.535   8.980  0.0588 -0.0228 -0.0795
  143loPI   C2A 2280   6.158   2.364   8.716 -0.4243  0.0971 -0.0453
  143loPI   C3A 2281   6.234   2.227   8.341 -0.1078 -0.3766  0.0356
  143loPI   C4A 2282   6.400   2.249   7.938 -0.2075  0.0801 -0.0635
  143loPI   C5A 2283   6.305   2.057   7.596 -0.0477 -0.3807 -0.0138
  143loPI   C6A 2284   6.241   1.768   7.193  0.2174 -0.0551  0.0240
  143loPI   C1B 2285   5.835   2.707   8.864 -0.3513  0.0747  0.2765
  143loPI   C2B 2286   5.979   2.703   8.383 -0.2483  0.0202  0.3983
  143loPI   C3B 2287   6.017   2.743   7.912 -0.0885  0.0139 -0.0403
  143loPI   C4B 2288   6.219   2.822   7.563  0.1907  0.0810 -0.0667
  144loPI    C1 2289  14.854  16.020  10.138  0.0387 -0.0837  0.0209
  144loPI    C2 2290  15.117  15.809  10.353  0.1234  0.0314  0.0315
  144loPI    C3 2291  14.866  16.060  10.536 -0.0249 -0.1107  0.0256
  144loPI   PO4 2292  14.807  15.879   9.964  0.1305 -0.1013  0.0175
  144loPI   GL1 2293  14.912  15.829   9.629 -0.3276  0.0120 -0.0841
  144loPI   GL2 2294  14.738  16.080   9.460 -0.3364  0.0902 -0.0217
  144loPI   C1A 2295  14.717  15.676   9.210  0.0554  0.0292 -0.0660
  144loPI   C2A 2296  14.635  15.616   8.875  0.0326  0.2444  0.1198
  144loPI   C3A 2297  14.512  15.579   8.409 -0.0472  0.1993 -0.0200
  144loPI   C4A 2298  14.602  15.701   7.917 -0.3107  0.2189  0.1654
  144loPI   C5A 2299  14.718  15.516   7.504 -0.1547  0.2734  0.5974
  144loPI   C6A 2300  14.567  15.130   7.210  0.2903  0.2028 -0.0199
  144loPI   C1B 2301  14.592  16.089   9.035  0.0494  0.0572  0.2025
  144loPI   C2B 2302  14.447  16.035   8.608 -0.3063  0.2699  0.0549
  144loPI   C3B 2303  14.412  16.192   8.212  0.2331 -0.1750  0.2288
  144loPI   C4B 2304  14.533  16.571   7.945  0.0310  0.2192 -0.4017
  145loPI    C1 2305   7.054  18.590   9.691  0.0296 -0.3050  0.3642
  145loPI    C2 2306   6.767  18.715   9.443  0.1232 -0.0785  0.3674
  145loPI    C3 2307   6.674  18.484   9.756 -0.0411 -0.0881  0.3125
  145loPI   PO4 2308   7.203  18.426   9.540  0.0966  0.3213  0.5431
  145loPI   GL1 2309   7.262  18.385   9.024  0.2808 -0.1992 -0.3660
  145loPI   GL2 2310   6.879  18.378   8.995 -0.2094 -0.2042 -0.1242
  145loPI   C1A 2311   7.400  18.494   8.743 -0.2590  0.0387 -0.0682
  145loPI   C2A 2312   7.456  18.641   8.463 -0.2943  0.0431 -0.1883
  145loPI   C3A 2313   7.476  18.599   8.037 -0.3546  0.0119  0.1342
  145loPI   C4A 2314   7.250  18.555   7.716 -0.2568  0.3531  0.2645
  145loPI   C5A 2315   7.063  18.654   7.380 -0.1564 -0.1911  0.1022
  145loPI   C6A 2316   6.908  18.968   7.314 -0.1876 -0.0199 -0.0835
  145loPI   C1B 2317   6.931  18.462   8.599  0.2755 -0.0949  0.0288
  145loPI   C2B 2318   6.841  18.605   8.170  0.1799  0.1785  0.0310
  145loPI   C3B 2319   6.683  18.840   7.748  0.1798 -0.0193  0.1585
  145loPI   C4B 2320   6.432  18.707   7.416  0.0395 -0.0439 -0.1452
  146loPI    C1 2321   7.774  14.313   9.576 -0.1902 -0.4040  0.0614
  146loPI    C2 2322   8.037  14.256   9.872 -0.2271  0.0136  0.1799
  146loPI    C3 2323   7.644  14.227   9.944 -0.2281 -0.1696  0.1044
  146loPI   PO4 2324   7.955  14.381   9.385  0.1737 -0.2918  0.1727
  146loPI   GL1 2325   8.014  14.277   8.951 -0.0370  0.0930 -0.0343
  146loPI   GL2 2326   8.048  13.945   8.910 -0.0004 -0.1942 -0.1755
  146loPI   C1A 2327   7.870  14.561   8.489 -0.0787  0.0325 -0.0226
  146loPI   C2A 2328   7.667  14.588   8.089  0.1306 -0.0764  0.0908
  146loPI   C3A 2329   7.583  14.457   7.697  0.1859 -0.0328 -0.1972
  146loPI   C4A 2330   7.736  14.162   7.429  0.0960 -0.0319  0.1967
  146loPI   C5A 2331   8.004  13.946   7.087  0.2398  0.1431  0.3508
  146loPI   C6A 2332   7.908  13.494   6.927 -0.0341  0.2863 -0.0827
  146loPI   C1B 2333   7.726  14.090   8.652  0.1239  0.0526 -0.1510
  146loPI   C2B 2334   7.538  14.199   8.376 -0.1547 -0.0055  0.0502
  146loPI   C3B 2335   7.194  14.364   8.239  0.0880  0.0069  0.2426
  146loPI   C4B 2336   6.794  14.430   8.005 -0.4932 -0.0652  0.0879
  147loPI    C1 2337   3.711  16.209  10.012 -0.0767  0.0217 -0.0492
  147loPI    C2 2338   3.367  16.288  10.200 -0.0179  0.1000  0.0265
  147loPI    C3 2339   3.715  16.339  10.390  0.0415  0.1663 -0.0988
  147loPI   PO4 2340   3.627  16.348   9.701  0.4263 -0.1519  0.0282
  147loPI   GL1 2341   3.923  16.547   9.432  0.0439  0.1581  0.2110
  147loPI   GL2 2342   3.912  16.188   9.327 -0.1609 -0.1576 -0.1730
  147loPI   C1A 2343   3.740  16.538   9.054  0.0648  0.0815 -0.3764
  147loPI   C2A 2344   3.965  16.383   8.646  0.1832  0.2098 -0.1704
  147loPI   C3A 2345   4.031  16.301   8.229 -0.3550  0.0141 -0.1583
  147loPI   C4A 2346   4.191  15.869   7.934  0.1128  0.3982  0.2924
  147loPI   C5A 2347   4.278  15.550   8.021  0.2398  0.3168 -0.1093
  147loPI   C6A 2348   4.443  15.290   8.310  0.3000 -0.1744 -0.0354
  147loPI   C1B 2349   3.748  16.048   9.014 -0.2156  0.1235  0.1189
  147loPI   C2B 2350   3.538  16.138   8.654 -0.0566 -0.0478  0.0339
  147loPI   C3B 2351   3.308  16.333   8.367  0.2357 -0.1035  0.0362
  147loPI   C4B 2352   3.191  16.297   8.002  0.2945  0.1743 -0.0062
  148loPI    C1 2353  18.701   8.638   9.823  0.0300 -0.1597  0.0086
  148loPI    C2 2354  19.051   8.800   9.926  0.0315 -0.2025  0.0704
  148loPI    C3 2355  18.820   8.630  10.205 -0.0546 -0.1432  0.0354
  148loPI   PO4 2356  18.765   8.602   9.567  0.0811 -0.0115 -0.0091
  148loPI   GL1 2357  18.614   8.330   9.274  0.6903 -0.0997 -0.1759
  148loPI   GL2 2358  18.619   7.965   9.344  0.4061 -0.0628  0.3838
  148loPI   C1A 2359  18.571   8.183   8.767  0.0627  0.1004  0.1635
  148loPI   C2A 2360  18.563   8.246   8.323 -0.1343  0.1222 -0.4366
  148loPI   C3A 2361  18.724   8.450   7.952  0.2109  0.5730  0.3196
  148loPI   C4A 2362  18.541   8.515   7.614 -0.2329 -0.0669  0.0848
  148loPI   C5A 2363  18.433   8.595   7.183 -0.0644 -0.3167  0.0432
  148loPI   C6A 2364  18.215   8.581   6.882  0.2107  0.2076 -0.0685
  148loPI   C1B 2365  18.724   7.731   8.938 -0.1176 -0.0441 -0.1720
  148loPI   C2B 2366  18.849   7.546   8.515  0.3998 -0.0139  0.2154
  148loPI   C3B 2367  18.833   7.447   8.063  0.0600  0.0836 -0.1576
  148loPI   C4B 2368  18.913   7.113   7.790 -0.1658 -0.0675 -0.0552
  149loPI    C1 2369   8.028   9.422   9.846  0.0909  0.3088  0.0855
  149loPI    C2 2370   7.719   9.600  10.027 -0.1392  0.0237 -0.0197
  149loPI    C3 2371   7.909   9.297  10.207 -0.0831  0.0329 -0.0633
  149loPI   PO4 2372   7.973   9.368   9.617 -0.0081  0.1673 -0.1613
  149loPI   GL1 2373   8.174   9.520   9.210  0.1121  0.2257 -0.2326
  149loPI   GL2 2374   7.922   9.285   9.083 -0.3745 -0.1512  0.1303
  149loPI   C1A 2375   8.193   9.799   8.886 -0.1918  0.1695  0.1318
  149loPI   C2A 2376   8.310   9.939   8.562 -0.3870  0.0165  0.0292
  149loPI   C3A 2377   8.295  10.105   8.083 -0.1028  0.2466  0.0119
  149loPI   C4A 2378   8.346  10.202   7.702 -0.2158 -0.2472 -0.0301
  149loPI   C5A 2379   8.267  10.101   7.263  0.0353 -0.1534  0.0562
  149loPI   C6A 2380   8.447  10.335   6.840 -0.2478 -0.2473  0.0804
  149loPI   C1B 2381   8.061   9.331   8.734  0.3984 -0.3411 -0.0979
  149loPI   C2B 2382   8.174   9.517   8.344 -0.0731  0.0498  0.0044
  149loPI   C3B 2383   8.496   9.552   8.150  0.1124  0.0345  0.2781
  149loPI   C4B 2384   8.544   9.738   7.735  0.1306 -0.0961 -0.1478
  150loPI    C1 2385  14.092  18.879  10.071  0.1015 -0.0319  0.0054
  150loPI    C2 2386  14.312  18.742  10.375 -0.0105 -0.0529  0.0773
  150loPI    C3 2387  13.969  18.935  10.447  0.1772  0.3258 -0.0196
  150loPI   PO4 2388  14.177  18.666   9.873 -0.3874 -0.1610 -0.0750
  150loPI   GL1 2389  14.145  18.607   9.519  0.0389  0.2149 -0.2491
  150loPI   GL2 2390  14.201  18.309   9.466 -0.0365 -0.2195  0.2773
  150loPI   C1A 2391  13.762  18.518   9.355  0.0674  0.2160 -0.3237
  150loPI   C2A 2392  13.424  18.854   9.184  0.1955  0.2245 -0.1320
  150loPI   C3A 2393  13.358  18.783   8.736 -0.1361 -0.0795  0.0521
  150loPI   C4A 2394  13.317  18.627   8.275 -0.2292 -0.1386 -0.0154
  150loPI   C5A 2395  13.028  18.672   7.924 -0.0260  0.1036  0.3970
  150loPI   C6A 2396  12.998  18.823   7.523  0.0300  0.2757  0.2018
  150loPI   C1B 2397  14.190  18.401   9.024  0.0471  0.1740  0.4569
  150loPI   C2B 2398  14.165  18.310   8.597 -0.0164  0.1482 -0.2509
  150loPI   C3B 2399  14.137  18.344   8.205 -0.5746  0.2175  0.1433
  150loPI   C4B 2400  14.124  18.140   7.823  0.2497  0.0210  0.1110
  151loPI    C1 2401   4.125  16.030  10.248 -0.1487 -0.2474  0.3017
  151loPI    C2 2402   4.432  15.924  10.482 -0.0954 -0.1025  0.2987
  151loPI    C3 2403   4.234  16.264  10.554 -0.1373 -0.1031  0.1883
  151loPI   PO4 2404   4.206  15.910   9.971  0.0771 -0.2020 -0.3865
  151loPI   GL1 2405   4.118  15.751   9.609 -0.0029  0.2069  0.0239
  151loPI   GL2 2406   3.961  15.670   9.472  0.1442  0.2006 -0.2092
  151loPI   C1A 2407   4.297  15.866   9.192  0.1374  0.0490 -0.2922
  151loPI   C2A 2408   4.270  16.032   8.842  0.2068 -0.2971  0.2926
  151loPI   C3A 2409   4.466  16.135   8.505 -0.1211 -0.0388 -0.1413
  151loPI   C4A 2410   4.754  16.181   8.263 -0.0437  0.4888 -0.0395
  151loPI   C5A 2411   4.963  16.300   7.882  0.1297 -0.1781 -0.1245
  151loPI   C6A 2412   5.269  16.221   7.546 -0.3325  0.0197 -0.0047
  151loPI   C1B 2413   3.914  15.532   9.075 -0.1813  0.0524  0.1427
  151loPI   C2B 2414   3.604  15.622   8.762  0.0253 -0.0714 -0.0951
  151loPI   C3B 2415   3.406  15.725   8.368 -0.1497  0.0175  0.1796
  151loPI   C4B 2416   3.625  16.013   8.106 -0.1298 -0.0534  0.2790
  152loPI    C1 2417   4.413  11.179  10.095  0.1767  0.0294 -0.1187
  152loPI    C2 2418   4.184  11.083   9.781  0.1038  0.0245 -0.0643
  152loPI    C3 2419   4.303  10.799  10.037 -0.1293  0.0800  0.1082
  152loPI   PO4 2420   4.606  11.288   9.941 -0.0749  0.2463  0.3509
  152loPI   GL1 2421   4.872  11.181   9.549 -0.3603 -0.0202 -0.1185
  152loPI   GL2 2422   5.184  11.083   9.433  0.1781 -0.0456  0.2014
  152loPI   C1A 2423   4.564  11.296   9.299  0.1835  0.0904  0.0097
  152loPI   C2A 2424   4.422  11.553   9.050 -0.1174 -0.3797  0.2276
  152loPI   C3A 2425   4.594  11.478   8.629  0.0214 -0.1096  0.0925
  152loPI   C4A 2426   4.473  11.172   8.314 -0.0936  0.2728  0.2613
  152loPI   C5A 2427   4.661  10.938   7.998 -0.2527 -0.1977 -0.0762
  152loPI   C6A 2428   4.772  10.488   7.984 -0.0143 -0.0515  0.1593
  152loPI   C1B 2429   5.081  11.224   9.008 -0.4670  0.1408 -0.0736
  152loPI   C2B 2430   5.366  11.330   8.801  0.2862  0.0277 -0.3858
  152loPI   C3B 2431   5.538  11.319   8.363  0.2020 -0.0794 -0.0052
  152loPI   C4B 2432   5.774  11.307   7.999 -0.1700 -0.1626 -0.5227
  153loPI    C1 2433  15.063   6.342  10.581 -0.1964  0.2170 -0.0520
  153loPI    C2 2434  15.377   6.504  10.769 -0.0231 -0.0724 -0.0861
  153loPI    C3 2435  15.305   6.111  10.801 -0.1947 -0.0641 -0.3407
  153loPI   PO4 2436  15.131   6.386  10.267 -0.0979 -0.0671  0.2012
  153loPI   GL1 2437  15.392   6.127   9.986  0.2598 -0.1076  0.0307
  153loPI   GL2 2438  15.392   5.822   9.918  0.3565  0.0037 -0.2711
  153loPI   C1A 2439  15.562   6.178   9.550 -0.3038  0.0908  0.2372
  153loPI   C2A 2440  15.627   6.021   9.116  0.2134 -0.0000  0.0697
  153loPI   C3A 2441  15.576   6.064   8.703  0.1225  0.2192  0.1779
  153loPI   C4A 2442  15.311   6.185   8.411 -0.2017 -0.2036  0.0730
  153loPI   C5A 2443  15.110   6.017   8.105 -0.2371 -0.1728  0.0962
  153loPI   C6A 2444  15.207   6.163   7.737 -0.0524  0.1304  0.0253
  153loPI   C1B 2445  15.508   5.577   9.577  0.0265  0.0583 -0.0929
  153loPI   C2B 2446  15.529   5.527   9.231  0.3966  0.3250 -0.0181
  153loPI   C3B 2447  15.481   5.402   8.764 -0.0671  0.0109  0.0952
  153loPI   C4B 2448  15.501   5.606   8.338 -0.1948  0.0156 -0.4101
  154loPI    C1 2449  13.736  13.775  10.051 -0.0975 -0.3544 -0.0567
  154loPI    C2 2450  13.343  13.704  10.074 -0.1569  0.0525  0.2989
  154loPI    C3 2451  13.567  13.701  10.405  0.1649 -0.2860  0.0855
  154loPI   PO4 2452  13.809  13.793   9.816  0.2737 -0.0616 -0.4216
  154loPI   GL1 2453  13.612  13.772   9.401  0.1368  0.0973 -0.1234
  154loPI   GL2 2454  13.469  13.609   9.199 -0.3241 -0.0836 -0.0280
  154loPI   C1A 2455  13.728  14.077   9.149  0.0849  0.0372  0.0678
  154loPI   C2A 2456  13.783  14.346   8.715 -0.0513 -0.1501  0.0276
  154loPI   C3A 2457  13.840  14.445   8.333  0.0275 -0.1896  0.0728
  154loPI   C4A 2458  13.923  14.911   8.025 -0.1179  0.0801 -0.3631
  154loPI   C5A 2459  14.077  14.958   7.617  0.4552  0.1702  0.1841
  154loPI   C6A 2460  13.994  15.003   7.250 -0.1285 -0.3796 -0.4994
  154loPI   C1B 2461  13.526  13.819   8.798  0.0948  0.3712 -0.0823
  154loPI   C2B 2462  13.649  13.933   8.458  0.1072 -0.0742 -0.2920
  154loPI   C3B 2463  13.721  14.019   7.976 -0.0672 -0.1980 -0.1220
  154loPI   C4B 2464  13.805  13.846   7.609  0.0267 -0.4389  0.2215
  155loPI    C1 2465  16.483  17.963  10.061 -0.3284 -0.1370 -0.0879
  155loPI    C2 2466  16.523  17.643  10.298  0.0872  0.0029  0.0399
  155loPI    C3 2467  16.322  17.964  10.428  0.0456 -0.0391  0.0802
  155loPI   PO4 2468  16.442  17.860   9.806 -0.1052  0.1374 -0.0860
  155loPI   GL1 2469  16.365  17.632   9.485  0.0250  0.2261 -0.2366
  155loPI   GL2 2470  16.229  17.895   9.338 -0.1534  0.0101 -0.1699
  155loPI   C1A 2471  16.507  17.407   9.106  0.6451  0.4273  0.1053
  155loPI   C2A 2472  16.713  17.164   8.808 -0.1031  0.2688  0.4715
  155loPI   C3A 2473  16.814  17.328   8.426  0.3012 -0.0317  0.3145
  155loPI   C4A 2474  17.007  17.432   7.983 -0.0549 -0.3080 -0.5673
  155loPI   C5A 2475  17.020  17.702   7.535 -0.1092  0.0865 -0.0411
  155loPI   C6A 2476  17.062  17.539   7.084 -0.0172 -0.1814 -0.0388
  155loPI   C1B 2477  16.308  17.935   8.907  0.0512 -0.3331 -0.0270
  155loPI   C2B 2478  16.262  18.016   8.461 -0.0370 -0.0759 -0.2868
  155loPI   C3B 2479  16.254  17.977   8.088 -0.2390  0.0160 -0.2740
  155loPI   C4B 2480  16.077  18.200   7.818  0.2209  0.0610  0.2176
  156loPI    C1 2481   5.651   4.841   9.964 -0.0697  0.2253  0.1098
  156loPI    C2 2482   5.603   4.778  10.356  0.1413  0.0940  0.1161
  156loPI    C3 2483   5.957   4.707  10.184 -0.0531 -0.2141 -0.1692
  156loPI   PO4 2484   5.517   4.650   9.801  0.0569 -0.2284  0.2357
  156loPI   GL1 2485   5.354   4.737   9.339  0.2634 -0.0185 -0.0238
  156loPI   GL2 2486   5.009   4.611   9.238 -0.4624  0.0049 -0.0852
  156loPI   C1A 2487   5.473   4.639   8.996 -0.1981 -0.2757  0.0342
  156loPI   C2A 2488   5.567   4.788   8.617 -0.1801 -0.7335 -0.2200
  156loPI   C3A 2489   5.665   4.781   8.136 -0.1124 -0.3425  0.1379
  156loPI   C4A 2490   5.619   4.512   7.837  0.2353  0.0218  0.1532
  156loPI   C5A 2491   5.425   4.640   7.393  0.3404 -0.0653  0.7049
  156loPI   C6A 2492   5.041   4.828   7.149 -0.0510 -0.0849  0.0103
  156loPI   C1B 2493   4.720   4.600   8.904  0.0446 -0.3462 -0.0227
  156loPI   C2B 2494   4.720   4.585   8.478 -0.1485  0.1062  0.0980
  156loPI   C3B 2495   4.698   4.806   8.119 -0.1554 -0.1379  0.0692
  156loPI   C4B 2496   4.604   5.091   7.801  0.2324  0.0181 -0.2129
  157loPI    C1 2497  12.731  12.352   9.987  0.2628  0.1411  0.2111
  157loPI    C2 2498  13.029  12.618  10.007  0.2669  0.1332  0.2563
  157loPI    C3 2499  12.828  12.518  10.338 -0.1154  0.5126  0.1486
  157loPI   PO4 2500  12.686  12.359   9.741  0.3622 -0.0936  0.1415
  157loPI   GL1 2501  12.952  12.492   9.458 -0.0163 -0.0070 -0.1456
  157loPI   GL2 2502  13.215  12.376   9.397  0.0656 -0.0926 -0.0205
  157loPI   C1A 2503  12.780  12.571   9.124  0.2625 -0.0057 -0.1146
  157loPI   C2A 2504  12.384  12.713   8.956 -0.3934  0.0987 -0.0727
  157loPI   C3A 2505  12.185  12.879   8.520 -0.3802  0.1349 -0.3154
  157loPI   C4A 2506  12.077  12.925   8.187 -0.1673 -0.3573  0.0366
  157loPI   C5A 2507  12.144  12.787   7.806  0.2412 -0.2324 -0.1216
  157loPI   C6A 2508  12.283  12.786   7.348 -0.3463 -0.2462 -0.2635
  157loPI   C1B 2509  13.273  12.729   9.158  0.3826  0.2628  0.2900
  157loPI   C2B 2510  13.144  12.803   8.828 -0.1963 -0.1208  0.0700
  157loPI   C3B 2511  12.866  12.660   8.624 -0.1054  0.1710 -0.2408
  157loPI   C4B 2512  12.565  12.625   8.313 -0.0542  0.1485  0.1236
  158loPI    C1 2513  17.661  13.409   9.880  0.2551  0.0892 -0.0170
  158loPI    C2 2514  17.488  13.069  10.001  0.1650  0.1383 -0.0069
  158loPI    C3 2515  17.826  13.194  10.174  0.1049  0.1430  0.1081
  158loPI   PO4 2516  17.648  13.410   9.616  0.0210  0.3754 -0.0206
  158loPI   GL1 2517  17.867  13.293   9.286 -0.1232 -0.0237 -0.2614
  158loPI   GL2 2518  18.138  13.581   9.491  0.1054 -0.1239  0.1224
  158loPI   C1A 2519  17.952  13.383   8.917  0.1135  0.1431 -0.0536
  158loPI   C2A 2520  17.937  13.476   8.473 -0.0081 -0.0487  0.0568
  158loPI   C3A 2521  17.792  13.409   8.049  0.0539 -0.0077  0.1299
  158loPI   C4A 2522  17.989  13.321   7.693  0.1015 -0.2731  0.2473
  158loPI   C5A 2523  18.122  13.633   7.476  0.1980  0.3160  0.2158
  158loPI   C6A 2524  18.183  13.954   7.124 -0.3623 -0.0907  0.3038
  158loPI   C1B 2525  18.437  13.433   9.149 -0.0640 -0.0621  0.0951
  158loPI   C2B 2526  18.441  13.384   8.683  0.2293  0.1848 -0.3502
  158loPI   C3B 2527  18.308  13.241   8.268  0.0246  0.0335 -0.3195
  158loPI   C4B 2528  18.474  13.296   7.802  0.1374 -0.2618  0.1066
  159loPI    C1 2529   8.072   8.130   9.878  0.0601 -0.0682  0.2096
  159loPI    C2 2530   7.943   8.273  10.229  0.1782 -0.0238  0.2354
  159loPI    C3 2531   7.966   7.878  10.169 -0.3474 -0.0394  0.0917
  159loPI   PO4 2532   8.196   8.314   9.780 -0.0286 -0.4554  0.0206
  159loPI   GL1 2533   8.499   8.328   9.439  0.2918  0.0081 -0.0772
  159loPI   GL2 2534   8.507   8.581   9.264  0.1677 -0.1053  0.1084
  159loPI   C1A 2535   8.178   8.343   9.044  0.1100  0.3922  0.0403
  159loPI   C2A 2536   8.125   8.493   8.618  0.1365 -0.1016  0.1790
  159loPI   C3A 2537   8.296   8.526   8.230  0.0146 -0.0645  0.0848
  159loPI   C4A 2538   8.456   8.691   7.861  0.0555 -0.2106 -0.1207
  159loPI   C5A 2539   8.569   8.707   7.512 -0.0575 -0.0185 -0.1468
  159loPI   C6A 2540   8.653   8.307   7.216 -0.1005  0.0835  0.0357
  159loPI   C1B 2541   8.575   8.711   8.826  0.0280  0.0593 -0.1544
  159loPI   C2B 2542   8.299   8.930   8.530 -0.0270 -0.2565 -0.3882
  159loPI   C3B 2543   8.109   9.113   8.141  0.1064 -0.2391  0.3834
  159loPI   C4B 2544   8.257   9.239   7.695 -0.2633  0.1145 -0.0541
  160loPI    C1 2545   1.682   5.344   9.898  0.1245  0.0915  0.2278
  160loPI    C2 2546   1.619   4.986   9.730  0.2336  0.1378  0.0857
  160loPI    C3 2547   1.532   5.044  10.117  0.0623  0.0051  0.0684
  160loPI   PO4 2548   1.926   5.406   9.690 -0.0138  0.0623 -0.0137
  160loPI   GL1 2549   1.977   5.585   9.258 -0.0284  0.0693  0.0658
  160loPI   GL2 2550   2.175   5.556   9.131 -0.0429 -0.0302  0.1269
  160loPI   C1A 2551   1.719   5.510   8.871  0.0581  0.2748  0.0373
  160loPI   C2A 2552   1.608   5.391   8.577  0.0569  0.1316 -0.0606
  160loPI   C3A 2553   1.600   5.542   8.175  0.0229 -0.0678 -0.1940
  160loPI   C4A 2554   1.821   5.464   7.778 -0.1006  0.5069  0.0832
  160loPI   C5A 2555   1.720   5.206   7.419  0.0297  0.3786 -0.0342
  160loPI   C6A 2556   1.570   4.822   7.499 -0.0857  0.3362  0.1482
  160loPI   C1B 2557   2.144   5.604   8.645  0.0305  0.1808 -0.0366
  160loPI   C2B 2558   2.123   5.627   8.134  0.2592 -0.0316  0.1900
  160loPI   C3B 2559   2.337   5.438   7.770 -0.1815 -0.1424 -0.0267
  160loPI   C4B 2560   2.277   5.098   7.580  0.1029 -0.0502  0.1105
  161loPI    C1 2561  14.294   8.113  10.069 -0.2256 -0.1492 -0.0181
  161loPI    C2 2562  14.205   8.476  10.210 -0.2242 -0.0350 -0.3043
  161loPI    C3 2563  14.587   8.372  10.152 -0.2124 -0.1687 -0.0033
  161loPI   PO4 2564  14.155   7.994   9.811  0.1568  0.0370  0.1512
  161loPI   GL1 2565  14.230   8.004   9.389  0.0204  0.0030 -0.1802
  161loPI   GL2 2566  13.970   8.046   9.144 -0.3778 -0.0268  0.1206
  161loPI   C1A 2567  14.244   7.684   9.027  0.1079  0.1424  0.2284
  161loPI   C2A 2568  14.283   7.749   8.574  0.1528  0.0155  0.1374
  161loPI   C3A 2569  14.428   7.726   8.217 -0.0836 -0.1759  0.0841
  161loPI   C4A 2570  14.332   8.043   7.986  0.1274  0.0795 -0.2895
  161loPI   C5A 2571  14.407   8.346   7.643 -0.3525 -0.1133  0.2381
  161loPI   C6A 2572  14.328   8.811   7.608  0.2548  0.0371  0.1902
  161loPI   C1B 2573  13.948   8.089   8.649 -0.0130  0.0168  0.2738
  161loPI   C2B 2574  13.929   8.003   8.308 -0.4289 -0.3150 -0.0758
  161loPI   C3B 2575  13.895   7.951   7.890  0.2042  0.0062  0.2858
  161loPI   C4B 2576  14.113   8.031   7.444  0.1691 -0.1662  0.1925
  162loPI    C1 2577  14.691   2.810  10.727 -0.2642 -0.0852  0.1971
  162loPI    C2 2578  15.066   2.948  10.759 -0.1888 -0.2174 -0.0829
  162loPI    C3 2579  14.892   2.767  11.070 -0.0509 -0.0820  0.0749
  162loPI   PO4 2580  14.744   2.795  10.421  0.0210 -0.0931  0.2409
  162loPI   GL1 2581  14.604   2.873  10.012 -0.1072  0.4208 -0.0668
  162loPI   GL2 2582  14.213   2.947   9.993 -0.2297 -0.2509  0.0356
  162loPI   C1A 2583  14.692   2.795   9.590  0.2228 -0.0861  0.2007
  162loPI   C2A 2584  14.643   2.695   9.218 -0.4709 -0.0726 -0.0438
  162loPI   C3A 2585  14.414   2.720   8.790 -0.0337 -0.2894 -0.1740
  162loPI   C4A 2586  14.559   2.653   8.333 -0.0490 -0.2467  0.0292
  162loPI   C5A 2587  14.993   2.574   8.089  0.1559  0.1385  0.0351
  162loPI   C6A 2588  15.282   2.617   7.871 -0.2209 -0.2078 -0.3573
  162loPI   C1B 2589  14.191   2.991   9.468  0.1760 -0.1012  0.0471
  162loPI   C2B 2590  14.312   3.149   9.006  0.1633  0.1000 -0.4565
  162loPI   C3B 2591  14.601   3.269   8.588 -0.0077  0.0152 -0.0445
  162loPI   C4B 2592  14.808   3.501   8.183 -0.0387  0.1845  0.1293
  163loPI    C1 2593  14.335  12.109   9.815 -0.1447  0.1510 -0.2058
  163loPI    C2 2594  14.495  11.743   9.814  0.0308  0.2265 -0.2380
  163loPI    C3 2595  14.242  11.849  10.104  0.0377  0.1052 -0.1867
  163loPI   PO4 2596  14.271  12.152   9.559  0.1726 -0.1510 -0.0070
  163loPI   GL1 2597  14.301  12.348   9.069  0.0025 -0.0429 -0.1572
  163loPI   GL2 2598  14.128  12.144   9.052 -0.0845 -0.0147  0.0296
  163loPI   C1A 2599  14.210  12.543   8.598  0.1297  0.1051  0.2762
  163loPI   C2A 2600  14.363  12.861   8.146 -0.3750 -0.3969 -0.2069
  163loPI   C3A 2601  14.502  13.023   7.840 -0.0144  0.3599  0.0118
  163loPI   C4A 2602  14.496  12.984   7.427  0.1844 -0.2075 -0.3736
  163loPI   C5A 2603  14.156  13.089   7.154  0.2422  0.1644  0.4433
  163loPI   C6A 2604  14.210  13.301   6.846 -0.1144  0.2455  0.0533
  163loPI   C1B 2605  14.372  11.911   8.865  0.0358 -0.0056  0.4934
  163loPI   C2B 2606  14.381  11.604   8.565  0.0439  0.0906 -0.2851
  163loPI   C3B 2607  14.444  11.541   8.083  0.2117  0.2415 -0.1198
  163loPI   C4B 2608  14.697  11.601   7.667  0.5207  0.0260 -0.0751
  164loPI    C1 2609  13.740  18.199  10.105  0.1472  0.3171  0.2446
  164loPI    C2 2610  13.626  18.428   9.798  0.1055 -0.0050  0.0151
  164loPI    C3 2611  13.683  18.591  10.158 -0.0900  0.3342 -0.1029
  164loPI   PO4 2612  14.019  18.090   9.986 -0.2582  0.1351 -0.1877
  164loPI   GL1 2613  14.055  17.804   9.596  0.0768  0.2402  0.1442
  164loPI   GL2 2614  13.816  17.995   9.527  0.0134  0.1389  0.0980
  164loPI   C1A 2615  14.309  17.837   9.289 -0.1783 -0.1392 -0.0339
  164loPI   C2A 2616  14.379  17.957   8.930  0.1178  0.3670 -0.0073
  164loPI   C3A 2617  14.427  17.884   8.585 -0.2018 -0.2716 -0.2787
  164loPI   C4A 2618  14.382  17.937   8.195 -0.2858 -0.3295 -0.2448
  164loPI   C5A 2619  14.624  18.043   7.831  0.2313 -0.1148  0.1643
  164loPI   C6A 2620  14.800  18.124   7.463 -0.0027 -0.1786  0.0086
  164loPI   C1B 2621  13.826  18.078   9.090  0.0910  0.1892 -0.3452
  164loPI   C2B 2622  13.877  17.876   8.828  0.4517 -0.2953  0.1407
  164loPI   C3B 2623  13.950  17.695   8.469 -0.0510  0.0435 -0.2096
  164loPI   C4B 2624  14.273  17.392   8.312 -0.2451  0.0270 -0.1028
  165loPI    C1 2625  15.658  10.283   9.893 -0.0942 -0.0022 -0.1461
  165loPI    C2 2626  15.497  10.364   9.536 -0.1463 -0.2086 -0.1710
  165loPI    C3 2627  15.543  10.656   9.806 -0.1639 -0.0638 -0.3225
  165loPI   PO4 2628  15.844  10.144   9.826  0.1499 -0.0447 -0.1795
  165loPI   GL1 2629  16.100  10.040   9.583 -0.3079 -0.5180  0.0292
  165loPI   GL2 2630  15.907  10.179   9.297 -0.2394 -0.1290 -0.0668
  165loPI   C1A 2631  16.340   9.917   9.207  0.1133 -0.0100 -0.2204
  165loPI   C2A 2632  16.346  10.021   8.785 -0.0673 -0.1485  0.2047
  165loPI   C3A 2633  16.544   9.887   8.413  0.5200  0.1367  0.0463
  165loPI   C4A 2634  16.538  10.015   8.035  0.0276 -0.0270 -0.1844
  165loPI   C5A 2635  16.576  10.195   7.663  0.2638  0.0951 -0.3674
  165loPI   C6A 2636  16.512  10.312   7.171 -0.0674 -0.2195  0.1055
  165loPI   C1B 2637  15.613   9.982   9.030 -0.0661 -0.1103  0.3715
  165loPI   C2B 2638  15.439   9.792   8.791  0.3234  0.2700 -0.1034
  165loPI   C3B 2639  15.331   9.922   8.327  0.2148 -0.0140  0.3045
  165loPI   C4B 2640  15.191   9.691   7.957  0.0518  0.0993 -0.1684
  166loPI    C1 2641  10.097   2.143   9.825 -0.0113  0.0786 -0.0311
  166loPI    C2 2642   9.879   2.381  10.062  0.1247  0.0888  0.0848
  166loPI    C3 2643  10.212   2.209  10.202  0.0165 -0.1884  0.0085
  166loPI   PO4 2644  10.006   2.120   9.619 -0.1281 -0.3170 -0.3531
  166loPI   GL1 2645  10.247   1.963   9.297  0.3064  0.4041  0.1256
  166loPI   GL2 2646  10.558   1.975   9.500  0.0003 -0.2953  0.4113
  166loPI   C1A 2647  10.168   2.166   8.854 -0.3239 -0.3587  0.4932
  166loPI   C2A 2648  10.193   2.240   8.508  0.1944  0.1683 -0.3083
  166loPI   C3A 2649  10.175   2.549   8.230 -0.0250 -0.0838  0.0183
  166loPI   C4A 2650  10.085   2.783   7.925 -0.0200  0.0388  0.0380
  166loPI   C5A 2651  10.325   2.979   7.634  0.0006 -0.1063 -0.1749
  166loPI   C6A 2652  10.560   3.217   7.331 -0.5754 -0.3761  0.1751
  166loPI   C1B 2653  10.578   2.260   9.116  0.0081 -0.1930 -0.2242
  166loPI   C2B 2654  10.614   2.413   8.714  0.6053 -0.1677  0.0471
  166loPI   C3B 2655  10.677   2.602   8.231 -0.3773 -0.0756  0.1425
  166loPI   C4B 2656  10.736   2.733   7.768 -0.1033 -0.0866 -0.2764
  167loPI    C1 2657   1.121   2.450  10.228 -0.1536 -0.0917 -0.2420
  167loPI    C2 2658   0.906   2.723  10.427  0.1015  0.0573 -0.1669
  167loPI    C3 2659   1.037   2.395  10.616  0.2624  0.1524 -0.1109
  167loPI   PO4 2660   1.059   2.473   9.971 -0.1104 -0.2592 -0.0573
  167loPI   GL1 2661   1.131   2.452   9.496 -0.0044 -0.0555 -0.0374
  167loPI   GL2 2662   1.344   2.650   9.519  0.2930  0.0868  0.2729
  167loPI   C1A 2663   1.086   2.249   9.139  0.3595  0.1575 -0.3055
  167loPI   C2A 2664   0.984   2.076   8.873  0.3500 -0.4994 -0.1876
  167loPI   C3A 2665   0.885   2.082   8.495 -0.1431 -0.1640 -0.0233
  167loPI   C4A 2666   0.615   2.159   8.090 -0.3047  0.2382 -0.0448
  167loPI   C5A 2667   0.711   2.223   7.642  0.0021  0.4154 -0.3184
  167loPI   C6A 2668   0.615   2.197   7.227 -0.2604  0.0784 -0.0066
  167loPI   C1B 2669   1.285   2.674   9.088 -0.1799 -0.1063  0.1908
  167loPI   C2B 2670   0.936   2.569   8.740  0.2224 -0.0148 -0.1768
  167loPI   C3B 2671   0.938   2.589   8.363  0.1192 -0.0887 -0.0849
  167loPI   C4B 2672   1.108   2.203   8.050 -0.3469 -0.2865 -0.2345
  168loPI    C1 2673  16.118   7.756  10.030  0.2242 -0.0093  0.0894
  168loPI    C2 2674  16.038   7.907  10.392  0.1047  0.0203  0.0511
  168loPI    C3 2675  15.928   7.533  10.303 -0.0140  0.0690 -0.0095
  168loPI   PO4 2676  15.966   8.134   9.933  0.0385 -0.4362 -0.1263
  168loPI   GL1 2677  16.217   8.489   9.686 -0.2345 -0.4832 -0.0156
  168loPI   GL2 2678  16.391   8.141   9.625 -0.2403  0.1657 -0.0471
  168loPI   C1A 2679  16.078   8.517   9.275  0.0561  0.4781 -0.0912
  168loPI   C2A 2680  16.002   8.534   8.864 -0.0325  0.0210  0.0393
  168loPI   C3A 2681  15.981   8.655   8.464  0.0567 -0.2417 -0.1105
  168loPI   C4A 2682  15.950   8.776   8.110  0.0451 -0.1019  0.0393
  168loPI   C5A 2683  15.864   9.168   7.955  0.1003  0.3001 -0.0450
  168loPI   C6A 2684  16.006   9.526   7.705  0.3722  0.1520 -0.0347
  168loPI   C1B 2685  16.336   8.084   9.224  0.1211 -0.3928 -0.1187
  168loPI   C2B 2686  16.163   8.094   8.872  0.0504  0.1591 -0.1027
  168loPI   C3B 2687  15.869   8.145   8.506 -0.2371  0.1229 -0.0437
  168loPI   C4B 2688  15.431   8.348   8.499  0.0853 -0.0317 -0.1414
  169loPI    C1 2689  12.178   0.031  10.202  0.0551 -0.2029 -0.0067
  169loPI    C2 2690  11.896   0.263  10.038  0.0900 -0.1362  0.0276
  169loPI    C3 2691  11.792  -0.029  10.291  0.0542 -0.0872  0.0697
  169loPI   PO4 2692  12.355  -0.052  10.002  0.1051  0.1136 -0.2249
  169loPI   GL1 2693  12.458  -0.221   9.616 -0.0315 -0.0731  0.1430
  169loPI   GL2 2694  12.733  -0.027   9.685 -0.1351 -0.0200  0.1472
  169loPI   C1A 2695  12.162  -0.170   9.323  0.0433  0.1146 -0.0737
  169loPI   C2A 2696  12.110  -0.035   8.955  0.2008 -0.4184 -0.3285
  169loPI   C3A 2697  12.054  -0.067   8.535  0.1575 -0.0112  0.2146
  169loPI   C4A 2698  12.184  -0.120   8.197  0.0897 -0.0760 -0.1149
  169loPI   C5A 2699  12.532  -0.184   8.076 -0.3223 -0.0604  0.2722
  169loPI   C6A 2700  12.730   0.150   7.849  0.0470 -0.2003 -0.0113
  169loPI   C1B 2701  12.638   0.208   9.406 -0.2005  0.2158 -0.0649
  169loPI   C2B 2702  12.855   0.506   9.085 -0.1044 -0.0271  0.1006
  169loPI   C3B 2703  13.018   0.591   8.680  0.0214 -0.2726  0.0455
  169loPI   C4B 2704  12.707   0.688   8.347 -0.2428 -0.3477  0.1816
  170loPI    C1 2705   1.224  17.277  10.621  0.1840  0.0984 -0.0411
  170loPI    C2 2706   0.972  17.155  10.907 -0.0827 -0.1444 -0.3708
  170loPI    C3 2707   1.367  17.152  10.973 -0.1541  0.1633  0.1236
  170loPI   PO4 2708   1.008  17.328  10.434  0.2429  0.0187  0.1696
  170loPI   GL1 2709   0.956  17.288   9.947 -0.2524  0.4141  0.3678
  170loPI   GL2 2710   0.675  17.209  10.066  0.0665 -0.1583 -0.2258
  170loPI   C1A 2711   0.837  17.472   9.571 -0.0925 -0.0001  0.0662
  170loPI   C2A 2712   0.515  17.499   9.348 -0.1599 -0.1362  0.0355
  170loPI   C3A 2713   0.265  17.423   8.916 -0.0903 -0.0509  0.0378
  170loPI   C4A 2714   0.035  17.423   8.566  0.3368  0.0370  0.0582
  170loPI   C5A 2715   0.023  17.375   8.132  0.0607 -0.0442  0.0212
  170loPI   C6A 2716  -0.294  17.547   7.815 -0.0411 -0.2457  0.2556
  170loPI   C1B 2717   0.638  16.969   9.672 -0.0412  0.1051 -0.0842
  170loPI   C2B 2718   0.520  17.006   9.188  0.0065  0.0295 -0.1993
  170loPI   C3B 2719   0.578  17.147   8.725  0.1249  0.0362 -0.2314
  170loPI   C4B 2720   0.428  17.099   8.299 -0.0872 -0.2103  0.2816
  171loPI    C1 2721  19.042   9.431   9.439  0.0022 -0.4342 -0.1444
  171loPI    C2 2722  19.169   9.242   9.768  0.0985 -0.0790  0.0278
  171loPI    C3 2723  18.882   9.520   9.795  0.0858 -0.0687 -0.1940
  171loPI   PO4 2724  18.815   9.337   9.207 -0.3341  0.1388 -0.3323
  171loPI   GL1 2725  18.902   9.037   8.963  0.1626 -0.0796  0.1298
  171loPI   GL2 2726  18.692   8.825   9.110 -0.0467 -0.1565 -0.0514
  171loPI   C1A 2727  18.953   9.109   8.553  0.0046 -0.1957  0.2004
  171loPI   C2A 2728  18.892   9.261   8.111  0.1484 -0.1149 -0.1413
  171loPI   C3A 2729  18.808   9.309   7.774  0.2607  0.2270  0.0928
  171loPI   C4A 2730  18.656   9.500   7.382 -0.1020  0.0151  0.1275
  171loPI   C5A 2731  18.398   9.778   7.057 -0.0263  0.2202 -0.1795
  171loPI   C6A 2732  18.197   9.856   6.661 -0.2288 -0.1813 -0.2197
  171loPI   C1B 2733  18.631   8.712   8.653 -0.0460 -0.1021  0.3620
  171loPI   C2B 2734  18.568   8.810   8.227  0.2110  0.0006  0.0005
  171loPI   C3B 2735  18.421   8.922   7.865 -0.1031  0.2039  0.4352
  171loPI   C4B 2736  18.448   9.058   7.551  0.0449 -0.0561  0.1414
  172loPI    C1 2737  10.646   0.970  10.088 -0.1245  0.2489 -0.0055
  172loPI    C2 2738  10.857   1.303  10.022  0.2051  0.0365 -0.0486
  172loPI    C3 2739  10.760   1.199  10.395  0.1849  0.1293 -0.0276
  172loPI   PO4 2740  10.820   0.798   9.781  0.1998  0.0054 -0.0177
  172loPI   GL1 2741  11.104   0.675   9.454  0.2327  0.2179  0.4314
  172loPI   GL2 2742  11.460   0.805   9.356  0.3227  0.2377 -0.0254
  172loPI   C1A 2743  10.820   0.497   9.069  0.3239 -0.0488 -0.5075
  172loPI   C2A 2744  10.564   0.502   8.659  0.1166 -0.1935 -0.0347
  172loPI   C3A 2745  10.487   0.540   8.253  0.1608  0.3359  0.2227
  172loPI   C4A 2746  10.407   0.905   7.998  0.0855  0.0462 -0.1957
  172loPI   C5A 2747  10.545   1.078   7.604 -0.1629  0.0679 -0.0438
  172loPI   C6A 2748  10.404   0.943   7.194 -0.1805  0.2523  0.2606
  172loPI   C1B 2749  11.528   0.607   9.016 -0.0293  0.3294  0.0851
  172loPI   C2B 2750  11.485   0.618   8.606  0.1164  0.3121 -0.5509
  172loPI   C3B 2751  11.374   0.618   8.149  0.1711  0.1957 -0.3928
  172loPI   C4B 2752  11.347   0.540   7.740 -0.2010 -0.0975  0.0620
  173loPI    C1 2753   5.537  11.396  10.339  0.0513 -0.0828 -0.0006
  173loPI    C2 2754   5.349  11.043  10.331  0.2040 -0.1723  0.2412
  173loPI    C3 2755   5.527  11.167  10.667  0.1050  0.1614  0.1744
  173loPI   PO4 2756   5.632  11.409  10.050 -0.0150 -0.2079 -0.0732
  173loPI   GL1 2757   5.506  11.352   9.717  0.2144 -0.0216  0.0829
  173loPI   GL2 2758   5.743  11.314   9.530 -0.5084 -0.1034 -0.3973
  173loPI   C1A 2759   5.463  11.594   9.235 -0.5442  0.1250  0.0408
  173loPI   C2A 2760   5.651  11.936   9.062 -0.1307 -0.1714  0.0143
  173loPI   C3A 2761   5.743  12.184   8.680  0.2459  0.1108 -0.0532
  173loPI   C4A 2762   5.815  12.277   8.214  0.2917 -0.0844 -0.4376
  173loPI   C5A 2763   5.639  12.162   7.900 -0.0574 -0.2010  0.1182
  173loPI   C6A 2764   5.225  12.274   7.655 -0.1528 -0.0205  0.0591
  173loPI   C1B 2765   5.663  11.085   9.247 -0.3525 -0.3363  0.1446
  173loPI   C2B 2766   5.773  10.975   8.741 -0.0448 -0.0567 -0.1212
  173loPI   C3B 2767   5.823  10.869   8.357  0.0463  0.3658 -0.0437
  173loPI   C4B 2768   5.734  10.797   7.910  0.0752  0.0910  0.2258
  174loPI    C1 2769  13.721   1.715  10.594 -0.2403 -0.2518 -0.1623
  174loPI    C2 2770  13.998   1.509  10.795 -0.1215 -0.0093 -0.0727
  174loPI    C3 2771  13.674   1.646  10.985 -0.1592 -0.0407 -0.1139
  174loPI   PO4 2772  13.781   1.671  10.307  0.0260 -0.5005  0.1361
  174loPI   GL1 2773  13.692   1.617   9.845 -0.2332  0.0356  0.1164
  174loPI   GL2 2774  13.852   1.779   9.844  0.1988  0.0802 -0.0977
  174loPI   C1A 2775  13.549   1.415   9.431 -0.1902 -0.1243  0.0439
  174loPI   C2A 2776  13.543   1.457   9.036 -0.2215  0.0612  0.0067
  174loPI   C3A 2777  13.733   1.553   8.631 -0.2410 -0.0549  0.0270
  174loPI   C4A 2778  13.870   1.598   8.187  0.3030 -0.1039  0.3461
  174loPI   C5A 2779  14.078   1.823   7.958 -0.1353  0.3428  0.0476
  174loPI   C6A 2780  14.395   2.100   7.916  0.2191 -0.0454 -0.3958
  174loPI   C1B 2781  14.130   1.961   9.549 -0.0014 -0.0412 -0.2318
  174loPI   C2B 2782  14.397   1.825   9.272 -0.0641  0.1420 -0.2293
  174loPI   C3B 2783  14.618   1.765   8.857  0.0814  0.2135  0.1836
  174loPI   C4B 2784  14.297   1.677   8.535  0.0046 -0.1658  0.0502
  175loPI    C1 2785  16.693  11.596   9.483  0.2160  0.1175  0.0770
  175loPI    C2 2786  16.399  11.482   9.729  0.1345  0.0704 -0.0417
  175loPI    C3 2787  16.695  11.713   9.866  0.0764  0.0654  0.0941
  175loPI   PO4 2788  16.731  11.306   9.356  0.3096  0.0887 -0.3804
  175loPI   GL1 2789  16.606  11.032   8.961 -0.4882 -0.4476 -0.0040
  175loPI   GL2 2790  16.195  11.012   8.864 -0.1106 -0.1394 -0.0807
  175loPI   C1A 2791  16.839  10.927   8.579  0.1401 -0.0612 -0.1561
  175loPI   C2A 2792  16.878  10.804   8.222 -0.1552  0.1199  0.2638
  175loPI   C3A 2793  16.773  10.603   7.858 -0.2212  0.1293  0.0839
  175loPI   C4A 2794  16.717  10.796   7.462 -0.0344  0.0268  0.0644
  175loPI   C5A 2795  16.360  10.737   7.234 -0.5500 -0.0766 -0.3008
  175loPI   C6A 2796  16.009  10.858   7.281  0.2757  0.1595  0.2999
  175loPI   C1B 2797  15.861  10.813   8.665  0.2693  0.2485  0.3908
  175loPI   C2B 2798  15.560  10.818   8.512 -0.1358  0.1998 -0.0567
  175loPI   C3B 2799  15.418  10.500   8.183  0.0650  0.1050 -0.1960
  175loPI   C4B 2800  15.367  10.207   7.823 -0.1013  0.1403 -0.0898
  176loPI    C1 2801   3.468  11.147   9.984  0.2680 -0.1395  0.0277
  176loPI    C2 2802   3.173  11.361   9.819  0.4668  0.1380  0.0258
  176loPI    C3 2803   3.093  11.108  10.118  0.1921  0.0389 -0.1285
  176loPI   PO4 2804   3.605  11.043   9.774 -0.2289 -0.0715 -0.0022
  176loPI   GL1 2805   3.744  11.034   9.360  0.1005  0.2260  0.1760
  176loPI   GL2 2806   3.482  10.826   9.331  0.0919 -0.0795 -0.2132
  176loPI   C1A 2807   3.709  11.079   8.897  0.2998 -0.1744 -0.3925
  176loPI   C2A 2808   3.603  11.063   8.438  0.0092 -0.1210  0.1379
  176loPI   C3A 2809   3.686  10.995   7.939 -0.0896  0.0801  0.1434
  176loPI   C4A 2810   3.738  11.242   7.589 -0.3195 -0.1533  0.1249
  176loPI   C5A 2811   3.661  11.483   7.166  0.1157  0.0685  0.2629
  176loPI   C6A 2812   3.411  11.689   6.922  0.2400  0.1424 -0.1622
  176loPI   C1B 2813   3.211  10.784   8.982 -0.2180 -0.0230 -0.1984
  176loPI   C2B 2814   2.776  10.670   8.798  0.1123 -0.0510  0.0782
  176loPI   C3B 2815   2.310  10.873   8.780  0.0186  0.1554  0.1216
  176loPI   C4B 2816   2.192  10.600   9.076 -0.1024  0.2416  0.0107
  177loPI    C1 2817  12.174  18.138  10.110  0.1830  0.1612  0.1629
  177loPI    C2 2818  12.318  17.822   9.911 -0.0476  0.1693 -0.0207
  177loPI    C3 2819  12.152  17.773  10.271 -0.1403  0.0703 -0.0763
  177loPI   PO4 2820  11.936  18.245   9.931 -0.0725  0.1551  0.1623
  177loPI   GL1 2821  12.145  18.098   9.521 -0.1848  0.1139 -0.2825
  177loPI   GL2 2822  12.357  17.992   9.237  0.2778 -0.3802 -0.2705
  177loPI   C1A 2823  11.983  18.319   9.177 -0.2157 -0.1639  0.2841
  177loPI   C2A 2824  11.921  18.259   8.691  0.1050 -0.3107 -0.0226
  177loPI   C3A 2825  11.856  18.060   8.310 -0.0186 -0.2418  0.0568
  177loPI   C4A 2826  11.702  17.836   7.991  0.0257  0.2909  0.1253
  177loPI   C5A 2827  11.566  17.764   7.589 -0.0489  0.0088  0.3079
  177loPI   C6A 2828  11.457  17.903   7.215 -0.2318  0.0160 -0.1483
  177loPI   C1B 2829  12.468  18.058   8.804  0.1410 -0.0605 -0.1090
  177loPI   C2B 2830  12.479  18.019   8.381 -0.0904 -0.1309  0.0374
  177loPI   C3B 2831  12.587  17.976   7.904  0.3862 -0.1870  0.0861
  177loPI   C4B 2832  12.617  18.240   7.665  0.0161  0.0435  0.2869
  178loPI    C1 2833   0.121   1.557  10.359 -0.3122 -0.0749 -0.1836
  178loPI    C2 2834  -0.180   1.587  10.621 -0.2373  0.2219 -0.1280
  178loPI    C3 2835   0.177   1.744  10.708 -0.0129 -0.2751 -0.1208
  178loPI   PO4 2836  -0.026   1.553  10.105  0.0983  0.0762 -0.1168
  178loPI   GL1 2837   0.154   1.496   9.661  0.3162 -0.0207  0.2752
  178loPI   GL2 2838   0.363   1.227   9.615  0.2639 -0.0133  0.1198
  178loPI   C1A 2839   0.095   1.773   9.269 -0.0131  0.0969  0.1968
  178loPI   C2A 2840  -0.128   1.803   8.839 -0.2557  0.0603  0.1220
  178loPI   C3A 2841  -0.147   1.596   8.467  0.3648 -0.1895 -0.1887
  178loPI   C4A 2842  -0.206   1.477   8.072 -0.3732  0.2059 -0.2077
  178loPI   C5A 2843  -0.108   1.119   7.720 -0.1211  0.1071 -0.0096
  178loPI   C6A 2844  -0.312   0.964   7.227 -0.2414 -0.0207 -0.1979
  178loPI   C1B 2845   0.376   1.309   9.226  0.0627 -0.0712  0.3449
  178loPI   C2B 2846   0.224   1.423   8.808 -0.0510  0.3553  0.2500
  178loPI   C3B 2847   0.114   1.233   8.402  0.1105 -0.1872  0.1033
  178loPI   C4B 2848   0.277   0.936   8.075 -0.2320  0.0938 -0.1918
  179loPI    C1 2849  13.033   4.490  10.366  0.0435 -0.0357 -0.1323
  179loPI    C2 2850  12.926   4.171  10.584  0.0291 -0.1108 -0.2487
  179loPI    C3 2851  13.286   4.337  10.636  0.0599 -0.1834 -0.2300
  179loPI   PO4 2852  12.725   4.543  10.240  0.3742 -0.2375  0.1741
  179loPI   GL1 2853  12.570   4.876   9.826  0.0388 -0.1764  0.3425
  179loPI   GL2 2854  12.405   5.078   9.733  0.1579 -0.0511 -0.2190
  179loPI   C1A 2855  12.656   4.595   9.444  0.0576 -0.0970  0.1050
  179loPI   C2A 2856  12.693   4.694   8.981  0.1015 -0.2637  0.1843
  179loPI   C3A 2857  12.593   4.753   8.552  0.0254  0.0525  0.2169
  179loPI   C4A 2858  12.447   4.836   8.170  0.2447  0.4427 -0.0753
  179loPI   C5A 2859  12.046   5.051   7.804  0.2780  0.4533 -0.1799
  179loPI   C6A 2860  11.581   4.946   7.830 -0.1625 -0.0621  0.1798
  179loPI   C1B 2861  12.193   4.963   9.322 -0.0961 -0.2991  0.5855
  179loPI   C2B 2862  12.157   4.788   8.889 -0.2992 -0.3890 -0.1398
  179loPI   C3B 2863  11.957   4.693   8.561  0.3079 -0.0105  0.3829
  179loPI   C4B 2864  11.835   4.730   8.181  0.0426 -0.1553 -0.4265
  180loPI    C1 2865  12.118  15.184   9.503  0.1376 -0.0217  0.0198
  180loPI    C2 2866  12.506  15.089   9.521  0.1918  0.1701 -0.1034
  180loPI    C3 2867  12.335  15.293   9.821  0.0752 -0.3023  0.1617
  180loPI   PO4 2868  12.019  14.896   9.498 -0.0943  0.0630  0.2693
  180loPI   GL1 2869  12.107  14.571   9.173 -0.1170  0.2226 -0.1321
  180loPI   GL2 2870  12.371  14.730   9.157 -0.0468  0.0262  0.1820
  180loPI   C1A 2871  12.231  14.453   8.650  0.6152  0.1736 -0.1090
  180loPI   C2A 2872  12.260  14.498   8.218  0.1488 -0.2565 -0.0373
  180loPI   C3A 2873  12.571  14.477   7.988  0.3896  0.0770 -0.1330
  180loPI   C4A 2874  12.634  14.744   7.676  0.1584 -0.0670 -0.4465
  180loPI   C5A 2875  12.792  15.099   7.382 -0.1654  0.2257 -0.2826
  180loPI   C6A 2876  12.723  15.337   7.009 -0.1450  0.2770  0.2356
  180loPI   C1B 2877  12.441  14.948   8.762  0.1497  0.2344 -0.1899
  180loPI   C2B 2878  12.549  14.946   8.223 -0.3577 -0.1286  0.0178
  180loPI   C3B 2879  12.781  15.154   7.917  0.0458  0.0413 -0.0508
  180loPI   C4B 2880  12.801  15.526   7.668  0.2109  0.1053  0.0799
  181loPI    C1 2881  11.589   6.124  10.286 -0.1480 -0.1433 -0.0320
  181loPI    C2 2882  11.454   6.424  10.514  0.1892  0.0666 -0.1021
  181loPI    C3 2883  11.350   6.047  10.598 -0.1174  0.1874  0.0770
  181loPI   PO4 2884  11.832   6.063  10.303  0.2503  0.1671 -0.0800
  181loPI   GL1 2885  12.008   6.086   9.942  0.0489  0.0631  0.1548
  181loPI   GL2 2886  11.762   6.069   9.739 -0.1310 -0.0552 -0.0692
  181loPI   C1A 2887  12.330   6.180   9.571 -0.2204  0.0725  0.0181
  181loPI   C2A 2888  12.405   6.043   9.251  0.3284 -0.4268  0.1508
  181loPI   C3A 2889  12.396   5.761   8.908  0.3599  0.0553  0.0335
  181loPI   C4A 2890  12.635   5.712   8.553  0.2159  0.2229 -0.1159
  181loPI   C5A 2891  12.639   5.620   8.128  0.1456  0.2001 -0.0520
  181loPI   C6A 2892  12.388   5.367   7.988  0.0106  0.0988 -0.1952
  181loPI   C1B 2893  11.952   5.780   9.512 -0.3017  0.0753  0.1510
  181loPI   C2B 2894  11.869   5.583   9.151  0.1850 -0.2041 -0.0219
  181loPI   C3B 2895  11.981   5.564   8.720 -0.0959 -0.1158  0.0445
  181loPI   C4B 2896  12.101   5.718   8.280  0.0004 -0.0357  0.1048
  182loPI    C1 2897  10.065  14.575   9.799 -0.0077 -0.2047 -0.2199
  182loPI    C2 2898  10.311  14.287   9.928 -0.0560 -0.1088  0.0954
  182loPI    C3 2899  10.441  14.665   9.900 -0.0691 -0.1155 -0.0666
  182loPI   PO4 2900   9.898  14.421   9.636  0.0361  0.1383 -0.1116
  182loPI   GL1 2901  10.084  14.306   9.253  0.3581 -0.1238 -0.0067
  182loPI   GL2 2902  10.211  14.037   9.295  0.0712  0.4719  0.0261
  182loPI   C1A 2903   9.976  14.320   8.845 -0.0800 -0.2042 -0.0293
  182loPI   C2A 2904  10.017  14.169   8.544 -0.0785 -0.1898 -0.1361
  182loPI   C3A 2905   9.771  14.247   8.323  0.1346 -0.0755  0.0890
  182loPI   C4A 2906   9.561  14.127   7.962  0.1267 -0.3230 -0.1332
  182loPI   C5A 2907   9.432  14.126   7.532 -0.1178  0.0295  0.2050
  182loPI   C6A 2908   9.531  14.364   7.180  0.3471 -0.0736  0.0483
  182loPI   C1B 2909  10.035  13.829   8.881  0.1245  0.0403  0.0742
  182loPI   C2B 2910  10.015  13.633   8.502  0.0159  0.0992  0.2826
  182loPI   C3B 2911   9.935  13.731   8.034  0.0318  0.1797  0.1303
  182loPI   C4B 2912  10.184  13.740   7.634 -0.2636 -0.4576 -0.0420
  183loPI    C1 2913  13.980   5.483  10.495  0.0313  0.1284 -0.0657
  183loPI    C2 2914  13.918   5.088  10.467  0.0164  0.1238  0.0316
  183loPI    C3 2915  13.754   5.297  10.767 -0.0567  0.2211 -0.0751
  183loPI   PO4 2916  13.946   5.516  10.142 -0.0387 -0.2064  0.3436
  183loPI   GL1 2917  13.979   5.558   9.706 -0.1909  0.0340  0.2356
  183loPI   GL2 2918  13.744   5.768   9.760  0.0583  0.4863 -0.0658
  183loPI   C1A 2919  14.188   5.732   9.332 -0.2893 -0.2321 -0.0644
  183loPI   C2A 2920  14.321   6.009   8.863  0.1718  0.2168  0.2867
  183loPI   C3A 2921  14.216   6.212   8.568 -0.0072  0.3613 -0.0351
  183loPI   C4A 2922  14.392   6.334   8.189 -0.0198 -0.0575 -0.1738
  183loPI   C5A 2923  14.685   6.214   7.966  0.2258  0.1096  0.0271
  183loPI   C6A 2924  14.788   5.957   7.620 -0.3400 -0.1771 -0.3964
  183loPI   C1B 2925  13.666   5.825   9.264  0.0943  0.0387 -0.2188
  183loPI   C2B 2926  13.869   5.788   8.895  0.0236  0.3750  0.1299
  183loPI   C3B 2927  14.022   5.718   8.606  0.1271  0.0640  0.1985
  183loPI   C4B 2928  13.997   5.976   8.185  0.2603  0.0030 -0.2302
  184loPI    C1 2929   1.973  15.913  10.347  0.0432  0.0864  0.2353
  184loPI    C2 2930   1.953  15.553  10.520 -0.2058  0.1112  0.2628
  184loPI    C3 2931   2.282  15.777  10.562  0.0806 -0.2428 -0.0187
  184loPI   PO4 2932   1.880  15.902  10.051 -0.3236  0.1037 -0.1188
  184loPI   GL1 2933   1.773  15.821   9.697  0.0480  0.0316  0.0464
  184loPI   GL2 2934   1.438  15.769   9.635 -0.3617 -0.0510 -0.0710
  184loPI   C1A 2935   1.814  16.155   9.380 -0.3023 -0.2623 -0.0771
  184loPI   C2A 2936   1.683  16.198   8.906 -0.3995  0.0257 -0.0462
  184loPI   C3A 2937   1.691  16.230   8.474 -0.2813  0.1235  0.1232
  184loPI   C4A 2938   1.748  16.513   8.116 -0.1119 -0.0192 -0.1284
  184loPI   C5A 2939   1.666  16.485   7.694 -0.0710  0.2594  0.2110
  184loPI   C6A 2940   1.904  16.262   7.507  0.2866  0.0447  0.4650
  184loPI   C1B 2941   1.594  15.613   9.178 -0.0435 -0.0989  0.0524
  184loPI   C2B 2942   1.775  15.752   8.801 -0.0664  0.0532  0.2042
  184loPI   C3B 2943   1.686  15.690   8.401  0.1634  0.2198  0.2335
  184loPI   C4B 2944   1.433  15.661   8.036  0.1375 -0.0473 -0.3177
  185loPI    C1 2945   3.140  19.153   9.489 -0.1491  0.0632 -0.1122
  185loPI    C2 2946   3.047  19.238   9.869  0.3072  0.1234 -0.0088
  185loPI    C3 2947   2.881  19.447   9.571 -0.5545 -0.3441  0.1120
  185loPI   PO4 2948   3.150  18.851   9.484 -0.0260 -0.1673  0.0726
  185loPI   GL1 2949   2.895  18.632   9.177 -0.0826 -0.0943  0.1271
  185loPI   GL2 2950   3.174  18.485   9.040  0.0169 -0.0155 -0.0619
  185loPI   C1A 2951   2.646  18.577   8.726 -0.2479  0.0915  0.1008
  185loPI   C2A 2952   2.633  18.360   8.368 -0.0931 -0.0192 -0.1500
  185loPI   C3A 2953   2.955  17.992   8.215  0.2951 -0.2300 -0.1395
  185loPI   C4A 2954   3.233  18.158   7.922  0.1609  0.0291 -0.2232
  185loPI   C5A 2955   3.278  18.086   7.469 -0.0360  0.1702 -0.1353
  185loPI   C6A 2956   3.061  18.064   7.179  0.0368  0.2774 -0.1635
  185loPI   C1B 2957   3.119  18.356   8.724 -0.2215 -0.1739 -0.0993
  185loPI   C2B 2958   3.098  18.439   8.282 -0.0437 -0.2008  0.1623
  185loPI   C3B 2959   2.972  18.562   7.844 -0.1197  0.1043 -0.1592
  185loPI   C4B 2960   2.700  18.785   7.520 -0.4313 -0.1186 -0.0219
  186loPI    C1 2961  17.063  16.651  10.498 -0.1068  0.1169 -0.0038
  186loPI    C2 2962  16.730  16.807  10.657 -0.1953  0.0929 -0.1632
  186loPI    C3 2963  16.790  16.412  10.667  0.0024  0.1277  0.1904
  186loPI   PO4 2964  17.103  16.819  10.257  0.0779 -0.2727 -0.1960
  186loPI   GL1 2965  17.083  16.740   9.874  0.2451  0.1550 -0.1137
  186loPI   GL2 2966  16.964  17.092   9.890 -0.2913  0.1099  0.1018
  186loPI   C1A 2967  17.286  16.884   9.548  0.0731 -0.4514 -0.1518
  186loPI   C2A 2968  17.188  16.731   9.115  0.2998  0.0693 -0.1807
  186loPI   C3A 2969  17.071  16.756   8.757  0.0611 -0.1647  0.1107
  186loPI   C4A 2970  17.014  16.794   8.312  0.1904 -0.1009 -0.1302
  186loPI   C5A 2971  17.023  16.443   7.980  0.0666  0.1871 -0.1725
  186loPI   C6A 2972  16.918  16.389   7.541  0.3496  0.2648  0.1902
  186loPI   C1B 2973  16.891  17.144   9.383 -0.1118 -0.1246 -0.0271
  186loPI   C2B 2974  17.049  17.538   9.000 -0.3437  0.1043 -0.1608
  186loPI   C3B 2975  17.234  17.513   8.578 -0.1974 -0.1072  0.1448
  186loPI   C4B 2976  17.305  17.789   8.297  0.3179  0.0106  0.2733
  187loPI    C1 2977  10.860   1.879   9.991  0.3260  0.0874  0.0193
  187loPI    C2 2978  10.704   2.065  10.309 -0.0086  0.1176 -0.1587
  187loPI    C3 2979  10.876   1.707  10.352 -0.0391  0.1276  0.0588
  187loPI   PO4 2980  11.147   2.135   9.817  0.2532 -0.1780 -0.0888
  187loPI   GL1 2981  11.274   2.474   9.433 -0.1805  0.0066 -0.1071
  187loPI   GL2 2982  10.999   2.243   9.315  0.0928 -0.4276 -0.0031
  187loPI   C1A 2983  11.316   2.502   9.005  0.1884 -0.0671 -0.0346
  187loPI   C2A 2984  11.405   2.319   8.645  0.1888 -0.1471 -0.0875
  187loPI   C3A 2985  11.791   2.381   8.398 -0.2415 -0.2022  0.1193
  187loPI   C4A 2986  12.036   2.444   8.012  0.2901 -0.1692 -0.2712
  187loPI   C5A 2987  12.005   2.390   7.614 -0.2656 -0.1651 -0.0881
  187loPI   C6A 2988  11.950   2.037   7.274  0.1477  0.1268 -0.0869
  187loPI   C1B 2989  10.993   2.077   8.843  0.2820  0.1290  0.0176
  187loPI   C2B 2990  10.954   2.182   8.445  0.0119 -0.1434 -0.1045
  187loPI   C3B 2991  11.195   2.316   8.170  0.0054 -0.1420 -0.1020
  187loPI   C4B 2992  11.537   2.174   7.963 -0.0380 -0.3373  0.1608
  188loPI    C1 2993   4.066   1.161   9.932  0.3525  0.1170 -0.0624
  188loPI    C2 2994   4.131   0.794  10.078  0.1173  0.1096  0.0277
  188loPI    C3 2995   3.982   1.080  10.315 -0.0270  0.1676 -0.1309
  188loPI   PO4 2996   4.196   0.933   9.626  0.2058  0.2636 -0.1088
  188loPI   GL1 2997   4.258   1.004   9.200 -0.1003  0.3294  0.0638
  188loPI   GL2 2998   4.205   0.680   9.171 -0.1943  0.1860 -0.0188
  188loPI   C1A 2999   4.280   1.024   8.829  0.0803  0.0362  0.4436
  188loPI   C2A 3000   4.298   1.014   8.316  0.4840 -0.0428  0.1871
  188loPI   C3A 3001   4.116   0.832   7.926 -0.2335 -0.1588  0.1548
  188loPI   C4A 3002   3.915   0.781   7.489 -0.1029 -0.2960 -0.3205
  188loPI   C5A 3003   3.677   0.688   7.190 -0.0426 -0.1315 -0.1279
  188loPI   C6A 3004   3.318   0.760   7.052 -0.0376 -0.1125 -0.1743
  188loPI   C1B 3005   4.032   0.581   8.774 -0.0785 -0.5504 -0.0255
  188loPI   C2B 3006   3.820   0.735   8.454 -0.2636 -0.0771 -0.1438
  188loPI   C3B 3007   3.705   0.657   8.068 -0.1370  0.3208 -0.1554
  188loPI   C4B 3008   3.549   0.506   7.665 -0.2982 -0.2054  0.1046
  189loPI    C1 3009   6.666   5.854   9.761  0.1717 -0.1677 -0.0310
  189loPI    C2 3010   6.286   5.911   9.873  0.1616  0.0047 -0.1503
  189loPI    C3 3011   6.569   5.852  10.149  0.0894  0.1334 -0.0476
  189loPI   PO4 3012   6.622   5.721   9.550 -0.2285  0.1258  0.1326
  189loPI   GL1 3013   6.811   5.454   9.327 -0.1044  0.2955 -0.0957
  189loPI   GL2 3014   7.117   5.264   9.418 -0.3072 -0.0789 -0.1358
  189loPI   C1A 3015   6.993   5.317   8.874 -0.0860  0.1775  0.0537
  189loPI   C2A 3016   7.032   5.407   8.469  0.1172  0.1575  0.1587
  189loPI   C3A 3017   7.135   5.317   8.076  0.1264 -0.2824 -0.2571
  189loPI   C4A 3018   7.175   5.128   7.616  0.1744 -0.1565 -0.1190
  189loPI   C5A 3019   6.993   5.073   7.218 -0.1434  0.2211 -0.2787
  189loPI   C6A 3020   6.974   4.699   7.110  0.0648 -0.0761  0.2109
  189loPI   C1B 3021   7.426   5.331   9.061 -0.2650  0.1713  0.1669
  189loPI   C2B 3022   7.598   5.365   8.664 -0.1347 -0.1243  0.1133
  189loPI   C3B 3023   7.869   5.331   8.276  0.2460  0.2087 -0.2300
  189loPI   C4B 3024   7.861   5.297   7.794 -0.0037  0.1136 -0.3890
  190loPI    C1 3025   5.000   8.807   9.846  0.0954  0.0535  0.2223
  190loPI    C2 3026   4.707   8.649  10.067  0.0050 -0.1704 -0.0510
  190loPI    C3 3027   5.073   8.489  10.076  0.0184 -0.1378 -0.0135
  190loPI   PO4 3028   4.879   8.797   9.585  0.0878 -0.0229 -0.0259
  190loPI   GL1 3029   4.589   9.014   9.419 -0.0281  0.2767 -0.0218
  190loPI   GL2 3030   4.301   9.020   9.317  0.0498  0.0045 -0.1345
  190loPI   C1A 3031   4.603   8.972   8.879 -0.2192  0.0249 -0.0638
  190loPI   C2A 3032   4.573   9.028   8.434 -0.3118 -0.1246  0.0078
  190loPI   C3A 3033   4.866   8.979   8.040 -0.0306 -0.0675 -0.1791
  190loPI   C4A 3034   4.911   8.881   7.623  0.1526  0.1850 -0.2479
  190loPI   C5A 3035   4.651   8.653   7.369 -0.0239  0.0354  0.0829
  190loPI   C6A 3036   4.587   8.247   7.105 -0.3154 -0.2475 -0.1830
  190loPI   C1B 3037   4.143   9.237   8.928 -0.1403  0.2440 -0.0681
  190loPI   C2B 3038   3.961   9.465   8.765 -0.0794 -0.0464  0.0050
  190loPI   C3B 3039   3.769   9.641   8.507 -0.0403  0.2341 -0.0116
  190loPI   C4B 3040   3.368   9.604   8.174  0.0516  0.0983 -0.0665
  191loPI    C1 3041  10.741  15.381   9.719  0.3895  0.0551  0.2084
  191loPI    C2 3042  10.467  15.193   9.941  0.0591  0.0933 -0.1574
  191loPI    C3 3043  10.780  15.368  10.117  0.0223 -0.2253  0.2402
  191loPI   PO4 3044  10.646  15.387   9.472 -0.3653  0.1504 -0.0210
  191loPI   GL1 3045  10.662  15.013   9.162 -0.1200 -0.1165  0.3311
  191loPI   GL2 3046  10.886  14.755   9.195  0.3709  0.3852 -0.1448
  191loPI   C1A 3047  10.432  15.130   8.860 -0.1648  0.2039  0.1523
  191loPI   C2A 3048  10.276  15.439   8.584  0.0943  0.1773  0.0378
  191loPI   C3A 3049  10.080  15.476   8.263  0.0209  0.1728  0.1046
  191loPI   C4A 3050   9.969  15.539   7.876 -0.2072 -0.0010  0.1680
  191loPI   C5A 3051   9.989  15.470   7.369  0.1079 -0.4908  0.0320
  191loPI   C6A 3052   9.726  15.076   7.174  0.1364 -0.3049 -0.1521
  191loPI   C1B 3053  10.824  14.829   8.695 -0.0402  0.0217 -0.0017
  191loPI   C2B 3054  10.622  14.962   8.352 -0.1036  0.1384 -0.3207
  191loPI   C3B 3055  10.326  15.095   8.013 -0.0533 -0.1448 -0.2848
  191loPI   C4B 3056  10.422  15.275   7.636 -0.2277 -0.1991  0.1780
  192loPI    C1 3057   1.569   8.900   9.792 -0.2767 -0.1618 -0.0827
  192loPI    C2 3058   1.384   9.150  10.044  0.0458 -0.0603  0.0587
  192loPI    C3 3059   1.624   8.864  10.187 -0.1329 -0.3013 -0.1145
  192loPI   PO4 3060   1.609   9.074   9.566  0.2281  0.0294  0.1270
  192loPI   GL1 3061   1.331   9.089   9.386 -0.3142  0.1083  0.2389
  192loPI   GL2 3062   1.435   9.341   9.130  0.1035 -0.2540 -0.0118
  192loPI   C1A 3063   1.211   8.976   8.965  0.0712  0.0283 -0.0351
  192loPI   C2A 3064   1.139   8.869   8.538 -0.1019 -0.2990 -0.1005
  192loPI   C3A 3065   0.955   8.875   8.100 -0.4577  0.0828 -0.0736
  192loPI   C4A 3066   0.887   8.832   7.685 -0.0422  0.0081 -0.0374
  192loPI   C5A 3067   0.729   8.692   7.355 -0.0433  0.2987 -0.2619
  192loPI   C6A 3068   0.515   8.454   7.005 -0.2890 -0.4229  0.2864
  192loPI   C1B 3069   1.690   9.140   8.815  0.0553 -0.2732  0.2058
  192loPI   C2B 3070   1.791   8.902   8.495 -0.3403  0.2288 -0.0237
  192loPI   C3B 3071   2.075   8.816   8.142 -0.1909  0.1394  0.2806
  192loPI   C4B 3072   2.009   8.899   7.763 -0.0745  0.2353 -0.1127
  193loPI    C1 3073  10.353   7.959   9.741 -0.0236 -0.1146 -0.1217
  193loPI    C2 3074  10.636   7.938  10.023 -0.0715  0.0278 -0.0619
  193loPI    C3 3075  10.316   8.172  10.077 -0.1204 -0.0058 -0.2004
  193loPI   PO4 3076  10.378   7.683   9.662  0.2276 -0.0206  0.1019
  193loPI   GL1 3077  10.509   7.482   9.376  0.3192 -0.1181 -0.0439
  193loPI   GL2 3078  10.257   7.404   9.239 -0.2572  0.0359 -0.2271
  193loPI   C1A 3079  10.608   7.151   9.040 -0.1141  0.1696 -0.0770
  193loPI   C2A 3080  10.866   7.082   8.679 -0.0269  0.1605  0.0082
  193loPI   C3A 3081  11.169   7.269   8.368  0.1993 -0.0609  0.1062
  193loPI   C4A 3082  11.424   7.219   7.949 -0.0971 -0.1994 -0.1987
  193loPI   C5A 3083  11.558   7.111   7.518 -0.2096 -0.1180  0.0839
  193loPI   C6A 3084  11.817   7.271   7.348  0.2662 -0.1905  0.1427
  193loPI   C1B 3085  10.198   7.475   8.790  0.1564 -0.0121 -0.1882
  193loPI   C2B 3086  10.458   7.352   8.479 -0.3175  0.2286  0.1230
  193loPI   C3B 3087  10.640   7.196   8.060  0.0793  0.3047 -0.1906
  193loPI   C4B 3088  10.477   6.891   7.720  0.0241 -0.2182  0.0999
  194loPI    C1 3089  10.952  14.226   9.999 -0.2981  0.1164  0.1164
  194loPI    C2 3090  10.710  13.944  10.146 -0.1154 -0.0845  0.0373
  194loPI    C3 3091  11.024  14.069  10.360 -0.0458 -0.1311 -0.0365
  194loPI   PO4 3092  10.813  14.336   9.754  0.2306 -0.0933  0.1298
  194loPI   GL1 3093  10.471  14.565   9.438  0.1910 -0.1414  0.2707
  194loPI   GL2 3094  10.281  14.815   9.425  0.0095 -0.0448  0.2355
  194loPI   C1A 3095  10.458  14.587   9.001  0.1732 -0.2386 -0.1785
  194loPI   C2A 3096  10.352  14.644   8.595  0.0322  0.0258  0.0951
  194loPI   C3A 3097  10.225  14.536   8.220 -0.1238 -0.4714  0.1466
  194loPI   C4A 3098   9.971  14.495   7.959  0.0465  0.0770  0.1121
  194loPI   C5A 3099   9.945  14.243   7.499 -0.2543 -0.0224  0.0062
  194loPI   C6A 3100   9.883  13.928   7.155 -0.0231 -0.0956  0.1111
  194loPI   C1B 3101  10.084  15.192   9.183  0.0124  0.4277 -0.1391
  194loPI   C2B 3102   9.818  15.360   8.833 -0.0284  0.0797  0.2806
  194loPI   C3B 3103   9.680  15.511   8.485  0.1759 -0.1817 -0.2402
  194loPI   C4B 3104   9.675  15.760   8.187  0.1542  0.0742 -0.5476
  195loPI    C1 3105  18.838  14.794   9.928  0.0317 -0.1658  0.0321
  195loPI    C2 3106  19.131  14.899  10.179  0.0134  0.1979 -0.0940
  195loPI    C3 3107  18.912  14.573  10.254  0.3997 -0.0380  0.0400
  195loPI   PO4 3108  18.839  14.971   9.782 -0.0425  0.3215 -0.5354
  195loPI   GL1 3109  18.678  15.284   9.534 -0.0866 -0.1053  0.1878
  195loPI   GL2 3110  18.389  15.148   9.443 -0.1170  0.0316  0.1821
  195loPI   C1A 3111  18.848  15.058   9.119 -0.3934  0.0535 -0.2026
  195loPI   C2A 3112  19.107  14.923   8.910 -0.2364  0.0741  0.0772
  195loPI   C3A 3113  19.451  15.034   8.616  0.1510 -0.0834  0.3960
  195loPI   C4A 3114  19.531  15.086   8.060 -0.0582 -0.1033 -0.0951
  195loPI   C5A 3115  19.940  14.969   7.801 -0.0080 -0.3941  0.0240
  195loPI   C6A 3116  20.123  15.103   7.421 -0.0246 -0.0006 -0.1424
  195loPI   C1B 3117  18.460  15.286   8.966  0.2014  0.1425 -0.1074
  195loPI   C2B 3118  18.830  15.315   8.629 -0.1237 -0.3233 -0.0870
  195loPI   C3B 3119  19.061  15.278   8.206  0.2716  0.1259 -0.1114
  195loPI   C4B 3120  19.179  15.355   7.706 -0.1731  0.0279  0.1060
  196loPI    C1 3121  15.384  15.875   9.926  0.0343  0.2554  0.1925
  196loPI    C2 3122  15.637  15.638  10.126  0.2014  0.1503 -0.1352
  196loPI    C3 3123  15.614  16.027  10.216  0.3317  0.1204  0.0328
  196loPI   PO4 3124  15.488  15.867   9.625  0.2204  0.0905 -0.0490
  196loPI   GL1 3125  15.717  15.921   9.388  0.0674 -0.1359 -0.2732
  196loPI   GL2 3126  15.731  15.616   9.174  0.1964  0.2517  0.0023
  196loPI   C1A 3127  15.848  16.141   9.077 -0.4871  0.0245 -0.0452
  196loPI   C2A 3128  15.858  16.183   8.725 -0.1149  0.0803  0.3708
  196loPI   C3A 3129  15.910  16.245   8.246  0.1210  0.1155  0.1192
  196loPI   C4A 3130  15.946  16.204   7.731  0.1426  0.2515 -0.2860
  196loPI   C5A 3131  15.720  16.363   7.372 -0.0085  0.0608 -0.0773
  196loPI   C6A 3132  15.372  16.620   7.249 -0.2128  0.0334 -0.1405
  196loPI   C1B 3133  15.670  15.759   8.841  0.0504 -0.2812  0.0210
  196loPI   C2B 3134  15.465  15.826   8.468 -0.2371 -0.0630 -0.0866
  196loPI   C3B 3135  15.408  16.116   8.056  0.0154 -0.1537  0.0246
  196loPI   C4B 3136  15.345  16.228   7.685  0.2171  0.4180  0.2480
  197loPI    C1 3137  10.459   8.993   9.672 -0.1001  0.0545 -0.0228
  197loPI    C2 3138  10.796   8.949   9.883 -0.1273  0.0407  0.0179
  197loPI    C3 3139  10.477   9.122  10.050 -0.2603 -0.2783  0.1026
  197loPI   PO4 3140  10.622   8.874   9.421  0.1771 -0.2727  0.1388
  197loPI   GL1 3141  10.515   8.838   9.040 -0.1825 -0.0255  0.0930
  197loPI   GL2 3142  10.521   8.465   8.980  0.2252  0.0648 -0.2647
  197loPI   C1A 3143  10.555   8.890   8.527  0.4570  0.2884 -0.0232
  197loPI   C2A 3144  10.591   8.770   8.084 -0.0470  0.0050  0.2085
  197loPI   C3A 3145  10.723   9.003   7.682 -0.1255  0.1539 -0.1893
  197loPI   C4A 3146  10.836   9.410   7.492 -0.0040 -0.2506  0.2717
  197loPI   C5A 3147  11.132   9.622   7.131  0.2012  0.1484 -0.1448
  197loPI   C6A 3148  11.201  10.160   7.080 -0.1914 -0.1429  0.2369
  197loPI   C1B 3149  10.117   8.616   8.848  0.1665 -0.2505  0.2640
  197loPI   C2B 3150   9.876   8.367   8.661  0.2229  0.1891  0.0538
  197loPI   C3B 3151   9.600   8.481   8.368 -0.1892 -0.2866  0.2953
  197loPI   C4B 3152   9.719   8.714   8.011  0.2662  0.1270 -0.2198
  198loPI    C1 3153   0.964   7.874   9.774 -0.0745  0.0482 -0.2995
  198loPI    C2 3154   1.117   8.232   9.867 -0.0467  0.0003 -0.1588
  198loPI    C3 3155   1.325   7.900   9.944 -0.1457 -0.0558 -0.1309
  198loPI   PO4 3156   0.894   7.826   9.494  0.0339  0.0866 -0.2939
  198loPI   GL1 3157   0.996   7.754   9.138 -0.1119 -0.1227 -0.4853
  198loPI   GL2 3158   0.991   8.117   9.032  0.0305 -0.0876 -0.1650
  198loPI   C1A 3159   1.042   7.679   8.741 -0.1938  0.0410 -0.1175
  198loPI   C2A 3160   0.760   7.890   8.350 -0.0342 -0.3864 -0.0379
  198loPI   C3A 3161   0.502   7.642   8.082  0.1242 -0.3201 -0.1333
  198loPI   C4A 3162   0.635   7.484   7.736 -0.1029 -0.0929  0.3388
  198loPI   C5A 3163   0.965   7.184   7.735 -0.1656 -0.0731  0.0071
  198loPI   C6A 3164   1.248   6.998   7.952 -0.1975 -0.0332  0.0308
  198loPI   C1B 3165   1.189   8.146   8.778  0.0238 -0.1501  0.1838
  198loPI   C2B 3166   1.256   8.030   8.305 -0.0493  0.0192 -0.4053
  198loPI   C3B 3167   1.348   8.142   7.857  0.1491 -0.3925 -0.1509
  198loPI   C4B 3168   1.210   8.413   7.702 -0.1590  0.0832  0.1430
  199loPI    C1 3169   0.518   6.885   9.781 -0.1461 -0.0736 -0.0120
  199loPI    C2 3170   0.260   7.190   9.751 -0.2166 -0.1191  0.1247
  199loPI    C3 3171   0.426   7.102  10.105  0.0337 -0.0523  0.0258
  199loPI   PO4 3172   0.648   6.923   9.607  0.0510  0.1125  0.3722
  199loPI   GL1 3173   0.612   6.679   9.285 -0.3477  0.0448  0.1453
  199loPI   GL2 3174   0.862   6.398   9.210 -0.0297 -0.2780 -0.1934
  199loPI   C1A 3175   0.635   6.831   8.920  0.0081 -0.0684  0.1336
  199loPI   C2A 3176   0.395   7.009   8.483 -0.0608 -0.1711 -0.1647
  199loPI   C3A 3177   0.601   7.081   8.069 -0.1017  0.4137  0.0232
  199loPI   C4A 3178   0.643   6.783   7.707  0.2866  0.2727  0.5335
  199loPI   C5A 3179   0.509   6.371   7.538 -0.1970  0.1758 -0.0349
  199loPI   C6A 3180   0.225   5.964   7.611 -0.2761 -0.4091 -0.0334
  199loPI   C1B 3181   1.003   6.149   8.839  0.3733  0.1095 -0.2931
  199loPI   C2B 3182   0.904   6.094   8.336  0.3460 -0.0761 -0.1999
  199loPI   C3B 3183   0.982   6.011   7.947 -0.5111  0.0156 -0.2004
  199loPI   C4B 3184   0.652   5.724   7.707  0.2371 -0.0988 -0.2099
  200loPI    C1 3185  10.933  11.046   9.565 -0.0390  0.0904  0.0557
  200loPI    C2 3186  10.867  10.697   9.381 -0.0873  0.0707  0.1103
  200loPI    C3 3187  10.611  10.828   9.660  0.0109  0.0779  0.1978
  200loPI   PO4 3188  10.870  11.200   9.413  0.0832  0.1614 -0.0402
  200loPI   GL1 3189  10.625  11.032   9.089 -0.1654  0.1718 -0.1381
  200loPI   GL2 3190  10.409  10.740   9.197 -0.0348 -0.0385 -0.0137
  200loPI   C1A 3191  10.722  10.643   8.815 -0.0225  0.0251 -0.2661
  200loPI   C2A 3192  10.621  10.445   8.481 -0.0701  0.0811  0.1533
  200loPI   C3A 3193  10.353  10.230   8.262 -0.2055 -0.0256 -0.1844
  200loPI   C4A 3194  10.285  10.124   7.855  0.5218  0.2019 -0.2382
  200loPI   C5A 3195  10.346   9.857   7.565 -0.1418  0.1361 -0.0802
  200loPI   C6A 3196  10.115   9.739   7.286 -0.0653 -0.0571  0.1139
  200loPI   C1B 3197  10.109  11.002   9.006  0.4113 -0.3356  0.3633
  200loPI   C2B 3198   9.925  11.048   8.648  0.1586  0.2968  0.1468
  200loPI   C3B 3199  10.061  11.329   8.304 -0.0601 -0.1785  0.0321
  200loPI   C4B 3200  10.167  11.354   7.918 -0.1880 -0.2344 -0.1431
  201loPI    C1 3201  18.623  13.534  10.335  0.0081 -0.1091  0.0050
  201loPI    C2 3202  18.883  13.248  10.437  0.1125 -0.0013  0.0425
  201loPI    C3 3203  18.873  13.592  10.642 -0.0261  0.0144  0.0102
  201loPI   PO4 3204  18.631  13.573  10.004  0.4140 -0.0195 -0.1389
  201loPI   GL1 3205  18.666  13.539   9.573 -0.0083  0.3702  0.0152
  201loPI   GL2 3206  18.977  13.583   9.535  0.0754 -0.0492  0.0486
  201loPI   C1A 3207  18.549  13.855   9.263  0.2773  0.0349 -0.0516
  201loPI   C2A 3208  18.684  13.860   8.754  0.0159  0.0386  0.0017
  201loPI   C3A 3209  18.795  14.104   8.387  0.0285  0.0072 -0.1178
  201loPI   C4A 3210  18.984  14.145   8.010 -0.1805 -0.0263 -0.2761
  201loPI   C5A 3211  19.082  13.882   7.785 -0.0241  0.0930 -0.1951
  201loPI   C6A 3212  19.254  13.534   7.804  0.2271  0.0370 -0.1700
  201loPI   C1B 3213  18.996  13.527   9.067 -0.0426 -0.2781  0.3612
  201loPI   C2B 3214  19.188  13.613   8.716  0.3288 -0.4519  0.1283
  201loPI   C3B 3215  19.074  13.689   8.309  0.1325  0.1963 -0.1973
  201loPI   C4B 3216  18.701  13.629   8.072  0.0164  0.0784  0.0716
  202loPI    C1 3217  18.667   3.898  10.210  0.1336 -0.4171 -0.0511
  202loPI    C2 3218  18.964   4.061  10.423  0.0627  0.0350 -0.2862
  202loPI    C3 3219  18.740   3.770  10.582  0.2015  0.1548  0.1426
  202loPI   PO4 3220  18.512   4.152  10.086 -0.5730  0.0553 -0.0095
  202loPI   GL1 3221  18.561   4.082   9.652 -0.1574  0.0818  0.0847
  202loPI   GL2 3222  18.951   3.950   9.692 -0.0285 -0.1485  0.0898
  202loPI   C1A 3223  18.659   3.854   9.296  0.1734  0.0175 -0.0295
  202loPI   C2A 3224  18.783   3.670   8.900  0.0628 -0.1428  0.1399
  202loPI   C3A 3225  18.869   3.310   8.713  0.1420 -0.0591  0.0395
  202loPI   C4A 3226  18.729   3.008   8.307  0.0308  0.2042 -0.0093
  202loPI   C5A 3227  18.583   2.926   7.926  0.1809  0.0200 -0.0611
  202loPI   C6A 3228  18.239   2.775   7.724  0.1090  0.0652 -0.3046
  202loPI   C1B 3229  19.137   3.850   9.263 -0.1752  0.2965 -0.1081
  202loPI   C2B 3230  19.291   3.684   8.819  0.0200  0.0734 -0.0408
  202loPI   C3B 3231  19.204   3.764   8.313  0.1054  0.0005 -0.4046
  202loPI   C4B 3232  18.825   3.581   8.213 -0.0812  0.0118  0.2111
  203loPI    C1 3233   1.277  15.401  10.217  0.1135  0.2038 -0.0085
  203loPI    C2 3234   1.451  15.667  10.460  0.2170 -0.1541  0.3198
  203loPI    C3 3235   1.084  15.530  10.542 -0.1458  0.4203 -0.2431
  203loPI   PO4 3236   1.192  15.529  10.001  0.1825 -0.1033  0.2129
  203loPI   GL1 3237   0.986  15.637   9.520 -0.1301 -0.1564  0.1214
  203loPI   GL2 3238   0.953  15.919   9.799 -0.1724 -0.0945 -0.2973
  203loPI   C1A 3239   0.902  15.726   9.156  0.2498 -0.1070 -0.2907
  203loPI   C2A 3240   0.836  15.724   8.739  0.1676  0.2466 -0.1117
  203loPI   C3A 3241   0.713  15.851   8.311  0.0784  0.1041  0.0195
  203loPI   C4A 3242   0.892  15.858   7.883 -0.0677  0.1205  0.3756
  203loPI   C5A 3243   0.720  15.918   7.519 -0.0563  0.2209  0.3407
  203loPI   C6A 3244   0.773  16.066   7.126 -0.1520  0.0719 -0.0435
  203loPI   C1B 3245   0.790  16.110   9.489 -0.1137 -0.2378 -0.1025
  203loPI   C2B 3246   0.758  16.286   9.123 -0.1054 -0.3934  0.0908
  203loPI   C3B 3247   0.766  16.274   8.677  0.2696 -0.2206  0.3545
  203loPI   C4B 3248   0.856  16.340   8.257 -0.0120 -0.1576  0.4995
  204loPI    C1 3249  16.681  15.033  10.102  0.0910  0.0852  0.0769
  204loPI    C2 3250  17.047  14.889  10.177  0.0675  0.0072  0.0418
  204loPI    C3 3251  16.725  14.707  10.330  0.0348 -0.0087 -0.0453
  204loPI   PO4 3252  16.609  15.118   9.867  0.2875  0.3194 -0.0459
  204loPI   GL1 3253  16.638  15.029   9.475 -0.2100  0.1697 -0.1917
  204loPI   GL2 3254  16.313  14.920   9.319  0.0392 -0.2057  0.2764
  204loPI   C1A 3255  16.644  15.224   9.170 -0.0305 -0.0232  0.0688
  204loPI   C2A 3256  16.625  15.539   8.766  0.0321 -0.1218  0.1532
  204loPI   C3A 3257  16.551  15.478   8.340  0.0555  0.0435  0.0025
  204loPI   C4A 3258  16.266  15.564   7.984  0.1820  0.3754  0.2502
  204loPI   C5A 3259  16.288  15.779   7.691 -0.2372 -0.2992 -0.0018
  204loPI   C6A 3260  16.222  16.063   7.327  0.1384  0.1458 -0.0003
  204loPI   C1B 3261  16.110  15.119   8.879  0.0758  0.0106 -0.0063
  204loPI   C2B 3262  16.085  15.570   8.604 -0.3174  0.1514  0.2344
  204loPI   C3B 3263  15.938  15.740   8.323 -0.1536  0.1021 -0.0831
  204loPI   C4B 3264  15.882  15.843   8.029  0.1175  0.2241  0.1183
  205loPI    C1 3265  17.125  14.437   9.456  0.5388 -0.0876  0.0287
  205loPI    C2 3266  16.971  14.290   9.795  0.0140 -0.1529 -0.2290
  205loPI    C3 3267  16.913  14.674   9.698 -0.1510 -0.2221 -0.4140
  205loPI   PO4 3268  17.369  14.284   9.543 -0.1879  0.0371  0.1216
  205loPI   GL1 3269  17.829  14.402   9.379 -0.0740  0.1925 -0.0506
  205loPI   GL2 3270  18.097  14.423   9.533 -0.1084 -0.1045 -0.0959
  205loPI   C1A 3271  17.832  14.431   8.903  0.1265 -0.1283 -0.0332
  205loPI   C2A 3272  17.934  14.612   8.471  0.1454 -0.0360  0.3542
  205loPI   C3A 3273  18.085  14.703   8.048  0.0555  0.1193 -0.0693
  205loPI   C4A 3274  18.357  14.815   7.779  0.0889  0.2167  0.3752
  205loPI   C5A 3275  18.547  14.562   7.593 -0.0992  0.1092  0.0507
  205loPI   C6A 3276  18.810  14.218   7.456 -0.1246 -0.1757  0.0415
  205loPI   C1B 3277  18.297  14.268   9.219 -0.0691 -0.1561  0.1926
  205loPI   C2B 3278  18.698  14.313   9.031 -0.1829 -0.1557  0.0438
  205loPI   C3B 3279  18.900  14.506   8.701  0.0394  0.0804 -0.1118
  205loPI   C4B 3280  19.210  14.663   8.389 -0.2601  0.0646  0.0964
  206loPI    C1 3281  17.168  10.992   9.777 -0.1076  0.1744 -0.1258
  206loPI    C2 3282  16.879  10.748   9.909  0.2927 -0.1291  0.2205
  206loPI    C3 3283  16.797  11.132   9.828 -0.2734 -0.2893 -0.0122
  206loPI   PO4 3284  17.305  10.840   9.570 -0.0897  0.1405  0.0200
  206loPI   GL1 3285  17.021  10.530   9.274  0.3762 -0.1760  0.1914
  206loPI   GL2 3286  17.008  10.908   9.160  0.1170 -0.1473  0.3805
  206loPI   C1A 3287  16.970  10.145   9.288  0.0509  0.1383  0.0682
  206loPI   C2A 3288  16.838  10.111   8.884 -0.0035  0.2408 -0.2042
  206loPI   C3A 3289  16.825  10.244   8.434 -0.2183  0.3181 -0.0588
  206loPI   C4A 3290  17.063  10.294   8.058 -0.3814  0.0352 -0.0897
  206loPI   C5A 3291  17.381  10.112   7.838 -0.0221  0.1751  0.2183
  206loPI   C6A 3292  17.736  10.205   7.650 -0.1183  0.0171 -0.1808
  206loPI   C1B 3293  17.187  10.803   8.818  0.1655  0.1418 -0.2202
  206loPI   C2B 3294  17.314  10.719   8.420 -0.1545 -0.0818  0.1381
  206loPI   C3B 3295  17.513  10.614   7.925 -0.0458  0.1249 -0.1823
  206loPI   C4B 3296  17.629  10.650   7.488 -0.2281 -0.2267 -0.0113
  207loPI    C1 3297   2.119   8.616   9.683  0.0819 -0.0568  0.1408
  207loPI    C2 3298   1.844   8.511   9.953 -0.0063  0.0186  0.0809
  207loPI    C3 3299   2.164   8.723  10.065  0.1089 -0.2044  0.1794
  207loPI   PO4 3300   1.986   8.671   9.487  0.1103  0.1089 -0.1134
  207loPI   GL1 3301   1.735   8.841   9.175  0.0743 -0.3178 -0.4678
  207loPI   GL2 3302   2.059   8.705   9.015 -0.3456  0.2994 -0.1667
  207loPI   C1A 3303   1.634   8.603   8.860 -0.2526  0.2751  0.2523
  207loPI   C2A 3304   1.547   8.382   8.536 -0.0672  0.2623 -0.2678
  207loPI   C3A 3305   1.399   8.485   8.226  0.1737  0.0307  0.3527
  207loPI   C4A 3306   1.465   8.747   7.937  0.3062  0.0226  0.2085
  207loPI   C5A 3307   1.509   8.794   7.522 -0.3478  0.0435  0.3142
  207loPI   C6A 3308   1.237   8.874   7.265 -0.2076 -0.1470 -0.0055
  207loPI   C1B 3309   2.057   8.508   8.651 -0.1367 -0.0217  0.1353
  207loPI   C2B 3310   1.899   8.351   8.164  0.1716 -0.3785 -0.1161
  207loPI   C3B 3311   1.740   8.352   7.656  0.0939 -0.0155 -0.0067
  207loPI   C4B 3312   1.858   8.189   7.297 -0.0052  0.2169  0.4029
  208loPI    C1 3313  18.692   0.721  10.467  0.1594 -0.1402  0.0224
  208loPI    C2 3314  18.472   0.411  10.591  0.0679 -0.1237 -0.0968
  208loPI    C3 3315  18.754   0.563  10.829  0.0181 -0.2088  0.0177
  208loPI   PO4 3316  18.677   0.812  10.250  0.0949 -0.0657 -0.1075
  208loPI   GL1 3317  18.599   0.937   9.873  0.3316  0.0179  0.2396
  208loPI   GL2 3318  18.214   0.935   9.880 -0.2601  0.1485  0.4657
  208loPI   C1A 3319  18.574   0.654   9.463 -0.0190  0.1314 -0.1630
  208loPI   C2A 3320  18.668   0.438   9.125  0.3377  0.0785  0.0861
  208loPI   C3A 3321  18.844   0.539   8.799  0.3713  0.1288 -0.1192
  208loPI   C4A 3322  18.922   0.509   8.433 -0.0121 -0.0300  0.2246
  208loPI   C5A 3323  18.710   0.413   8.019 -0.0480 -0.1712 -0.0378
  208loPI   C6A 3324  18.413   0.497   7.601 -0.1307  0.1414 -0.0973
  208loPI   C1B 3325  18.079   0.774   9.454 -0.2041 -0.1826 -0.0876
  208loPI   C2B 3326  18.159   0.598   9.109 -0.2239  0.2236  0.0273
  208loPI   C3B 3327  17.987   0.388   8.749  0.3053 -0.0170  0.0276
  208loPI   C4B 3328  17.600   0.136   8.717 -0.0299  0.3088 -0.3252
  209loPI    C1 3329   1.797   2.406   9.819  0.3185  0.0636  0.1032
  209loPI    C2 3330   1.563   2.237  10.096  0.2675  0.0525  0.0536
  209loPI    C3 3331   1.899   2.426  10.205  0.1814  0.1599  0.1349
  209loPI   PO4 3332   1.691   2.278   9.579  0.0068  0.1477  0.0563
  209loPI   GL1 3333   1.676   2.233   9.138  0.1609  0.0944 -0.2337
  209loPI   GL2 3334   1.786   2.001   9.138 -0.1076  0.1396  0.0638
  209loPI   C1A 3335   1.473   2.290   8.826 -0.0354  0.1518  0.4138
  209loPI   C2A 3336   1.414   2.485   8.406  0.0931 -0.1277  0.0227
  209loPI   C3A 3337   1.596   2.708   8.059  0.1212 -0.0431 -0.0480
  209loPI   C4A 3338   1.515   2.830   7.674 -0.2675 -0.0483 -0.0354
  209loPI   C5A 3339   1.476   2.626   7.290 -0.0328  0.1206  0.1916
  209loPI   C6A 3340   1.833   2.197   7.201  0.1047  0.0250  0.2379
  209loPI   C1B 3341   1.808   1.710   8.863  0.1358  0.3311  0.0320
  209loPI   C2B 3342   1.852   1.517   8.531 -0.0484  0.1532 -0.1673
  209loPI   C3B 3343   1.822   1.548   8.117  0.0600 -0.1801 -0.0726
  209loPI   C4B 3344   1.816   1.283   7.709  0.0997 -0.0062 -0.1249
  210loPI    C1 3345   7.701   7.439   9.512 -0.0858 -0.0272 -0.1103
  210loPI    C2 3346   8.026   7.427   9.746 -0.0989 -0.0745 -0.0941
  210loPI    C3 3347   7.877   7.779   9.627 -0.2487 -0.0398  0.1876
  210loPI   PO4 3348   7.603   7.256   9.337  0.3552  0.0250 -0.1575
  210loPI   GL1 3349   7.651   7.412   8.974 -0.0232  0.0215 -0.0559
  210loPI   GL2 3350   7.317   7.244   8.944  0.0366  0.0086 -0.3372
  210loPI   C1A 3351   8.018   7.506   8.788 -0.0312  0.0579  0.2037
  210loPI   C2A 3352   8.247   7.471   8.456 -0.0341 -0.0882  0.2868
  210loPI   C3A 3353   8.239   7.548   8.037  0.4297  0.1087 -0.1241
  210loPI   C4A 3354   8.325   7.401   7.671 -0.1841 -0.2838 -0.0237
  210loPI   C5A 3355   8.178   7.411   7.306  0.0646  0.3453  0.3176
  210loPI   C6A 3356   7.811   7.323   6.989 -0.0193 -0.2280  0.4197
  210loPI   C1B 3357   7.394   7.354   8.409  0.3081  0.1495 -0.0086
  210loPI   C2B 3358   7.298   7.212   7.932 -0.2282  0.1547  0.3754
  210loPI   C3B 3359   7.295   6.863   7.564 -0.1304  0.0811 -0.0508
  210loPI   C4B 3360   7.328   6.461   7.412 -0.0281  0.0233  0.4214
  211loPI    C1 3361   2.898  15.143  10.296  0.0177 -0.1722  0.4693
  211loPI    C2 3362   2.847  14.840  10.039 -0.1797  0.3492 -0.1312
  211loPI    C3 3363   2.650  14.843  10.387 -0.0198 -0.2997 -0.0236
  211loPI   PO4 3364   2.899  15.338  10.164  0.1988 -0.0972 -0.3402
  211loPI   GL1 3365   2.888  15.545   9.793  0.1193  0.0607  0.1243
  211loPI   GL2 3366   3.216  15.239   9.838  0.4065  0.3473  0.4787
  211loPI   C1A 3367   3.062  15.270   9.347 -0.1309 -0.1897  0.1002
  211loPI   C2A 3368   3.159  15.369   8.863  0.1956  0.1549 -0.0394
  211loPI   C3A 3369   3.340  15.214   8.551  0.0140 -0.1258 -0.1382
  211loPI   C4A 3370   3.090  15.033   8.276  0.0972 -0.4144  0.3460
  211loPI   C5A 3371   3.018  14.962   7.800 -0.1124 -0.3212  0.3237
  211loPI   C6A 3372   3.067  15.119   7.358  0.0855  0.0848 -0.1116
  211loPI   C1B 3373   3.333  15.573   9.682 -0.3025 -0.3263  0.0420
  211loPI   C2B 3374   3.402  15.628   9.300 -0.3106  0.1636 -0.0198
  211loPI   C3B 3375   3.215  15.912   9.004 -0.0551 -0.0852  0.0607
  211loPI   C4B 3376   3.046  15.889   8.603  0.3820  0.0075 -0.0026
  212loPI    C1 3377   3.748   7.363   9.621  0.0622 -0.0921 -0.0095
  212loPI    C2 3378   3.577   7.052   9.806  0.0889 -0.0210  0.1364
  212loPI    C3 3379   3.847   7.275   9.999 -0.1169  0.2473  0.1207
  212loPI   PO4 3380   3.831   7.294   9.412 -0.3092 -0.2082  0.1263
  212loPI   GL1 3381   3.662   7.405   9.003  0.1483  0.1797  0.1200
  212loPI   GL2 3382   3.446   7.188   8.891 -0.2636 -0.0816  0.1844
  212loPI   C1A 3383   3.829   7.594   8.625  0.0551 -0.0801  0.4889
  212loPI   C2A 3384   4.023   7.654   8.375  0.0362  0.1131  0.0330
  212loPI   C3A 3385   4.019   8.003   8.034  0.1175 -0.2370 -0.1064
  212loPI   C4A 3386   4.124   8.178   7.814  0.2347  0.2253  0.3395
  212loPI   C5A 3387   4.178   8.547   7.603 -0.1545 -0.0480 -0.2656
  212loPI   C6A 3388   4.377   8.967   7.831 -0.0856  0.1242 -0.1390
  212loPI   C1B 3389   3.305   7.392   8.597 -0.1087  0.1342  0.0145
  212loPI   C2B 3390   3.331   7.807   8.462 -0.0747 -0.3811 -0.1081
  212loPI   C3B 3391   3.669   8.102   8.327 -0.1361  0.2367  0.0380
  212loPI   C4B 3392   3.725   8.518   8.435 -0.2969  0.2281  0.0293
  213loPI    C1 3393   6.335  18.853   9.846 -0.1018  0.0006  0.0439
  213loPI    C2 3394   6.204  18.564  10.089 -0.0895 -0.0412  0.0009
  213loPI    C3 3395   6.117  18.946  10.168  0.1703 -0.0281  0.2403
  213loPI   PO4 3396   6.239  18.694   9.599  0.2488 -0.3688 -0.2205
  213loPI   GL1 3397   6.290  18.874   9.110 -0.2953  0.1266  0.0147
  213loPI   GL2 3398   6.005  18.921   8.859  0.1247  0.3296  0.0428
  213loPI   C1A 3399   6.306  18.551   8.793 -0.1626 -0.1932  0.0921
  213loPI   C2A 3400   6.421  18.381   8.359 -0.2474 -0.0222  0.3365
  213loPI   C3A 3401   6.446  18.247   7.960 -0.1859 -0.0699  0.0344
  213loPI   C4A 3402   6.707  18.313   7.594  0.2978 -0.0099  0.0709
  213loPI   C5A 3403   6.695  18.282   7.039 -0.2247  0.2998 -0.0859
  213loPI   C6A 3404   6.695  17.966   6.643 -0.2133 -0.1016  0.0606
  213loPI   C1B 3405   6.047  18.860   8.519  0.3440  0.2771  0.2334
  213loPI   C2B 3406   5.888  19.041   8.115 -0.0928 -0.2780  0.0335
  213loPI   C3B 3407   5.777  19.220   7.654 -0.1193  0.0919 -0.0533
  213loPI   C4B 3408   5.977  19.252   7.277 -0.1274 -0.4025 -0.0523
  214loPI    C1 3409  18.515   7.046  10.007  0.0048 -0.0167  0.1061
  214loPI    C2 3410  18.837   7.200  10.189 -0.0179  0.0758  0.0681
  214loPI    C3 3411  18.758   6.809  10.219  0.1162  0.0470  0.0505
  214loPI   PO4 3412  18.515   7.278   9.798 -0.1956  0.0064 -0.1914
  214loPI   GL1 3413  18.440   7.473   9.380  0.2722 -0.0854 -0.3558
  214loPI   GL2 3414  18.679   7.230   9.322 -0.1574  0.2196 -0.0964
  214loPI   C1A 3415  18.271   7.639   9.004 -0.0537 -0.0386  0.1993
  214loPI   C2A 3416  18.401   7.798   8.534 -0.0383  0.3091 -0.0447
  214loPI   C3A 3417  18.455   7.736   8.205 -0.3598 -0.1041 -0.0394
  214loPI   C4A 3418  18.361   7.925   7.853 -0.2569 -0.0240 -0.0553
  214loPI   C5A 3419  17.914   7.898   7.840 -0.4490  0.0560 -0.0872
  214loPI   C6A 3420  17.756   7.999   7.471 -0.2879 -0.2254 -0.4406
  214loPI   C1B 3421  19.051   6.937   9.283  0.0855  0.1454  0.2203
  214loPI   C2B 3422  19.105   6.520   9.147 -0.0265  0.2808  0.0048
  214loPI   C3B 3423  19.213   6.179   8.910 -0.1084  0.1273 -0.0308
  214loPI   C4B 3424  19.396   5.754   9.022  0.2818  0.3706 -0.1052
  215loPI    C1 3425   5.880   0.709   9.647 -0.0390  0.0394  0.0666
  215loPI    C2 3426   5.858   0.660  10.044 -0.0722  0.1771  0.0825
  215loPI    C3 3427   6.085   0.951   9.891 -0.0180  0.0912 -0.0022
  215loPI   PO4 3428   5.669   0.696   9.456  0.3068  0.0070  0.0236
  215loPI   GL1 3429   5.783   0.619   9.074  0.0241  0.1547 -0.2252
  215loPI   GL2 3430   5.957   0.733   8.907 -0.2774  0.1014 -0.0659
  215loPI   C1A 3431   5.425   0.484   8.780 -0.3382 -0.1364 -0.0887
  215loPI   C2A 3432   5.273   0.525   8.368 -0.0848 -0.0948  0.0277
  215loPI   C3A 3433   4.859   0.495   8.289 -0.0729  0.3424  0.1307
  215loPI   C4A 3434   4.558   0.661   7.937 -0.1281  0.0311  0.1336
  215loPI   C5A 3435   4.307   0.485   7.676  0.0997 -0.0927 -0.0860
  215loPI   C6A 3436   4.298   0.528   7.313  0.3295 -0.2220 -0.5598
  215loPI   C1B 3437   5.891   0.609   8.562  0.2105 -0.1984 -0.0942
  215loPI   C2B 3438   5.919   0.827   8.215 -0.2326  0.0452  0.2479
  215loPI   C3B 3439   6.039   0.995   7.799 -0.0539 -0.3561  0.0574
  215loPI   C4B 3440   6.429   0.925   7.378 -0.0550 -0.1142  0.0750
  216loPI    C1 3441   7.227  19.083   9.627 -0.1894 -0.0416  0.0370
  216loPI    C2 3442   6.855  19.205   9.543 -0.1109  0.0348 -0.2093
  216loPI    C3 3443   7.053  19.364   9.852 -0.3106 -0.0643 -0.0269
  216loPI   PO4 3444   7.309  18.922   9.328 -0.0549 -0.1531 -0.1570
  216loPI   GL1 3445   7.140  18.838   8.906 -0.2725 -0.0964  0.1428
  216loPI   GL2 3446   6.812  18.829   8.975  0.0466 -0.0325 -0.0240
  216loPI   C1A 3447   7.068  18.931   8.515  0.0788  0.0213  0.2400
  216loPI   C2A 3448   7.163  19.001   7.984 -0.2234 -0.0836  0.0605
  216loPI   C3A 3449   7.249  19.264   7.756  0.1161 -0.1759  0.1250
  216loPI   C4A 3450   7.092  19.524   7.430 -0.1653  0.2382  0.2405
  216loPI   C5A 3451   6.741  19.481   7.172 -0.1971 -0.1867  0.3565
  216loPI   C6A 3452   6.403  19.208   6.910  0.1132 -0.3295 -0.0731
  216loPI   C1B 3453   6.589  18.928   8.631 -0.2998 -0.0052  0.2948
  216loPI   C2B 3454   6.416  18.894   8.234 -0.1397 -0.0093  0.1489
  216loPI   C3B 3455   6.168  18.764   7.844  0.1856 -0.1422 -0.0555
  216loPI   C4B 3456   5.878  18.704   7.492 -0.0084 -0.1383 -0.0306
  217loPI    C1 3457  15.799   0.110  10.147 -0.0593 -0.3007  0.1422
  217loPI    C2 3458  15.530   0.044  10.435 -0.1027 -0.0486  0.1623
  217loPI    C3 3459  15.921   0.032  10.519 -0.1158  0.0503  0.2380
  217loPI   PO4 3460  15.697  -0.111   9.971  0.1699  0.3469  0.2608
  217loPI   GL1 3461  15.425  -0.033   9.719 -0.0145 -0.0201  0.0857
  217loPI   GL2 3462  15.390   0.205   9.500  0.1079 -0.1287 -0.4528
  217loPI   C1A 3463  15.721  -0.287   9.367  0.0279  0.1195  0.1695
  217loPI   C2A 3464  15.889  -0.256   9.037  0.1134 -0.0163 -0.1957
  217loPI   C3A 3465  15.853  -0.235   8.531  0.1302  0.0802 -0.1559
  217loPI   C4A 3466  16.117  -0.115   8.207 -0.1603  0.0072  0.3557
  217loPI   C5A 3467  16.377  -0.389   7.935 -0.1643  0.1696 -0.1411
  217loPI   C6A 3468  16.465  -0.637   7.642  0.1551 -0.2431 -0.0001
  217loPI   C1B 3469  15.483   0.093   9.153  0.2144 -0.0844 -0.1620
  217loPI   C2B 3470  15.479  -0.118   8.873 -0.2550  0.0348  0.0518
  217loPI   C3B 3471  15.382  -0.149   8.389  0.0883 -0.1512  0.0414
  217loPI   C4B 3472  15.553   0.086   7.981  0.3764  0.0423 -0.3296
  218loPI    C1 3473   0.631  10.747   9.868  0.0220 -0.0566  0.1686
  218loPI    C2 3474   0.581  10.363   9.966  0.1475 -0.0581  0.2291
  218loPI    C3 3475   0.929  10.544  10.040  0.1389  0.0273  0.0668
  218loPI   PO4 3476   0.516  10.766   9.555 -0.1771 -0.3247 -0.2298
  218loPI   GL1 3477   0.689  10.784   9.142  0.3341 -0.1249  0.1957
  218loPI   GL2 3478   0.671  11.107   9.057  0.0292 -0.3453  0.0431
  218loPI   C1A 3479   0.765  10.649   8.718  0.0150  0.4685  0.3661
  218loPI   C2A 3480   0.560  10.446   8.373 -0.1038 -0.1422 -0.0769
  218loPI   C3A 3481   0.619  10.180   8.102 -0.0448 -0.1423  0.1038
  218loPI   C4A 3482   0.674   9.850   7.852  0.1580 -0.1725 -0.0311
  218loPI   C5A 3483   0.923   9.529   7.556  0.1189 -0.2434 -0.0980
  218loPI   C6A 3484   1.388   9.315   7.459  0.1787 -0.1347  0.5783
  218loPI   C1B 3485   0.441  11.018   8.748 -0.0440 -0.0750  0.2227
  218loPI   C2B 3486   0.438  10.943   8.355  0.1515  0.0411  0.0737
  218loPI   C3B 3487   0.574  10.726   7.958 -0.0138 -0.0731  0.0805
  218loPI   C4B 3488   0.613  10.872   7.546  0.0193 -0.1178  0.1932
  219loPI    C1 3489  16.230   0.437  10.429  0.1856 -0.0372  0.0580
  219loPI    C2 3490  16.068   0.408  10.794  0.0665 -0.4941 -0.0257
  219loPI    C3 3491  16.380   0.650  10.733 -0.1066 -0.1774  0.3060
  219loPI   PO4 3492  16.335   0.275  10.299  0.1067  0.1964 -0.2512
  219loPI   GL1 3493  16.354   0.216   9.789  0.0829 -0.2252  0.3753
  219loPI   GL2 3494  16.112   0.021   9.689  0.2776  0.0116 -0.5301
  219loPI   C1A 3495  16.506   0.169   9.393 -0.2599 -0.3910 -0.1154
  219loPI   C2A 3496  16.770   0.440   9.112 -0.0226  0.0096 -0.2411
  219loPI   C3A 3497  16.608   0.731   8.828 -0.2063 -0.1199  0.0230
  219loPI   C4A 3498  16.654   0.981   8.505  0.0378  0.0262  0.0329
  219loPI   C5A 3499  16.877   0.796   8.148  0.0898 -0.3491  0.0247
  219loPI   C6A 3500  16.713   0.883   7.773  0.0151 -0.0749 -0.1394
  219loPI   C1B 3501  16.037   0.219   9.374 -0.1632 -0.4425  0.1879
  219loPI   C2B 3502  16.201   0.284   8.923 -0.1941  0.2400 -0.0479
  219loPI   C3B 3503  16.492   0.251   8.728 -0.0836 -0.2152 -0.1342
  219loPI   C4B 3504  16.772   0.458   8.490  0.1203  0.0250  0.1827
  220loPI    C1 3505  17.622   6.811  10.638  0.2633  0.0949  0.0379
  220loPI    C2 3506  17.842   7.133  10.730  0.0342  0.1646  0.3597
  220loPI    C3 3507  17.536   7.025  10.965 -0.2178  0.0125 -0.0274
  220loPI   PO4 3508  17.444   6.821  10.377 -0.0481 -0.1531  0.3532
  220loPI   GL1 3509  17.260   6.759   9.944  0.0733  0.1868 -0.3337
  220loPI   GL2 3510  17.161   7.066  10.011 -0.0338 -0.0272 -0.0749
  220loPI   C1A 3511  17.425   6.601   9.556  0.0141 -0.1961 -0.1287
  220loPI   C2A 3512  17.389   6.640   9.156 -0.4268  0.2151  0.0139
  220loPI   C3A 3513  17.454   6.771   8.667 -0.0058 -0.1201  0.1949
  220loPI   C4A 3514  17.482   6.862   8.211 -0.1552 -0.1046 -0.1323
  220loPI   C5A 3515  17.532   6.750   7.803 -0.2006 -0.1352 -0.1501
  220loPI   C6A 3516  17.643   6.724   7.362  0.1488 -0.2445  0.2081
  220loPI   C1B 3517  17.005   7.349   9.729 -0.0373 -0.0437  0.4867
  220loPI   C2B 3518  16.779   7.476   9.368  0.1174 -0.0243 -0.2611
  220loPI   C3B 3519  16.612   7.602   8.997  0.3153 -0.1613 -0.1487
  220loPI   C4B 3520  16.392   7.605   8.564  0.1098 -0.1831 -0.0937
  221loPI    C1 3521  11.904  17.458   9.792  0.0278  0.0156  0.2849
  221loPI    C2 3522  11.513  17.517   9.732  0.0629  0.0199  0.0502
  221loPI    C3 3523  11.639  17.192   9.928 -0.0363 -0.2328 -0.2934
  221loPI   PO4 3524  12.018  17.581   9.569 -0.0807  0.0208 -0.2216
  221loPI   GL1 3525  11.865  17.810   9.171 -0.0509 -0.1854 -0.2456
  221loPI   GL2 3526  11.636  17.913   9.120 -0.1882 -0.0498 -0.0905
  221loPI   C1A 3527  12.084  17.698   8.872 -0.1886 -0.0987  0.1098
  221loPI   C2A 3528  12.045  17.675   8.491  0.3618  0.3132  0.0182
  221loPI   C3A 3529  12.186  17.669   8.109 -0.2064  0.0625  0.0642
  221loPI   C4A 3530  12.139  17.921   7.747 -0.0595 -0.0167 -0.0243
  221loPI   C5A 3531  11.999  17.940   7.306 -0.2294 -0.1373  0.1504
  221loPI   C6A 3532  11.964  17.683   6.938 -0.0980  0.2574  0.2589
  221loPI   C1B 3533  11.594  17.852   8.715 -0.1248 -0.3646 -0.1335
  221loPI   C2B 3534  11.303  17.918   8.315  0.2239  0.5009 -0.1338
  221loPI   C3B 3535  11.163  17.941   7.902 -0.0668  0.2086  0.3351
  221loPI   C4B 3536  11.217  18.136   7.619 -0.0136  0.0788 -0.2087
  222loPI    C1 3537   6.742  16.822   9.708  0.1697  0.0387  0.1247
  222loPI    C2 3538   6.979  16.888   9.392 -0.0913  0.2522 -0.0305
  222loPI    C3 3539   7.070  17.048   9.747  0.3351 -0.1880  0.0683
  222loPI   PO4 3540   6.466  16.756   9.535 -0.0936  0.1140 -0.1398
  222loPI   GL1 3541   6.237  16.555   9.043  0.2407  0.2282 -0.2157
  222loPI   GL2 3542   5.903  16.600   8.929  0.3140  0.2754 -0.1433
  222loPI   C1A 3543   6.270  16.439   8.678 -0.1780  0.0217  0.1108
  222loPI   C2A 3544   6.397  16.274   8.344  0.2483 -0.0817  0.0967
  222loPI   C3A 3545   6.237  16.216   7.975  0.0572  0.5580 -0.0029
  222loPI   C4A 3546   6.048  16.329   7.548  0.0746 -0.0890  0.0608
  222loPI   C5A 3547   6.084  16.417   7.186  0.1650  0.2779 -0.0755
  222loPI   C6A 3548   6.437  16.363   6.930  0.0656  0.0476 -0.1951
  222loPI   C1B 3549   5.691  16.475   8.626  0.2475 -0.1122 -0.2138
  222loPI   C2B 3550   5.849  16.265   8.304 -0.0879  0.3558  0.4524
  222loPI   C3B 3551   5.728  16.034   7.945 -0.2066 -0.0023  0.0564
  222loPI   C4B 3552   5.834  15.818   7.430 -0.0819 -0.0927 -0.0345
  223loPI    C1 3553   0.722   0.268  10.377 -0.0796 -0.0220  0.0416
  223loPI    C2 3554   1.101   0.266  10.503  0.0889  0.0255 -0.4440
  223loPI    C3 3555   0.814   0.106  10.731  0.3316  0.3612  0.1186
  223loPI   PO4 3556   0.736   0.292  10.089 -0.0645  0.0662 -0.2007
  223loPI   GL1 3557   0.830   0.388   9.692 -0.0161 -0.0526  0.0232
  223loPI   GL2 3558   1.165   0.357   9.851  0.1264 -0.2860  0.2125
  223loPI   C1A 3559   0.907   0.511   9.275 -0.0219 -0.1411 -0.1782
  223loPI   C2A 3560   0.883   0.588   8.888 -0.1087 -0.0170 -0.0748
  223loPI   C3A 3561   0.870   0.532   8.514  0.0682  0.0090  0.0826
  223loPI   C4A 3562   0.801   0.512   8.138 -0.0144  0.0075 -0.3587
  223loPI   C5A 3563   0.700   0.626   7.683  0.1783 -0.1048 -0.0714
  223loPI   C6A 3564   0.311   0.834   7.571 -0.1404  0.0972 -0.0244
  223loPI   C1B 3565   1.322   0.318   9.402  0.0999  0.0073  0.1644
  223loPI   C2B 3566   1.562   0.543   9.083 -0.0332  0.1781 -0.2201
  223loPI   C3B 3567   1.337   0.604   8.650 -0.1369  0.0231 -0.0994
  223loPI   C4B 3568   1.342   0.545   8.185 -0.0022  0.1197 -0.1414
  224loPI    C1 3569   0.977  14.274  10.299  0.1170 -0.2477  0.0708
  224loPI    C2 3570   0.897  14.544  10.583 -0.2096 -0.0769 -0.1757
  224loPI    C3 3571   0.991  14.168  10.684  0.0711  0.0790  0.1652
  224loPI   PO4 3572   0.725  14.292  10.079  0.4786  0.0308  0.1295
  224loPI   GL1 3573   0.920  14.430   9.623  0.0357  0.0751 -0.1771
  224loPI   GL2 3574   0.532  14.333   9.606 -0.1650  0.1689  0.0835
  224loPI   C1A 3575   1.010  14.726   9.270 -0.1261 -0.1018 -0.1890
  224loPI   C2A 3576   1.115  14.933   8.819 -0.1205  0.1642 -0.1028
  224loPI   C3A 3577   1.393  14.759   8.445  0.0412 -0.2216  0.2658
  224loPI   C4A 3578   1.552  14.472   8.079 -0.0355  0.1481 -0.0578
  224loPI   C5A 3579   1.747  14.187   7.761  0.3003  0.1085 -0.0407
  224loPI   C6A 3580   1.617  13.938   7.389  0.3474 -0.1192  0.3403
  224loPI   C1B 3581   0.388  14.201   9.240 -0.1689 -0.2346  0.1218
  224loPI   C2B 3582   0.236  14.509   8.858  0.3734  0.4866 -0.1816
  224loPI   C3B 3583   0.466  14.619   8.483 -0.1176  0.0160  0.1576
  224loPI   C4B 3584   0.901  14.734   8.261  0.1895  0.0925  0.1917
  225loPI    C1 3585   5.704   1.671   9.652 -0.0779  0.3578 -0.0434
  225loPI    C2 3586   5.380   1.516   9.828  0.0335 -0.0624 -0.1961
  225loPI    C3 3587   5.624   1.756  10.035 -0.1502 -0.0784  0.0438
  225loPI   PO4 3588   5.610   1.777   9.494 -0.1747  0.1150  0.2711
  225loPI   GL1 3589   5.761   1.582   9.103 -0.2892 -0.4097 -0.0115
  225loPI   GL2 3590   5.997   1.756   9.098  0.0966  0.5346  0.1609
  225loPI   C1A 3591   5.923   1.253   8.828  0.0233 -0.1140 -0.2472
  225loPI   C2A 3592   5.877   1.342   8.435 -0.3144 -0.2258 -0.2293
  225loPI   C3A 3593   5.693   1.373   8.085  0.0341  0.2559  0.2854
  225loPI   C4A 3594   5.562   1.247   7.696 -0.1488  0.0538  0.1372
  225loPI   C5A 3595   5.608   1.424   7.307 -0.2518 -0.4201  0.2215
  225loPI   C6A 3596   5.781   1.562   7.022 -0.1582  0.1204  0.0692
  225loPI   C1B 3597   5.729   1.781   8.668 -0.2247 -0.3084  0.1235
  225loPI   C2B 3598   5.402   1.930   8.233 -0.0769 -0.3362  0.0127
  225loPI   C3B 3599   5.451   1.718   7.875 -0.1449  0.0400  0.3157
  225loPI   C4B 3600   5.189   1.868   7.562  0.0685  0.0434 -0.1228
  226loPI    C1 3601  16.883  15.619  10.615  0.1552  0.0893  0.0664
  226loPI    C2 3602  16.763  15.250  10.521 -0.0335  0.2194 -0.2187
  226loPI    C3 3603  16.796  15.357  10.904 -0.1220 -0.0456 -0.1345
  226loPI   PO4 3604  16.775  15.715  10.430 -0.1328 -0.2561  0.1465
  226loPI   GL1 3605  16.810  15.846   9.985 -0.2207  0.4708  0.2629
  226loPI   GL2 3606  16.469  16.060   9.839  0.2753 -0.1827 -0.2441
  226loPI   C1A 3607  17.024  16.077   9.786 -0.1688  0.1287  0.2021
  226loPI   C2A 3608  17.216  16.311   9.408 -0.1672 -0.0481 -0.0649
  226loPI   C3A 3609  17.212  16.280   8.966 -0.2375  0.1038  0.0483
  226loPI   C4A 3610  17.096  16.091   8.703 -0.1294  0.0564  0.3351
  226loPI   C5A 3611  16.830  15.945   8.374 -0.1146  0.2413 -0.3190
  226loPI   C6A 3612  16.721  15.930   7.880  0.1271 -0.3074  0.0263
  226loPI   C1B 3613  16.678  16.442   9.701  0.2262 -0.2445 -0.2916
  226loPI   C2B 3614  16.736  16.709   9.332  0.0662  0.0892 -0.2733
  226loPI   C3B 3615  16.555  16.763   9.037  0.1518  0.3385  0.1308
  226loPI   C4B 3616  16.199  16.544   8.919 -0.0903 -0.0467  0.1777
  227loPI    C1 3617   5.793  17.871   9.677 -0.2487 -0.1984  0.0754
  227loPI    C2 3618   6.069  17.694   9.907  0.0210 -0.0437 -0.1230
  227loPI    C3 3619   5.834  17.979  10.060  0.0794 -0.0639  0.0055
  227loPI   PO4 3620   5.625  17.755   9.552 -0.1155 -0.2524 -0.1940
  227loPI   GL1 3621   5.622  17.735   9.119 -0.0311 -0.3219 -0.0088
  227loPI   GL2 3622   5.254  17.884   9.047 -0.1341 -0.0569  0.0668
  227loPI   C1A 3623   5.701  17.886   8.744  0.0195 -0.0119 -0.0441
  227loPI   C2A 3624   5.687  17.909   8.330  0.2244 -0.1545 -0.0869
  227loPI   C3A 3625   5.597  17.877   7.875 -0.0184 -0.2894 -0.0537
  227loPI   C4A 3626   5.786  17.909   7.465 -0.2516 -0.1266  0.0457
  227loPI   C5A 3627   5.863  17.940   7.021 -0.0716 -0.7294 -0.0453
  227loPI   C6A 3628   6.022  18.102   6.631 -0.0585  0.1225 -0.0400
  227loPI   C1B 3629   5.231  17.848   8.589  0.1338 -0.0037  0.1626
  227loPI   C2B 3630   5.132  17.873   8.077 -0.0702  0.2845  0.1605
  227loPI   C3B 3631   5.155  17.819   7.646  0.0898  0.2028  0.2756
  227loPI   C4B 3632   4.814  17.823   7.346  0.1074 -0.1059 -0.1158
  228loPI    C1 3633   1.700   3.667   9.961  0.0517 -0.0530  0.1239
  228loPI    C2 3634   1.365   3.455  10.013  0.1314 -0.2542 -0.1569
  228loPI    C3 3635   1.701   3.347  10.202  0.0710 -0.1272  0.0261
  228loPI   PO4 3636   1.795   3.630   9.673 -0.1040 -0.2506 -0.0772
  228loPI   GL1 3637   1.501   3.591   9.343 -0.2475 -0.0502 -0.2749
  228loPI   GL2 3638   1.215   3.562   9.551  0.2182  0.1668  0.1017
  228loPI   C1A 3639   1.511   3.585   8.988 -0.4358  0.0850  0.2682
  228loPI   C2A 3640   1.525   3.420   8.565  0.3653  0.3465  0.0675
  228loPI   C3A 3641   1.667   3.236   8.271 -0.0862 -0.1113  0.4310
  228loPI   C4A 3642   1.738   3.245   7.833  0.0794 -0.0806 -0.0661
  228loPI   C5A 3643   1.358   3.287   7.534 -0.2733  0.1257  0.1467
  228loPI   C6A 3644   0.992   3.554   7.476  0.4145 -0.1746 -0.0379
  228loPI   C1B 3645   0.998   3.587   9.151 -0.0860 -0.0450 -0.0682
  228loPI   C2B 3646   1.098   3.676   8.731  0.1332  0.1463 -0.0169
  228loPI   C3B 3647   1.011   3.941   8.290 -0.2416  0.1501 -0.2281
  228loPI   C4B 3648   1.151   4.019   7.834 -0.2418  0.1376  0.3830
  229loPI    C1 3649   5.646   2.208   9.801  0.0141  0.1752 -0.1410
  229loPI    C2 3650   5.974   2.437   9.811  0.0522  0.1236 -0.1931
  229loPI    C3 3651   6.000   2.048   9.897 -0.0483  0.1794  0.1003
  229loPI   PO4 3652   5.520   2.311   9.583 -0.1760 -0.2280 -0.0286
  229loPI   GL1 3653   5.536   2.321   9.138  0.1822  0.1674 -0.0476
  229loPI   GL2 3654   5.619   2.128   8.984 -0.0377  0.0820  0.1762
  229loPI   C1A 3655   5.310   2.566   8.716  0.1042 -0.2413  0.0268
  229loPI   C2A 3656   5.338   2.637   8.344  0.1721  0.0300 -0.2550
  229loPI   C3A 3657   4.991   2.724   8.046  0.1091  0.0866 -0.1975
  229loPI   C4A 3658   5.092   2.588   7.574  0.3306  0.2367 -0.0244
  229loPI   C5A 3659   5.065   2.165   7.231 -0.2041 -0.1987 -0.4449
  229loPI   C6A 3660   5.322   1.875   7.068  0.0574 -0.2711  0.1832
  229loPI   C1B 3661   5.638   2.234   8.643 -0.2464  0.1252 -0.1054
  229loPI   C2B 3662   5.720   2.333   8.143  0.3301 -0.0790 -0.1454
  229loPI   C3B 3663   5.374   2.385   7.920 -0.3002 -0.0398 -0.1222
  229loPI   C4B 3664   4.963   2.181   8.036  0.0536  0.0183 -0.0644
  230loPI    C1 3665   7.583  16.921   9.947 -0.0189 -0.0858  0.1698
  230loPI    C2 3666   7.818  17.244   9.947 -0.0988 -0.0234 -0.1772
  230loPI    C3 3667   7.586  17.165  10.263 -0.0842  0.2620 -0.0922
  230loPI   PO4 3668   7.461  16.799   9.560  0.3171 -0.2671 -0.0634
  230loPI   GL1 3669   7.587  16.604   9.172 -0.3167 -0.2409 -0.2397
  230loPI   GL2 3670   7.635  16.472   8.880  0.3958 -0.1448  0.2036
  230loPI   C1A 3671   7.372  17.021   8.999  0.0147 -0.2098  0.0518
  230loPI   C2A 3672   7.241  17.193   8.647  0.1202  0.1344 -0.1384
  230loPI   C3A 3673   6.965  17.295   8.423  0.1121  0.1921  0.0887
  230loPI   C4A 3674   6.628  17.241   8.147 -0.1673 -0.3188  0.3332
  230loPI   C5A 3675   6.668  17.059   7.699  0.3065  0.0149  0.1787
  230loPI   C6A 3676   6.585  17.067   7.296 -0.2881 -0.1156  0.0790
  230loPI   C1B 3677   7.506  16.739   8.590 -0.1619  0.3317  0.2121
  230loPI   C2B 3678   7.210  16.746   8.318 -0.1937  0.1549 -0.2064
  230loPI   C3B 3679   7.103  16.925   7.981 -0.2717  0.0174 -0.1447
  230loPI   C4B 3680   7.051  17.366   7.878  0.1290 -0.0420  0.2119
  231loPI    C1 3681  17.747   9.823   9.868  0.1615  0.0329  0.0635
  231loPI    C2 3682  17.392   9.989   9.947 -0.0155 -0.2146 -0.1932
  231loPI    C3 3683  17.604   9.820  10.241 -0.1737 -0.1883 -0.0623
  231loPI   PO4 3684  17.713   9.920   9.556  0.3696 -0.0009 -0.2557
  231loPI   GL1 3685  17.757  10.165   9.217  0.1635 -0.0278  0.1969
  231loPI   GL2 3686  17.430  10.184   9.135 -0.1196  0.1676  0.0056
  231loPI   C1A 3687  17.840  10.036   8.712  0.1113 -0.4507  0.1420
  231loPI   C2A 3688  17.683   9.669   8.490  0.1501  0.1860  0.0826
  231loPI   C3A 3689  17.509   9.693   8.111 -0.0805  0.2873  0.0836
  231loPI   C4A 3690  17.430   9.672   7.629 -0.1153  0.1524  0.0309
  231loPI   C5A 3691  17.528   9.535   7.327 -0.1918 -0.1018 -0.0681
  231loPI   C6A 3692  17.497   9.321   6.966 -0.0797  0.1777  0.1451
  231loPI   C1B 3693  17.379  10.360   8.828  0.1895 -0.3266  0.0801
  231loPI   C2B 3694  17.527  10.283   8.392 -0.0283  0.1167  0.1150
  231loPI   C3B 3695  17.745  10.086   8.174  0.0622  0.1420 -0.1321
  231loPI   C4B 3696  18.021   9.897   7.956 -0.1381  0.0016 -0.3346
  232loPI    C1 3697   5.892  12.433  10.185  0.0134 -0.0503  0.0985
  232loPI    C2 3698   5.498  12.362  10.187 -0.0486  0.2688 -0.0793
  232loPI    C3 3699   5.721  12.263  10.504 -0.2570  0.0161 -0.0084
  232loPI   PO4 3700   5.916  12.344   9.855  0.0922 -0.2972  0.0056
  232loPI   GL1 3701   5.540  12.218   9.679 -0.2354  0.3221  0.1137
  232loPI   GL2 3702   5.214  12.258   9.692 -0.0134  0.2471  0.0045
  232loPI   C1A 3703   5.609  12.352   9.292 -0.1814 -0.1617  0.1199
  232loPI   C2A 3704   5.550  12.622   8.929  0.2375 -0.3033 -0.1316
  232loPI   C3A 3705   5.778  12.684   8.568 -0.2525 -0.1027  0.1989
  232loPI   C4A 3706   5.833  12.741   8.225 -0.2042  0.1624  0.3736
  232loPI   C5A 3707   5.537  12.617   7.804 -0.0348  0.0333  0.0553
  232loPI   C6A 3708   5.617  12.616   7.301  0.0820 -0.0309  0.2481
  232loPI   C1B 3709   5.136  12.171   9.279 -0.3053 -0.0785 -0.1624
  232loPI   C2B 3710   5.081  12.356   8.898  0.5043  0.1280 -0.0987
  232loPI   C3B 3711   5.264  12.270   8.549  0.2076 -0.1922 -0.1812
  232loPI   C4B 3712   5.331  12.478   8.277  0.0952 -0.0284  0.0078
  233loPI    C1 3713   8.488   5.855  10.158  0.1126  0.0974  0.0431
  233loPI    C2 3714   8.323   6.084  10.441  0.1643 -0.0339  0.1810
  233loPI    C3 3715   8.213   5.701  10.405  0.0576  0.0177 -0.0666
  233loPI   PO4 3716   8.477   6.148  10.004  0.1297  0.1277  0.3733
  233loPI   GL1 3717   8.398   6.010   9.555 -0.1997 -0.4614 -0.0025
  233loPI   GL2 3718   8.507   6.308   9.507  0.1908  0.0145  0.0576
  233loPI   C1A 3719   8.228   5.833   9.204  0.1121  0.2354 -0.2551
  233loPI   C2A 3720   8.300   5.901   8.762 -0.1642  0.0480  0.0006
  233loPI   C3A 3721   8.371   6.038   8.284  0.0269  0.3241  0.1269
  233loPI   C4A 3722   8.618   6.134   7.963  0.0520  0.3009  0.0270
  233loPI   C5A 3723   8.881   6.166   7.716  0.1198  0.0409 -0.2253
  233loPI   C6A 3724   9.256   6.208   7.446  0.1420 -0.1554 -0.0013
  233loPI   C1B 3725   8.555   6.311   9.018 -0.3256  0.5161  0.2017
  233loPI   C2B 3726   8.725   6.287   8.683 -0.0176  0.4297  0.1238
  233loPI   C3B 3727   8.940   6.249   8.332  0.0468 -0.0691  0.1881
  233loPI   C4B 3728   9.401   6.433   8.296 -0.0312  0.1521  0.1149
  234loPI    C1 3729  13.321  14.967  10.032 -0.2246 -0.1113  0.0888
  234loPI    C2 3730  13.631  14.778  10.200 -0.1087  0.0276  0.0335
  234loPI    C3 3731  13.312  14.570  10.076  0.0142 -0.1306 -0.0201
  234loPI   PO4 3732  13.511  15.099   9.813 -0.1508  0.2751  0.0850
  234loPI   GL1 3733  13.553  15.169   9.440  0.0363  0.0677  0.1203
  234loPI   GL2 3734  13.820  15.098   9.438  0.0051 -0.2514  0.4028
  234loPI   C1A 3735  13.727  15.433   9.007  0.1240  0.0203  0.0086
  234loPI   C2A 3736  13.702  15.446   8.581  0.4393  0.1160  0.1160
  234loPI   C3A 3737  13.632  15.399   8.129  0.1154 -0.1346 -0.0697
  234loPI   C4A 3738  13.641  15.262   7.675 -0.1552 -0.2776 -0.1319
  234loPI   C5A 3739  13.562  14.834   7.431 -0.1902 -0.1283 -0.1002
  234loPI   C6A 3740  13.129  14.634   7.443 -0.0778  0.0901  0.2992
  234loPI   C1B 3741  13.907  14.954   9.024  0.2368  0.0912  0.0902
  234loPI   C2B 3742  13.943  14.997   8.568  0.1988 -0.4099  0.0246
  234loPI   C3B 3743  14.057  15.251   8.349  0.0609  0.0119  0.0205
  234loPI   C4B 3744  14.112  15.385   7.969  0.3443  0.1403  0.2036
  235loPI    C1 3745  14.707  12.912   9.779  0.1184 -0.0309  0.0287
  235loPI    C2 3746  14.555  13.163  10.051 -0.0571 -0.1156  0.0103
  235loPI    C3 3747  14.808  12.874  10.164 -0.0348 -0.0747  0.0652
  235loPI   PO4 3748  14.782  13.127   9.469  0.0288  0.0799 -0.1058
  235loPI   GL1 3749  15.054  13.316   9.178  0.3281  0.1641 -0.2336
  235loPI   GL2 3750  14.816  13.240   8.969 -0.4499 -0.0900 -0.1868
  235loPI   C1A 3751  15.197  13.439   8.742  0.1768 -0.0553  0.1920
  235loPI   C2A 3752  15.226  13.349   8.375 -0.0309  0.0144 -0.0489
  235loPI   C3A 3753  15.301  13.456   8.020 -0.0472 -0.0901 -0.0860
  235loPI   C4A 3754  15.181  13.675   7.662  0.0884 -0.1136 -0.0435
  235loPI   C5A 3755  14.952  13.596   7.282  0.1844 -0.2002 -0.5360
  235loPI   C6A 3756  15.119  13.460   6.938 -0.1391  0.5528  0.3597
  235loPI   C1B 3757  14.765  12.991   8.531  0.0022 -0.2156 -0.0548
  235loPI   C2B 3758  14.865  13.162   8.089 -0.1068  0.2344  0.0169
  235loPI   C3B 3759  14.998  13.126   7.631  0.3347  0.0169  0.0365
  235loPI   C4B 3760  15.047  13.061   7.298  0.1283 -0.1953  0.2386
  236loPI    C1 3761  11.785  10.976   9.377  0.1288  0.1132 -0.0637
  236loPI    C2 3762  11.792  11.044   9.771  0.0155  0.1274 -0.0637
  236loPI    C3 3763  11.485  11.175   9.551  0.0292  0.0321 -0.1408
  236loPI   PO4 3764  11.837  10.587   9.378  0.2429 -0.1204 -0.0864
  236loPI   GL1 3765  11.986  10.283   8.994 -0.1130 -0.1342 -0.0965
  236loPI   GL2 3766  12.188  10.553   9.069 -0.2397  0.2726  0.0117
  236loPI   C1A 3767  12.108  10.160   8.572  0.0804 -0.2730 -0.5626
  236loPI   C2A 3768  12.049  10.105   8.154  0.1461  0.2185  0.0113
  236loPI   C3A 3769  11.909  10.310   7.902 -0.0034 -0.1105 -0.1353
  236loPI   C4A 3770  11.723  10.470   7.518  0.2597  0.0421 -0.4183
  236loPI   C5A 3771  11.250  10.523   7.397  0.3292  0.3381  0.0442
  236loPI   C6A 3772  11.010  10.819   7.619  0.0647 -0.1289  0.0131
  236loPI   C1B 3773  12.318  10.637   8.669 -0.0737  0.3553  0.1221
  236loPI   C2B 3774  12.207  10.676   8.313 -0.1232  0.1340  0.0535
  236loPI   C3B 3775  12.338  10.641   7.934  0.0740  0.1464  0.2439
  236loPI   C4B 3776  12.189  10.569   7.469  0.0436 -0.0656  0.2472
  237loPI    C1 3777  13.354   1.798  10.208  0.0981 -0.0530  0.1194
  237loPI    C2 3778  13.063   1.525  10.234  0.1151 -0.0597  0.2432
  237loPI    C3 3779  13.087   1.819  10.505  0.0067  0.1544  0.0248
  237loPI   PO4 3780  13.354   1.939  10.071  0.0745  0.2421 -0.0196
  237loPI   GL1 3781  13.442   1.991   9.587 -0.2568 -0.0932  0.2618
  237loPI   GL2 3782  13.194   1.828   9.542 -0.1704  0.1030 -0.4559
  237loPI   C1A 3783  13.649   1.922   9.241 -0.1675 -0.1300 -0.1487
  237loPI   C2A 3784  13.957   1.943   8.840  0.1541  0.2810  0.0633
  237loPI   C3A 3785  13.929   2.055   8.389  0.0739 -0.1979  0.0022
  237loPI   C4A 3786  13.656   2.256   8.058 -0.0866 -0.2207  0.1008
  237loPI   C5A 3787  13.344   2.397   7.798 -0.2135 -0.0263  0.1466
  237loPI   C6A 3788  12.972   2.600   7.817  0.0493  0.3986  0.2328
  237loPI   C1B 3789  13.199   1.828   9.105 -0.0969 -0.0151  0.1052
  237loPI   C2B 3790  13.360   1.821   8.732 -0.3256  0.1732 -0.1700
  237loPI   C3B 3791  13.432   1.842   8.303  0.2059  0.0581 -0.0260
  237loPI   C4B 3792  13.544   1.844   7.855 -0.1473 -0.2460 -0.2304
  238loPI    C1 3793   4.508  11.583  10.361  0.1167 -0.0667  0.2632
  238loPI    C2 3794   4.245  11.644  10.066  0.4638  0.0551 -0.0289
  238loPI    C3 3795   4.133  11.451  10.398  0.0157  0.0883 -0.1547
  238loPI   PO4 3796   4.719  11.704  10.143 -0.3385 -0.2144  0.1723
  238loPI   GL1 3797   4.725  11.902   9.738 -0.1203 -0.0808 -0.4517
  238loPI   GL2 3798   4.510  11.737   9.563  0.3086 -0.0730  0.0998
  238loPI   C1A 3799   4.996  11.662   9.330 -0.0296  0.2936 -0.2571
  238loPI   C2A 3800   5.006  11.695   8.952  0.0932  0.3656  0.1633
  238loPI   C3A 3801   5.387  11.810   8.686 -0.0824  0.2989 -0.3372
  238loPI   C4A 3802   5.376  11.740   8.221 -0.2534 -0.0720  0.2460
  238loPI   C5A 3803   5.499  11.681   7.757  0.0336 -0.1820 -0.0254
  238loPI   C6A 3804   5.436  11.562   7.313  0.0775  0.0427 -0.0260
  238loPI   C1B 3805   4.594  11.981   9.231  0.1040 -0.0182  0.3010
  238loPI   C2B 3806   4.627  11.946   8.797  0.2612  0.0822 -0.0237
  238loPI   C3B 3807   4.854  11.961   8.434 -0.1684  0.0008 -0.1384
  238loPI   C4B 3808   5.039  12.023   8.048 -0.0855 -0.4198 -0.2602
  239loPI    C1 3809   0.634   4.481  10.203 -0.0596  0.1477 -0.1858
  239loPI    C2 3810   0.761   4.181  10.434  0.0825  0.2801 -0.0899
  239loPI    C3 3811   0.763   4.556  10.574  0.1072  0.3529 -0.2827
  239loPI   PO4 3812   0.786   4.437   9.969  0.1477 -0.0566 -0.0092
  239loPI   GL1 3813   1.019   4.318   9.600 -0.1861  0.0277 -0.1888
  239loPI   GL2 3814   1.191   4.489   9.398 -0.0593  0.0243 -0.1958
  239loPI   C1A 3815   0.739   4.162   9.048  0.1480  0.2981  0.1519
  239loPI   C2A 3816   0.708   4.234   8.680  0.0355  0.3382  0.0953
  239loPI   C3A 3817   0.745   4.428   8.284  0.0160 -0.3042  0.1433
  239loPI   C4A 3818   0.796   4.330   7.901 -0.1926 -0.0888 -0.0770
  239loPI   C5A 3819   0.511   4.519   7.622  0.4883  0.0126 -0.1380
  239loPI   C6A 3820   0.283   4.419   7.235  0.2228  0.1306 -0.0251
  239loPI   C1B 3821   1.059   4.549   8.963 -0.1019  0.2201  0.1034
  239loPI   C2B 3822   1.029   4.776   8.517  0.0744  0.4860  0.3407
  239loPI   C3B 3823   0.922   4.817   7.982  0.1213  0.0085  0.0716
  239loPI   C4B 3824   1.039   4.921   7.527 -0.1710  0.2654 -0.1693
  240loPI    C1 3825  11.901   3.473  10.324 -0.1164 -0.0209  0.1795
  240loPI    C2 3826  11.765   3.649   9.991  0.2181  0.0363  0.0698
  240loPI    C3 3827  11.594   3.729  10.343 -0.0114  0.1267 -0.0602
  240loPI   PO4 3828  12.188   3.583  10.234 -0.2329 -0.1466  0.4644
  240loPI   GL1 3829  12.376   3.558   9.820 -0.1709  0.1758  0.1020
  240loPI   GL2 3830  12.623   3.519  10.030  0.3131  0.0120 -0.0902
  240loPI   C1A 3831  12.373   3.545   9.396 -0.1886  0.0720  0.4142
  240loPI   C2A 3832  12.378   3.689   9.057  0.3998 -0.0266  0.0114
  240loPI   C3A 3833  12.667   3.744   8.711  0.0685 -0.2417 -0.3587
  240loPI   C4A 3834  12.698   3.692   8.294 -0.1470 -0.2609 -0.2464
  240loPI   C5A 3835  12.801   3.516   8.009 -0.2941 -0.2712 -0.0516
  240loPI   C6A 3836  12.704   3.176   7.697  0.1881  0.1461 -0.2449
  240loPI   C1B 3837  12.795   3.540   9.594  0.0648  0.2970  0.1130
  240loPI   C2B 3838  12.805   3.383   9.170 -0.0560 -0.0094  0.2918
  240loPI   C3B 3839  12.937   3.290   8.724 -0.3024  0.1274 -0.3989
  240loPI   C4B 3840  13.087   3.341   8.398  0.1173 -0.3469  0.1400
  241loPI    C1 3841  11.069  16.347   9.662  0.1839  0.0379 -0.2618
  241loPI    C2 3842  11.085  16.744   9.621 -0.1139  0.0612 -0.1805
  241loPI    C3 3843  10.929  16.584   9.952  0.1337 -0.1251 -0.1511
  241loPI   PO4 3844  11.003  16.290   9.493  0.0515  0.1957  0.0125
  241loPI   GL1 3845  10.930  16.594   9.154  0.0643  0.0332 -0.0286
  241loPI   GL2 3846  11.280  16.701   9.083 -0.0627  0.1323 -0.1870
  241loPI   C1A 3847  10.757  16.733   8.804 -0.2035  0.2189  0.0973
  241loPI   C2A 3848  10.886  16.655   8.377 -0.2480 -0.1843 -0.3705
  241loPI   C3A 3849  11.042  16.687   7.953 -0.0667  0.1526 -0.1329
  241loPI   C4A 3850  11.157  16.519   7.554 -0.2454 -0.2041  0.0428
  241loPI   C5A 3851  11.275  16.347   7.255  0.2814  0.1094 -0.3835
  241loPI   C6A 3852  11.711  16.121   7.165  0.0610  0.0624  0.0778
  241loPI   C1B 3853  11.297  16.506   8.625  0.1078  0.0471 -0.0753
  241loPI   C2B 3854  11.443  16.435   8.136 -0.0128 -0.0480 -0.0132
  241loPI   C3B 3855  11.632  16.516   7.768  0.2604 -0.2295  0.2472
  241loPI   C4B 3856  12.022  16.443   7.567  0.2278 -0.1282  0.0537
  242loPI    C1 3857  13.911  10.551  10.346 -0.1844 -0.1467  0.0387
  242loPI    C2 3858  14.198  10.327  10.182  0.0191  0.1348  0.0025
  242loPI    C3 3859  14.131  10.309  10.576 -0.2641 -0.3134 -0.0588
  242loPI   PO4 3860  13.873  10.680  10.082  0.1237  0.1040  0.1192
  242loPI   GL1 3861  13.957  10.862   9.673  0.1401  0.1767 -0.1651
  242loPI   GL2 3862  14.333  10.652   9.756  0.0375  0.2623  0.1477
  242loPI   C1A 3863  13.866  10.901   9.175 -0.1233  0.0155  0.1879
  242loPI   C2A 3864  13.625  10.935   8.728  0.3975  0.1565  0.0109
  242loPI   C3A 3865  13.673  11.005   8.357 -0.0636 -0.0747  0.1285
  242loPI   C4A 3866  13.688  11.182   7.942  0.0334 -0.0557 -0.0782
  242loPI   C5A 3867  13.905  11.416   7.757  0.3654 -0.1111 -0.0829
  242loPI   C6A 3868  13.650  11.770   7.553 -0.2615 -0.2304  0.0262
  242loPI   C1B 3869  14.180  10.515   9.308  0.1469  0.1875  0.0757
  242loPI   C2B 3870  14.075  10.506   8.894 -0.1542 -0.1029  0.1886
  242loPI   C3B 3871  14.099  10.261   8.735 -0.1597 -0.0634 -0.1351
  242loPI   C4B 3872  14.085   9.912   8.440  0.0452  0.2142 -0.0200
  243loPI    C1 3873  14.854   0.412  10.433 -0.0306 -0.0981  0.1929
  243loPI    C2 3874  15.212   0.395  10.610  0.1854  0.0731 -0.2158
  243loPI    C3 3875  14.983   0.720  10.653  0.0119 -0.0924  0.1599
  243loPI   PO4 3876  14.958   0.348  10.167 -0.1444 -0.0479 -0.2338
  243loPI   GL1 3877  15.365   0.496   9.940  0.0492 -0.1657 -0.3564
  243loPI   GL2 3878  15.172   0.683   9.667  0.1887  0.1459  0.2568
  243loPI   C1A 3879  15.714   0.605   9.570 -0.0973  0.0080 -0.2779
  243loPI   C2A 3880  15.706   0.596   9.196 -0.3327  0.2826  0.0723
  243loPI   C3A 3881  15.749   0.358   8.896 -0.0544  0.0799 -0.0764
  243loPI   C4A 3882  15.685   0.255   8.555 -0.1031  0.2506 -0.0953
  243loPI   C5A 3883  15.845   0.432   8.145  0.1445 -0.1626  0.2804
  243loPI   C6A 3884  15.992   0.215   7.773 -0.0081 -0.2763 -0.2248
  243loPI   C1B 3885  15.196   0.624   9.220 -0.0905 -0.0192  0.0933
  243loPI   C2B 3886  15.217   0.404   8.813 -0.0985 -0.0555 -0.2578
  243loPI   C3B 3887  15.164   0.386   8.293  0.0627 -0.0924 -0.1842
  243loPI   C4B 3888  15.106   0.389   7.823  0.1885  0.1650 -0.2074
  244loPI    C1 3889   3.158   0.542   9.898  0.1006  0.0444 -0.1043
  244loPI    C2 3890   2.976   0.752  10.186 -0.0313 -0.1756 -0.0250
  244loPI    C3 3891   3.297   0.530  10.273  0.0466 -0.0889 -0.0883
  244loPI   PO4 3892   3.150   0.647   9.753 -0.0291  0.1815 -0.0496
  244loPI   GL1 3893   3.112   0.853   9.394 -0.1248  0.1099  0.0123
  244loPI   GL2 3894   3.173   1.026   9.138 -0.2023 -0.2295  0.1376
  244loPI   C1A 3895   2.653   1.123   9.326 -0.0425 -0.1849  0.0941
  244loPI   C2A 3896   2.223   0.989   9.363  0.1183 -0.1754 -0.1649
  244loPI   C3A 3897   2.074   0.634   9.267 -0.0652  0.0858 -0.0389
  244loPI   C4A 3898   2.086   0.437   8.870 -0.0201  0.0276  0.2339
  244loPI   C5A 3899   1.813   0.365   8.436  0.3005  0.2105 -0.3907
  244loPI   C6A 3900   1.838   0.340   7.934 -0.0451  0.0651  0.3599
  244loPI   C1B 3901   3.431   0.792   8.947  0.0187 -0.4327 -0.6660
  244loPI   C2B 3902   3.543   0.427   8.801  0.0695 -0.0401 -0.1388
  244loPI   C3B 3903   3.396   0.337   8.406  0.1662 -0.0767 -0.1666
  244loPI   C4B 3904   3.322   0.247   7.995 -0.0019 -0.0097 -0.0063
  245loPI    C1 3905  17.570  18.182  10.429 -0.0421 -0.1689  0.1253
  245loPI    C2 3906  17.530  18.105  10.819 -0.1860 -0.1752  0.1095
  245loPI    C3 3907  17.224  18.261  10.613 -0.0342  0.0491  0.0499
  245loPI   PO4 3908  17.694  18.026  10.285 -0.0566 -0.3784  0.0032
  245loPI   GL1 3909  17.866  18.026   9.790 -0.1684  0.1608 -0.0314
  245loPI   GL2 3910  17.938  17.677   9.776 -0.0532  0.2110  0.2398
  245loPI   C1A 3911  17.515  18.081   9.446 -0.3106 -0.3364  0.2773
  245loPI   C2A 3912  17.549  18.343   9.086  0.0640 -0.0601  0.1561
  245loPI   C3A 3913  17.512  18.482   8.668 -0.0127  0.1992  0.2161
  245loPI   C4A 3914  17.393  18.825   8.401  0.0064 -0.1605 -0.2108
  245loPI   C5A 3915  17.410  18.904   8.080  0.0940 -0.0025 -0.2868
  245loPI   C6A 3916  16.964  18.813   7.779 -0.2519  0.1291  0.0211
  245loPI   C1B 3917  17.903  17.648   9.409 -0.0143  0.1473  0.4376
  245loPI   C2B 3918  17.803  17.470   8.954  0.0513  0.0581  0.0948
  245loPI   C3B 3919  17.738  17.333   8.462  0.1069 -0.2471  0.3127
  245loPI   C4B 3920  17.459  17.280   8.145  0.2171 -0.1492 -0.1051
  246loPI    C1 3921   4.670   5.924   9.603  0.0612 -0.0187  0.0031
  246loPI    C2 3922   4.544   5.678   9.893  0.1173 -0.1349 -0.0706
  246loPI    C3 3923   4.816   5.960   9.974 -0.0595  0.0027  0.0489
  246loPI   PO4 3924   4.475   5.929   9.417 -0.2917  0.0974 -0.0901
  246loPI   GL1 3925   4.307   6.088   9.036 -0.1199 -0.0227  0.0153
  246loPI   GL2 3926   4.399   5.649   9.023  0.1009  0.2788 -0.1013
  246loPI   C1A 3927   3.927   5.890   8.791 -0.0643 -0.1922  0.1747
  246loPI   C2A 3928   3.746   6.069   8.369 -0.2220  0.2521  0.0906
  246loPI   C3A 3929   3.473   5.990   8.046  0.0327 -0.0363  0.0720
  246loPI   C4A 3930   3.494   6.153   7.511  0.0058  0.1318  0.2775
  246loPI   C5A 3931   3.813   6.223   7.180 -0.0736  0.0231  0.0106
  246loPI   C6A 3932   4.235   6.306   7.172  0.0291  0.0946  0.2305
  246loPI   C1B 3933   4.453   5.760   8.584 -0.1407  0.0497  0.1236
  246loPI   C2B 3934   4.161   5.720   8.352 -0.1830  0.0204  0.1532
  246loPI   C3B 3935   4.027   5.815   8.004  0.1474  0.1135  0.0070
  246loPI   C4B 3936   3.857   5.920   7.695  0.3619  0.2104  0.0741
  247loPI    C1 3937   9.812   1.055   9.581 -0.1430 -0.1067  0.0545
  247loPI    C2 3938   9.924   0.691   9.704  0.1561 -0.0189  0.0483
  247loPI    C3 3939   9.550   0.817   9.768  0.0476 -0.3299  0.0418
  247loPI   PO4 3940   9.965   1.081   9.330  0.0156 -0.0597  0.0574
  247loPI   GL1 3941   9.778   1.163   8.978 -0.0105 -0.0078  0.0033
  247loPI   GL2 3942   9.597   1.407   9.140 -0.3966 -0.0904  0.0353
  247loPI   C1A 3943   9.690   1.243   8.466  0.1586  0.5323  0.0620
  247loPI   C2A 3944   9.743   1.184   8.040 -0.0780  0.0988 -0.1374
  247loPI   C3A 3945  10.068   1.216   7.751 -0.3830  0.0272 -0.1961
  247loPI   C4A 3946  10.238   1.405   7.304  0.1236 -0.1225 -0.1963
  247loPI   C5A 3947  10.599   1.387   7.073  0.0576  0.1057  0.1549
  247loPI   C6A 3948  10.784   1.050   6.858 -0.2367  0.1367  0.0294
  247loPI   C1B 3949   9.401   1.726   8.695  0.2480  0.1788  0.0287
  247loPI   C2B 3950   9.431   2.007   8.305  0.0225 -0.2124  0.1285
  247loPI   C3B 3951   9.479   1.847   7.881  0.0741 -0.2056 -0.0813
  247loPI   C4B 3952   9.742   1.517   7.634 -0.0775 -0.2211 -0.1774
  248loPI    C1 3953  12.469   9.123  10.187  0.1070  0.1332 -0.3150
  248loPI    C2 3954  12.123   8.948  10.088 -0.0011  0.0846  0.1289
  248loPI    C3 3955  12.125   9.325  10.222  0.1253  0.1034  0.0748
  248loPI   PO4 3956  12.577   8.979   9.913 -0.4811 -0.0209 -0.2188
  248loPI   GL1 3957  12.711   9.101   9.490  0.3563 -0.1311  0.0838
  248loPI   GL2 3958  12.737   9.521   9.454 -0.1854 -0.0883 -0.0491
  248loPI   C1A 3959  12.766   9.232   9.036  0.2008 -0.0199  0.2079
  248loPI   C2A 3960  13.012   9.478   8.592  0.1516 -0.1676  0.1356
  248loPI   C3A 3961  13.039   9.865   8.308  0.0341  0.0824  0.4385
  248loPI   C4A 3962  12.987   9.936   7.778 -0.0026  0.0190  0.1695
  248loPI   C5A 3963  12.980  10.079   7.416  0.2341  0.1786  0.0539
  248loPI   C6A 3964  12.760  10.317   7.134 -0.3009 -0.0869  0.0660
  248loPI   C1B 3965  13.075   9.604   9.113 -0.0736 -0.0226  0.0980
  248loPI   C2B 3966  13.199   9.817   8.894  0.1490  0.1051 -0.3071
  248loPI   C3B 3967  13.100  10.165   8.708 -0.1153  0.0947  0.0512
  248loPI   C4B 3968  12.767  10.489   8.565 -0.2205 -0.3246  0.0159
  249loPI    C1 3969  15.436   1.870  10.535 -0.1250 -0.0177 -0.0744
  249loPI    C2 3970  15.587   2.098  10.826  0.0068 -0.1543 -0.0341
  249loPI    C3 3971  15.190   2.064  10.783 -0.0132 -0.0984  0.1012
  249loPI   PO4 3972  15.520   1.917  10.367 -0.0856 -0.0649 -0.1140
  249loPI   GL1 3973  15.551   2.104   9.986 -0.1342 -0.2121 -0.1491
  249loPI   GL2 3974  15.768   1.826   9.915 -0.2768  0.0851 -0.1362
  249loPI   C1A 3975  15.224   2.079   9.727 -0.0151  0.3038 -0.0018
  249loPI   C2A 3976  15.283   2.067   9.350  0.1073  0.2564 -0.1578
  249loPI   C3A 3977  15.343   2.130   8.939  0.0551  0.2722 -0.0775
  249loPI   C4A 3978  15.155   1.951   8.600  0.1154  0.5480 -0.0783
  249loPI   C5A 3979  14.867   1.649   8.337  0.0193  0.1144 -0.1493
  249loPI   C6A 3980  14.664   1.707   7.989  0.3408 -0.0949  0.2029
  249loPI   C1B 3981  15.831   2.157   9.593 -0.2304  0.1512 -0.1704
  249loPI   C2B 3982  15.846   2.306   9.165  0.0089  0.1520 -0.1767
  249loPI   C3B 3983  16.171   2.417   8.871 -0.0712  0.0031 -0.1273
  249loPI   C4B 3984  16.391   2.756   8.898  0.1302 -0.1251 -0.1001
  250loPI    C1 3985   7.649  17.711   9.857  0.0421  0.0682  0.1116
  250loPI    C2 3986   7.884  17.957  10.067  0.2585 -0.1157  0.0891
  250loPI    C3 3987   7.723  17.636  10.243 -0.0668  0.0663  0.1324
  250loPI   PO4 3988   7.805  17.685   9.671  0.0047  0.1698 -0.1368
  250loPI   GL1 3989   7.808  17.673   9.211  0.2569  0.0989 -0.0764
  250loPI   GL2 3990   7.863  17.355   9.220 -0.2451 -0.0585  0.1658
  250loPI   C1A 3991   7.690  18.035   8.841 -0.0778 -0.0969 -0.1732
  250loPI   C2A 3992   7.589  18.069   8.311  0.1568 -0.2262  0.0470
  250loPI   C3A 3993   7.657  18.140   7.841  0.0991  0.0629 -0.1793
  250loPI   C4A 3994   7.555  18.364   7.340 -0.0160  0.1209 -0.0534
  250loPI   C5A 3995   7.557  18.766   7.372  0.0896 -0.1231  0.0735
  250loPI   C6A 3996   7.357  19.052   7.151 -0.4033 -0.0241  0.1399
  250loPI   C1B 3997   7.833  17.123   8.923 -0.1250 -0.3819 -0.1275
  250loPI   C2B 3998   7.725  17.313   8.607 -0.0840 -0.0916 -0.2651
  250loPI   C3B 3999   7.530  17.115   8.228  0.4751 -0.2101  0.0925
  250loPI   C4B 4000   7.516  17.207   7.744 -0.0961  0.0886 -0.0244
  251loPI    C1 4001  15.992   9.421  10.044  0.0374 -0.0825 -0.1242
  251loPI    C2 4002  16.294   9.467  10.302 -0.3394 -0.2375  0.3598
  251loPI    C3 4003  16.365   9.330   9.933  0.2021 -0.0711  0.3935
  251loPI   PO4 4004  15.828   9.605   9.913 -0.0138 -0.4051  0.0695
  251loPI   GL1 4005  15.665   9.698   9.585  0.3905 -0.0117  0.1483
  251loPI   GL2 4006  15.411   9.729   9.445  0.0331  0.4499 -0.2024
  251loPI   C1A 4007  15.824   9.552   9.199  0.2202  0.1799 -0.0123
  251loPI   C2A 4008  15.870   9.372   8.743 -0.0109 -0.1427 -0.0891
  251loPI   C3A 4009  15.750   9.176   8.447  0.0611  0.1765 -0.3598
  251loPI   C4A 4010  15.521   8.853   8.322 -0.2036  0.0004  0.3839
  251loPI   C5A 4011  15.491   8.564   8.076  0.0969 -0.1873  0.0329
  251loPI   C6A 4012  15.110   8.393   7.931  0.0954 -0.1658 -0.0233
  251loPI   C1B 4013  15.176   9.640   9.136 -0.1954  0.0208 -0.4050
  251loPI   C2B 4014  14.956   9.670   8.734 -0.0587  0.2679 -0.0157
  251loPI   C3B 4015  14.799   9.709   8.306  0.0928 -0.3657 -0.1486
  251loPI   C4B 4016  14.454   9.631   8.164  0.3498 -0.0629 -0.3365
  252loPI    C1 4017  18.466  12.212   9.817  0.0254 -0.2560  0.1055
  252loPI    C2 4018  18.371  11.931  10.085 -0.0252 -0.1475  0.2022
  252loPI    C3 4019  18.251  12.309  10.140 -0.0657 -0.1310  0.0089
  252loPI   PO4 4020  18.551  12.056   9.642 -0.0476 -0.3057  0.5379
  252loPI   GL1 4021  18.809  12.292   9.394 -0.2705  0.0348  0.2262
  252loPI   GL2 4022  18.640  12.513   9.300  0.0444  0.1081 -0.1749
  252loPI   C1A 4023  18.951  12.246   9.010  0.0585 -0.1533  0.0028
  252loPI   C2A 4024  18.930  12.173   8.547 -0.2902  0.2275 -0.0881
  252loPI   C3A 4025  18.688  12.333   8.155  0.2994  0.0064 -0.0841
  252loPI   C4A 4026  18.534  12.418   7.809 -0.1972 -0.1961 -0.1342
  252loPI   C5A 4027  18.287  12.236   7.417 -0.0321 -0.0334 -0.1686
  252loPI   C6A 4028  17.885  11.982   7.297 -0.0945 -0.0968 -0.0062
  252loPI   C1B 4029  18.686  12.649   8.901 -0.1121  0.1064 -0.1602
  252loPI   C2B 4030  18.574  12.847   8.472  0.0598  0.1671  0.2998
  252loPI   C3B 4031  18.533  12.848   8.012 -0.1090  0.1368 -0.0696
  252loPI   C4B 4032  18.642  12.906   7.575  0.1075 -0.5787  0.1266
  253loPI    C1 4033  18.562  17.842  10.504  0.1719  0.4625  0.0076
  253loPI    C2 4034  18.195  17.931  10.637  0.1308  0.1371  0.1228
  253loPI    C3 4035  18.505  17.930  10.890  0.1183 -0.1083  0.1390
  253loPI   PO4 4036  18.549  18.066  10.280  0.0156 -0.3020  0.0254
  253loPI   GL1 4037  18.672  17.997   9.856  0.2141 -0.0961 -0.0326
  253loPI   GL2 4038  18.366  17.912   9.796 -0.5384 -0.0757  0.1054
  253loPI   C1A 4039  18.705  17.950   9.374 -0.0016 -0.0701 -0.2264
  253loPI   C2A 4040  18.551  18.179   9.141 -0.0279 -0.1417  0.0157
  253loPI   C3A 4041  18.301  18.351   8.767  0.3400 -0.2357  0.0078
  253loPI   C4A 4042  17.929  18.314   8.483  0.1885 -0.5850  0.0392
  253loPI   C5A 4043  17.816  18.562   8.152 -0.3522  0.0268  0.3166
  253loPI   C6A 4044  17.838  18.420   7.783 -0.0404 -0.0399 -0.2280
  253loPI   C1B 4045  18.692  17.471   9.874  0.0089  0.0207  0.0868
  253loPI   C2B 4046  19.105  17.325   9.743 -0.0158 -0.2006  0.1459
  253loPI   C3B 4047  19.458  17.492   9.763 -0.3046  0.2707  0.1987
  253loPI   C4B 4048  19.661  17.876   9.826 -0.0284 -0.1666 -0.2284
  254loPI    C1 4049   7.835  12.880   9.904  0.1037 -0.2396 -0.0401
  254loPI    C2 4050   8.029  12.979  10.240  0.1735  0.2577 -0.2184
  254loPI    C3 4051   7.640  13.064  10.200  0.0639 -0.1675 -0.1110
  254loPI   PO4 4052   7.789  12.594   9.824  0.3001  0.0867  0.2692
  254loPI   GL1 4053   7.457  12.516   9.495 -0.2523 -0.4335  0.2507
  254loPI   GL2 4054   7.637  12.365   9.330 -0.0913  0.1493  0.1257
  254loPI   C1A 4055   7.222  12.641   9.072  0.1817  0.1749 -0.0533
  254loPI   C2A 4056   7.313  12.817   8.633 -0.0146 -0.1939  0.0613
  254loPI   C3A 4057   7.003  12.704   8.303  0.2432 -0.2848 -0.0474
  254loPI   C4A 4058   6.917  12.470   7.860  0.0489  0.1478 -0.1992
  254loPI   C5A 4059   6.980  12.367   7.465  0.0176 -0.2037 -0.0688
  254loPI   C6A 4060   7.081  12.234   6.998 -0.1816  0.0437 -0.2164
  254loPI   C1B 4061   7.677  12.483   8.891  0.2893 -0.1960 -0.0920
  254loPI   C2B 4062   7.693  12.419   8.486 -0.1207 -0.0863  0.1008
  254loPI   C3B 4063   7.540  12.594   8.128 -0.0686  0.2159 -0.0744
  254loPI   C4B 4064   7.633  13.003   8.044 -0.1566 -0.0252 -0.3386
  255loPI    C1 4065   7.173   3.457   9.777  0.0327 -0.2965  0.0091
  255loPI    C2 4066   6.867   3.493  10.031  0.1436  0.1945  0.0824
  255loPI    C3 4067   7.149   3.218  10.097 -0.3111 -0.3165 -0.0278
  255loPI   PO4 4068   7.329   3.665   9.776  0.0775 -0.4368 -0.1775
  255loPI   GL1 4069   7.395   4.096   9.464  0.2578  0.2824 -0.0241
  255loPI   GL2 4070   7.685   4.086   9.508  0.1355 -0.1634 -0.2029
  255loPI   C1A 4071   7.490   4.268   9.049  0.2233 -0.0804 -0.2048
  255loPI   C2A 4072   7.360   4.079   8.529  0.0547 -0.2914  0.1450
  255loPI   C3A 4073   7.154   4.105   8.084 -0.3736  0.0116 -0.0486
  255loPI   C4A 4074   7.005   4.063   7.684  0.0700  0.2080  0.0499
  255loPI   C5A 4075   6.513   3.804   7.432  0.2371  0.0854  0.3290
  255loPI   C6A 4076   6.049   3.745   7.355 -0.0463  0.3365 -0.0459
  255loPI   C1B 4077   7.826   3.902   9.071  0.0270  0.0389 -0.0904
  255loPI   C2B 4078   7.880   3.910   8.595  0.1696 -0.1044 -0.1839
  255loPI   C3B 4079   7.754   4.114   8.210  0.1739  0.0118  0.0446
  255loPI   C4B 4080   8.038   3.976   7.867  0.0260 -0.1148 -0.0896
  256loPI    C1 4081  16.998  13.761   9.962 -0.1426 -0.0840  0.1981
  256loPI    C2 4082  17.368  13.898  10.026 -0.0455 -0.1676 -0.1606
  256loPI    C3 4083  17.245  13.561  10.204 -0.0138 -0.0434  0.1012
  256loPI   PO4 4084  16.869  13.812   9.677  0.0049 -0.0732 -0.1314
  256loPI   GL1 4085  16.826  13.854   9.294 -0.2872 -0.0042 -0.0204
  256loPI   GL2 4086  17.139  13.955   9.183  0.0613  0.0440 -0.3720
  256loPI   C1A 4087  16.814  14.227   8.846 -0.0344  0.0869 -0.2322
  256loPI   C2A 4088  16.902  14.385   8.510 -0.2313 -0.0218  0.0364
  256loPI   C3A 4089  16.866  14.628   8.241 -0.3289  0.1541  0.2351
  256loPI   C4A 4090  17.016  14.761   7.967 -0.0180 -0.0934  0.1365
  256loPI   C5A 4091  16.777  14.955   7.643 -0.0164 -0.3406  0.1773
  256loPI   C6A 4092  16.563  15.235   7.421  0.2195  0.1302  0.2785
  256loPI   C1B 4093  17.417  14.195   8.874  0.0387  0.2992  0.1571
  256loPI   C2B 4094  17.606  14.178   8.391  0.1518 -0.2024  0.1344
  256loPI   C3B 4095  17.791  14.186   8.040  0.1978 -0.1904 -0.2510
  256loPI   C4B 4096  18.132  14.240   7.606  0.2352  0.2648  0.3071
  257loPI    C1 4097   7.466   6.615   9.594  0.1914  0.2035  0.3671
  257loPI    C2 4098   7.131   6.577   9.377  0.4346  0.0751  0.0050
  257loPI    C3 4099   7.259   6.940   9.485  0.0735  0.1140  0.3217
  257loPI   PO4 4100   7.641   6.566   9.458 -0.2778  0.1270 -0.2305
  257loPI   GL1 4101   7.477   6.633   9.020 -0.0855 -0.0653  0.3304
  257loPI   GL2 4102   7.554   6.829   9.023 -0.0876  0.3626  0.1343
  257loPI   C1A 4103   7.493   6.410   8.619 -0.0101 -0.2225 -0.0090
  257loPI   C2A 4104   7.621   6.295   8.154 -0.1050 -0.0532  0.0411
  257loPI   C3A 4105   7.731   6.192   7.811 -0.2914  0.1785 -0.2958
  257loPI   C4A 4106   7.930   6.302   7.416 -0.0686 -0.0208 -0.0395
  257loPI   C5A 4107   8.050   6.126   7.088 -0.2422  0.1296 -0.0847
  257loPI   C6A 4108   8.038   6.055   6.722 -0.0939  0.0364  0.2756
  257loPI   C1B 4109   7.666   6.980   8.611  0.3712  0.0552 -0.2544
  257loPI   C2B 4110   7.786   7.256   8.143  0.3833 -0.2846  0.1747
  257loPI   C3B 4111   7.814   7.124   7.759  0.1975 -0.0409  0.0174
  257loPI   C4B 4112   7.734   7.037   7.360 -0.0595  0.0396  0.0292
  258loPI    C1 4113   2.534   2.783   9.636 -0.1759 -0.1588 -0.0015
  258loPI    C2 4114   2.723   2.536   9.887 -0.0033 -0.1505 -0.1212
  258loPI    C3 4115   2.505   2.839  10.031  0.0551 -0.1743  0.0191
  258loPI   PO4 4116   2.426   2.665   9.443  0.2273  0.0339 -0.5601
  258loPI   GL1 4117   2.474   2.658   9.090  0.3505  0.0495  0.2050
  258loPI   GL2 4118   2.264   3.008   8.995  0.0007 -0.0681  0.1113
  258loPI   C1A 4119   2.547   2.430   8.734 -0.4044 -0.2077  0.2127
  258loPI   C2A 4120   2.334   2.405   8.226 -0.0300  0.4321  0.3223
  258loPI   C3A 4121   1.970   2.430   7.908 -0.0438 -0.2859  0.0019
  258loPI   C4A 4122   1.519   2.332   7.734  0.2894  0.1552 -0.3087
  258loPI   C5A 4123   1.184   2.246   7.512 -0.1978 -0.0263  0.3291
  258loPI   C6A 4124   1.180   2.287   7.207  0.0359  0.2769 -0.3277
  258loPI   C1B 4125   2.426   2.993   8.497 -0.2768 -0.0687 -0.2059
  258loPI   C2B 4126   2.671   2.813   8.354 -0.2589  0.0492  0.1120
  258loPI   C3B 4127   2.731   2.708   8.013  0.1597  0.0736  0.0399
  258loPI   C4B 4128   2.672   2.261   7.745  0.0163  0.0054  0.1243
  259loPI    C1 4129   1.356  18.645  10.109  0.1076  0.0475  0.0502
  259loPI    C2 4130   1.599  18.940  10.226  0.0823  0.0496  0.0980
  259loPI    C3 4131   1.714  18.559  10.266  0.0934  0.0515  0.0848
  259loPI   PO4 4132   1.081  18.681  10.238 -0.1128  0.1710 -0.2677
  259loPI   GL1 4133   0.894  18.749   9.884  0.0505 -0.0180 -0.1666
  259loPI   GL2 4134   0.763  19.078   9.746 -0.0428  0.3425 -0.1273
  259loPI   C1A 4135   1.003  18.523   9.546 -0.0036  0.1778  0.0243
  259loPI   C2A 4136   0.760  18.487   9.072 -0.2367 -0.3227 -0.0403
  259loPI   C3A 4137   0.608  18.479   8.668  0.1449  0.1322  0.1040
  259loPI   C4A 4138   0.569  18.237   8.305  0.0526  0.0584 -0.1574
  259loPI   C5A 4139   0.576  17.883   8.071  0.1032 -0.2866  0.2419
  259loPI   C6A 4140   0.480  17.885   7.590 -0.2250  0.2144 -0.0457
  259loPI   C1B 4141   0.992  19.141   9.340  0.2956  0.0430 -0.1495
  259loPI   C2B 4142   0.909  19.270   8.905 -0.3107 -0.0791  0.1806
  259loPI   C3B 4143   0.777  19.063   8.495 -0.0741  0.0904 -0.0409
  259loPI   C4B 4144   0.644  18.750   8.218 -0.3435  0.3239 -0.0364
  260loPI    C1 4145  10.166  10.049   9.707  0.0707  0.0951 -0.3736
  260loPI    C2 4146   9.849  10.262   9.827 -0.0251 -0.0780 -0.3162
  260loPI    C3 4147  10.199  10.302  10.015 -0.0787 -0.0729 -0.2165
  260loPI   PO4 4148  10.104  10.008   9.412  0.5126 -0.4722  0.2213
  260loPI   GL1 4149   9.726   9.855   9.259  0.0105 -0.0648  0.0794
  260loPI   GL2 4150   9.457   9.674   9.319 -0.0798 -0.2478 -0.0876
  260loPI   C1A 4151   9.574   9.901   8.828 -0.1412  0.2326  0.3188
  260loPI   C2A 4152   9.613   9.899   8.425 -0.0465 -0.3672  0.1872
  260loPI   C3A 4153   9.399   9.910   7.974  0.3169 -0.0583 -0.0244
  260loPI   C4A 4154   9.499  10.146   7.651 -0.2573  0.1067 -0.0364
  260loPI   C5A 4155   9.612  10.610   7.519 -0.1578  0.3503 -0.1838
  260loPI   C6A 4156   9.663  10.986   7.218  0.1641  0.0326 -0.2657
  260loPI   C1B 4157   9.128   9.679   9.001 -0.3124  0.0683 -0.0677
  260loPI   C2B 4158   9.172   9.376   8.599 -0.2633  0.1503  0.4288
  260loPI   C3B 4159   9.163   9.404   8.157  0.1681  0.0620 -0.1081
  260loPI   C4B 4160   9.201   9.505   7.725  0.1674 -0.0943  0.0580
  261loPI    C1 4161  14.179   2.697  10.452  0.1976  0.1182 -0.0680
  261loPI    C2 4162  13.896   2.521  10.673  0.1950  0.0783 -0.1031
  261loPI    C3 4163  14.197   2.714  10.851  0.1084  0.1804 -0.0662
  261loPI   PO4 4164  14.141   2.476  10.239  0.2013  0.0822 -0.3772
  261loPI   GL1 4165  14.218   2.495   9.818 -0.0185 -0.1103 -0.0474
  261loPI   GL2 4166  13.882   2.323   9.813  0.2658  0.0074  0.2589
  261loPI   C1A 4167  14.298   2.472   9.460 -0.0879  0.2616  0.0843
  261loPI   C2A 4168  14.226   2.256   9.129 -0.1576  0.1364 -0.2224
  261loPI   C3A 4169  14.303   2.264   8.697 -0.0937 -0.1716 -0.2705
  261loPI   C4A 4170  14.639   2.083   8.437 -0.0138 -0.1598  0.1410
  261loPI   C5A 4171  15.037   2.064   8.125  0.0366 -0.3308  0.0162
  261loPI   C6A 4172  15.497   2.154   8.223 -0.0639 -0.2970 -0.0493
  261loPI   C1B 4173  13.763   2.360   9.417 -0.3725 -0.0571  0.3921
  261loPI   C2B 4174  13.658   2.333   8.955  0.0871  0.0697  0.5337
  261loPI   C3B 4175  13.512   2.295   8.555  0.1288  0.1160 -0.1733
  261loPI   C4B 4176  13.249   2.290   8.316  0.1720  0.1151  0.2518
  262loPI    C1 4177   1.135   3.889  10.121 -0.4504  0.2881 -0.0396
  262loPI    C2 4178   1.207   4.280  10.167  0.1982  0.1979 -0.1853
  262loPI    C3 4179   1.483   4.012  10.275 -0.2247 -0.2245 -0.1195
  262loPI   PO4 4180   0.922   3.888   9.859 -0.2047 -0.1689  0.4251
  262loPI   GL1 4181   0.759   3.879   9.503  0.1478  0.1135 -0.2621
  262loPI   GL2 4182   0.426   3.648   9.522 -0.3941 -0.5369 -0.1405
  262loPI   C1A 4183   0.371   4.124   9.335 -0.1087  0.2356 -0.1366
  262loPI   C2A 4184   0.241   4.167   8.964  0.1348  0.1624  0.0586
  262loPI   C3A 4185   0.210   4.251   8.423 -0.1305 -0.1652  0.1707
  262loPI   C4A 4186   0.316   4.168   7.894  0.0388  0.2520 -0.2731
  262loPI   C5A 4187   0.106   3.968   7.510  0.0669 -0.0931 -0.2246
  262loPI   C6A 4188  -0.041   3.977   7.099  0.1165 -0.1427 -0.2166
  262loPI   C1B 4189   0.563   3.740   9.007 -0.0435  0.2189  0.0420
  262loPI   C2B 4190   0.597   3.696   8.614 -0.0259 -0.1143 -0.0165
  262loPI   C3B 4191   0.458   3.743   8.161  0.2216 -0.1185 -0.3092
  262loPI   C4B 4192   0.417   3.616   7.664  0.0058  0.4674  0.0193
  263loPI    C1 4193   3.580  12.363   9.919 -0.0178  0.1719  0.0288
  263loPI    C2 4194   3.933  12.398  10.105 -0.0993  0.0343  0.2117
  263loPI    C3 4195   3.852  12.071   9.889  0.0196  0.2211 -0.1240
  263loPI   PO4 4196   3.501  12.579   9.788 -0.1938 -0.2280 -0.1154
  263loPI   GL1 4197   3.747  12.891   9.592  0.0391  0.1261 -0.2771
  263loPI   GL2 4198   3.863  12.561   9.502 -0.0744  0.2760  0.2117
  263loPI   C1A 4199   3.687  13.153   9.270  0.1647 -0.1953 -0.5788
  263loPI   C2A 4200   3.706  13.068   8.810 -0.0611 -0.2094 -0.1603
  263loPI   C3A 4201   4.016  13.263   8.492  0.1313 -0.1928 -0.2949
  263loPI   C4A 4202   4.263  13.304   8.157 -0.0322 -0.3487  0.2019
  263loPI   C5A 4203   4.274  13.416   7.768 -0.0289 -0.0272 -0.2016
  263loPI   C6A 4204   4.488  13.288   7.351 -0.0155 -0.1776  0.2860
  263loPI   C1B 4205   3.848  12.570   8.999  0.5009  0.0488 -0.2399
  263loPI   C2B 4206   3.868  12.605   8.597  0.1097 -0.2270  0.0696
  263loPI   C3B 4207   3.715  12.940   8.242  0.0007 -0.2732  0.1394
  263loPI   C4B 4208   3.763  13.219   7.980  0.2183  0.1610  0.0426
  264loPI    C1 4209  10.774  18.361   9.188  0.0486  0.0589  0.0840
  264loPI    C2 4210  10.959  18.660   8.996 -0.1339  0.1685  0.0760
  264loPI    C3 4211  10.732  18.738   9.315 -0.1170  0.0279  0.1232
  264loPI   PO4 4212  10.940  18.226   9.280  0.4011  0.2143 -0.1284
  264loPI   GL1 4213  11.164  18.027   8.997  0.0382  0.2383  0.2293
  264loPI   GL2 4214  11.169  17.617   8.883  0.0530 -0.0425  0.2016
  264loPI   C1A 4215  10.868  18.278   8.642 -0.1494  0.1089  0.1934
  264loPI   C2A 4216  10.890  18.242   8.242  0.1049 -0.4643  0.0603
  264loPI   C3A 4217  10.982  18.526   7.892  0.3435 -0.0624  0.0005
  264loPI   C4A 4218  11.404  18.805   7.771 -0.1099 -0.3389  0.0627
  264loPI   C5A 4219  11.838  18.757   7.730 -0.1107  0.0380  0.1569
  264loPI   C6A 4220  12.089  19.156   7.580  0.0387 -0.1873  0.0465
  264loPI   C1B 4221  11.320  17.475   8.505  0.0248  0.1602 -0.3030
  264loPI   C2B 4222  11.334  17.452   8.011 -0.1357 -0.0432 -0.0376
  264loPI   C3B 4223  11.088  17.503   7.699  0.0698  0.2165  0.1766
  264loPI   C4B 4224  11.076  17.737   7.381  0.0666 -0.2289 -0.0307
  265loPI    C1 4225  13.269   8.344  10.094 -0.0978  0.1352 -0.0321
  265loPI    C2 4226  13.232   8.561  10.428 -0.1280 -0.2196  0.2007
  265loPI    C3 4227  12.908   8.469  10.212 -0.0939  0.1190 -0.0029
  265loPI   PO4 4228  13.492   8.481   9.891  0.2680 -0.1390 -0.0057
  265loPI   GL1 4229  13.849   8.377   9.576  0.1566  0.0484 -0.1785
  265loPI   GL2 4230  13.617   8.211   9.398  0.0290  0.0618 -0.0185
  265loPI   C1A 4231  14.072   8.512   9.235 -0.1306 -0.0102  0.1836
  265loPI   C2A 4232  14.153   8.772   8.905  0.0081  0.2017  0.2522
  265loPI   C3A 4233  14.138   8.627   8.519  0.0663 -0.0465 -0.2531
  265loPI   C4A 4234  14.054   8.459   8.080 -0.1377  0.1151 -0.1363
  265loPI   C5A 4235  13.916   8.495   7.653  0.0113  0.2125  0.1444
  265loPI   C6A 4236  13.924   8.641   7.297 -0.0375 -0.0733 -0.0821
  265loPI   C1B 4237  13.303   8.184   9.018 -0.4468  0.1374 -0.0303
  265loPI   C2B 4238  13.317   8.015   8.584  0.1265 -0.1126  0.4406
  265loPI   C3B 4239  13.381   8.016   8.032  0.1739 -0.2968 -0.0494
  265loPI   C4B 4240  13.510   8.173   7.658  0.0967 -0.1266  0.0855
  266loPI    C1 4241   0.731   4.969   9.893  0.0263 -0.2346 -0.0334
  266loPI    C2 4242   1.021   5.129  10.118 -0.0934 -0.0981  0.0257
  266loPI    C3 4243   0.661   5.057  10.277 -0.2011  0.0659 -0.1393
  266loPI   PO4 4244   0.868   4.941   9.596  0.0123  0.1137 -0.0508
  266loPI   GL1 4245   0.896   5.033   9.246  0.0001  0.2244  0.2429
  266loPI   GL2 4246   0.950   5.335   9.231  0.0143  0.0873  0.3199
  266loPI   C1A 4247   0.780   5.152   8.682 -0.1844  0.2530 -0.1243
  266loPI   C2A 4248   0.639   5.213   8.283 -0.1050 -0.2257  0.1926
  266loPI   C3A 4249   0.436   5.235   7.864 -0.2984  0.0233 -0.0336
  266loPI   C4A 4250   0.500   4.960   7.466 -0.1773 -0.2492 -0.3249
  266loPI   C5A 4251   0.706   4.719   7.146 -0.1546  0.1539 -0.2845
  266loPI   C6A 4252   0.981   4.657   6.827  0.1287 -0.1203 -0.1148
  266loPI   C1B 4253   0.958   5.563   8.913  0.3621 -0.1225 -0.2446
  266loPI   C2B 4254   0.873   5.651   8.570 -0.0329  0.0949  0.0355
  266loPI   C3B 4255   0.484   5.939   8.570  0.4497  0.1568 -0.4661
  266loPI   C4B 4256   0.025   5.887   8.504 -0.4294  0.4488 -0.1297
  267loPI    C1 4257   5.969   9.511   9.753  0.2101 -0.2512  0.1040
  267loPI    C2 4258   5.825   9.745  10.043 -0.4099 -0.2606 -0.1807
  267loPI    C3 4259   5.892   9.357  10.114  0.0187 -0.1398  0.1120
  267loPI   PO4 4260   5.838   9.742   9.529  0.1299  0.1041 -0.1847
  267loPI   GL1 4261   5.757  10.027   9.215  0.1507  0.3116 -0.0198
  267loPI   GL2 4262   6.054  10.180   9.275  0.3294 -0.2281 -0.0112
  267loPI   C1A 4263   5.890  10.002   8.755 -0.2292 -0.2041  0.1997
  267loPI   C2A 4264   5.910   9.756   8.436  0.0594  0.1462  0.3310
  267loPI   C3A 4265   5.749  10.039   8.073 -0.2497 -0.0086  0.0663
  267loPI   C4A 4266   5.668  10.285   7.672 -0.1050 -0.2035 -0.0674
  267loPI   C5A 4267   6.015  10.586   7.533  0.1454 -0.1072  0.1692
  267loPI   C6A 4268   6.068  10.999   7.520 -0.0040 -0.1422  0.0791
  267loPI   C1B 4269   6.376  10.346   8.988 -0.0047 -0.2149  0.3978
  267loPI   C2B 4270   6.530  10.447   8.669  0.1281  0.0758  0.0736
  267loPI   C3B 4271   6.584  10.393   8.269  0.3564  0.2586  0.3594
  267loPI   C4B 4272   6.535  10.649   7.874 -0.2922 -0.2103 -0.0624
  268loPI    C1 4273  14.945   5.857  10.395 -0.0400 -0.0171 -0.1627
  268loPI    C2 4274  15.324   5.731  10.393 -0.0121  0.0621  0.0040
  268loPI    C3 4275  15.076   5.615  10.684 -0.0672  0.1525 -0.0065
  268loPI   PO4 4276  14.877   5.918  10.184  0.0660  0.0670  0.1598
  268loPI   GL1 4277  14.735   6.020   9.735 -0.0219  0.5100  0.0919
  268loPI   GL2 4278  14.962   6.220   9.780  0.3054  0.1201  0.1573
  268loPI   C1A 4279  14.567   6.096   9.345  0.0185 -0.4623 -0.1533
  268loPI   C2A 4280  14.646   6.305   8.997 -0.1709 -0.5200  0.0448
  268loPI   C3A 4281  14.953   6.463   8.725 -0.0076 -0.0827 -0.1041
  268loPI   C4A 4282  14.952   6.539   8.356 -0.0507  0.0930  0.2236
  268loPI   C5A 4283  15.156   6.552   8.043 -0.1753  0.1559 -0.0336
  268loPI   C6A 4284  15.560   6.517   7.895 -0.0761  0.0787 -0.1418
  268loPI   C1B 4285  15.067   6.081   9.395 -0.1322  0.1692  0.0373
  268loPI   C2B 4286  15.221   6.315   9.179 -0.4036 -0.3723 -0.0265
  268loPI   C3B 4287  15.160   6.785   9.029  0.2451 -0.1949  0.0796
  268loPI   C4B 4288  15.133   7.000   8.569  0.1188  0.0609 -0.0617
  269loPI    C1 4289  11.389   0.323  10.163  0.0529  0.1481  0.2659
  269loPI    C2 4290  11.414   0.185  10.538  0.0238 -0.1748  0.1523
  269loPI    C3 4291  11.621   0.510  10.430 -0.0722  0.0002  0.4813
  269loPI   PO4 4292  11.420   0.046   9.966 -0.0803 -0.0767  0.0624
  269loPI   GL1 4293  11.449  -0.243   9.584  0.0199 -0.2788  0.2550
  269loPI   GL2 4294  11.171  -0.492   9.505 -0.3917  0.2220  0.0497
  269loPI   C1A 4295  11.708  -0.025   9.303 -0.0273 -0.0191 -0.0869
  269loPI   C2A 4296  11.615   0.090   8.880 -0.3020  0.0320 -0.0139
  269loPI   C3A 4297  11.519   0.083   8.423  0.3551  0.2294  0.2039
  269loPI   C4A 4298  11.273   0.065   8.087 -0.1307 -0.1238  0.0982
  269loPI   C5A 4299  11.100  -0.019   7.632 -0.0692 -0.1004  0.1019
  269loPI   C6A 4300  11.021  -0.218   7.160  0.1206  0.5232 -0.1695
  269loPI   C1B 4301  11.317  -0.259   9.113 -0.3871  0.1229 -0.2818
  269loPI   C2B 4302  11.257  -0.299   8.714 -0.1647  0.1225  0.0908
  269loPI   C3B 4303  11.142  -0.353   8.308 -0.1669  0.0454 -0.3761
  269loPI   C4B 4304  10.812  -0.209   8.018  0.0923  0.0769  0.0033
  270loPI    C1 4305   8.335   2.727   9.871 -0.1254 -0.1922  0.0690
  270loPI    C2 4306   8.654   2.613   9.658 -0.1442 -0.0268 -0.0499
  270loPI    C3 4307   8.647   2.556  10.054  0.0758  0.0595 -0.0323
  270loPI   PO4 4308   8.177   2.570   9.692  0.3728 -0.2734 -0.1305
  270loPI   GL1 4309   8.146   2.407   9.169  0.1087  0.4010 -0.0559
  270loPI   GL2 4310   8.445   2.475   9.155  0.0498  0.2290  0.0053
  270loPI   C1A 4311   8.034   2.260   8.890 -0.1192 -0.1678  0.2743
  270loPI   C2A 4312   8.031   2.171   8.473 -0.2335 -0.1671  0.1465
  270loPI   C3A 4313   7.958   2.329   8.135 -0.0343  0.1407  0.1587
  270loPI   C4A 4314   7.902   2.207   7.674  0.1716  0.1961 -0.0081
  270loPI   C5A 4315   7.987   1.837   7.470  0.3705 -0.0862 -0.2531
  270loPI   C6A 4316   7.771   1.550   7.091  0.0166 -0.1701 -0.0940
  270loPI   C1B 4317   8.452   2.398   8.677  0.0707  0.0055  0.1052
  270loPI   C2B 4318   8.462   2.223   8.246  0.1576  0.2633  0.1961
  270loPI   C3B 4319   8.245   1.960   7.954  0.1426 -0.1809  0.0107
  270loPI   C4B 4320   8.395   1.616   7.698  0.1080  0.1464 -0.2220
  271loPI    C1 4321  16.734   1.903  10.296  0.1431  0.0816  0.0898
  271loPI    C2 4322  16.475   2.157  10.464 -0.0975 -0.2409  0.2171
  271loPI    C3 4323  16.780   2.013  10.678  0.2137  0.1631  0.0581
  271loPI   PO4 4324  16.774   2.113  10.024  0.3075  0.2272 -0.1384
  271loPI   GL1 4325  16.901   2.051   9.609 -0.1659 -0.2012  0.3497
  271loPI   GL2 4326  17.203   1.793   9.670 -0.0443  0.0734  0.1593
  271loPI   C1A 4327  17.067   1.879   9.166 -0.1169 -0.0963 -0.2068
  271loPI   C2A 4328  16.996   1.852   8.756 -0.2259 -0.0262  0.0129
  271loPI   C3A 4329  16.931   1.775   8.228  0.1624 -0.0055 -0.1197
  271loPI   C4A 4330  16.679   1.777   7.868  0.2212  0.1345 -0.1278
  271loPI   C5A 4331  16.285   1.576   7.885  0.2168  0.2167 -0.2954
  271loPI   C6A 4332  15.880   1.328   8.004 -0.0271 -0.0290  0.0738
  271loPI   C1B 4333  17.352   1.509   9.259 -0.2205  0.0067 -0.3849
  271loPI   C2B 4334  17.298   1.459   8.856 -0.0432  0.0402 -0.0616
  271loPI   C3B 4335  17.074   1.359   8.467 -0.0376  0.0386 -0.1727
  271loPI   C4B 4336  16.783   1.326   8.122  0.1162 -0.0415 -0.0009
  272loPI    C1 4337  18.429   7.929   9.983  0.0390  0.2063  0.1692
  272loPI    C2 4338  18.545   7.634  10.226  0.2003  0.0788 -0.0588
  272loPI    C3 4339  18.774   7.959  10.183  0.1855  0.0888 -0.0617
  272loPI   PO4 4340  18.411   7.780   9.779  0.1020 -0.0219  0.0767
  272loPI   GL1 4341  18.158   7.821   9.527 -0.0563 -0.3652  0.3334
  272loPI   GL2 4342  17.916   8.093   9.475  0.2863 -0.1140 -0.4771
  272loPI   C1A 4343  18.242   8.148   9.106  0.1408  0.2407 -0.0986
  272loPI   C2A 4344  18.013   8.093   8.676  0.1270 -0.2047 -0.2376
  272loPI   C3A 4345  18.058   8.125   8.223  0.2031 -0.0282 -0.0687
  272loPI   C4A 4346  18.208   8.431   7.934  0.0189  0.0288 -0.0441
  272loPI   C5A 4347  18.064   8.694   7.600  0.3464 -0.0322 -0.1060
  272loPI   C6A 4348  17.595   8.903   7.563  0.1587  0.1035 -0.0245
  272loPI   C1B 4349  17.542   7.976   9.093  0.0033  0.0024 -0.1182
  272loPI   C2B 4350  17.491   7.910   8.684 -0.0817  0.0669 -0.1183
  272loPI   C3B 4351  17.537   7.823   8.266 -0.0086 -0.0373 -0.1187
  272loPI   C4B 4352  17.397   7.722   7.880 -0.3856  0.0383 -0.0096
  273loPI    C1 4353   9.798  13.113   9.741 -0.1107 -0.0053  0.1787
  273loPI    C2 4354   9.696  12.997  10.110 -0.1033 -0.0467  0.1678
  273loPI    C3 4355   9.748  13.386  10.029  0.0189 -0.0472  0.2415
  273loPI   PO4 4356   9.584  12.944   9.577 -0.1674 -0.1150  0.5591
  273loPI   GL1 4357   9.454  12.776   9.214  0.1190 -0.1399  0.0422
  273loPI   GL2 4358   9.806  12.874   9.118 -0.3116 -0.1153 -0.3256
  273loPI   C1A 4359   9.383  13.010   8.878  0.0294 -0.0587 -0.1155
  273loPI   C2A 4360   9.309  13.231   8.485  0.1783  0.1789  0.1388
  273loPI   C3A 4361   9.065  13.616   8.383  0.3045  0.0185  0.2497
  273loPI   C4A 4362   8.973  13.805   7.970 -0.0490  0.1730  0.2000
  273loPI   C5A 4363   9.044  13.552   7.626  0.4349 -0.0758  0.1165
  273loPI   C6A 4364   8.829  13.353   7.229  0.0448 -0.0221 -0.1536
  273loPI   C1B 4365   9.745  12.626   8.740 -0.3174 -0.1746 -0.2800
  273loPI   C2B 4366   9.510  12.685   8.390 -0.0498 -0.0191 -0.0712
  273loPI   C3B 4367   9.351  12.630   7.956  0.1033 -0.1138 -0.3813
  273loPI   C4B 4368   9.068  12.881   7.547  0.3609 -0.0532  0.1625
  274loPI    C1 4369  12.600   2.181  10.368 -0.3198 -0.0064 -0.1139
  274loPI    C2 4370  12.204   2.234  10.388 -0.4010 -0.5301 -0.1841
  274loPI    C3 4371  12.359   1.869  10.437  0.0845 -0.3153 -0.0622
  274loPI   PO4 4372  12.633   2.320  10.184 -0.2917 -0.3455 -0.3209
  274loPI   GL1 4373  12.601   2.303   9.768  0.2796  0.3338  0.1829
  274loPI   GL2 4374  12.920   2.346   9.711  0.0045  0.2562  0.0345
  274loPI   C1A 4375  12.560   2.190   9.323 -0.0131 -0.0216 -0.0404
  274loPI   C2A 4376  12.680   1.948   9.051  0.0506 -0.0558 -0.0231
  274loPI   C3A 4377  12.743   1.800   8.690  0.1088  0.1312 -0.0819
  274loPI   C4A 4378  12.587   1.607   8.277  0.1714 -0.1533 -0.2070
  274loPI   C5A 4379  12.580   1.563   7.819  0.2485  0.1153 -0.3563
  274loPI   C6A 4380  12.339   1.867   7.509 -0.1230  0.2873  0.1506
  274loPI   C1B 4381  13.078   2.271   9.331  0.2274 -0.3303 -0.1006
  274loPI   C2B 4382  13.052   2.254   8.823 -0.2286 -0.0957  0.1763
  274loPI   C3B 4383  12.733   2.213   8.375 -0.0408  0.4109  0.2487
  274loPI   C4B 4384  12.542   2.548   8.181  0.2110 -0.0469 -0.1830
  275loPI    C1 4385  10.240   1.155   9.841 -0.1134  0.0895  0.0604
  275loPI    C2 4386  10.257   1.328  10.201 -0.1021  0.2668 -0.0237
  275loPI    C3 4387   9.915   1.333   9.993 -0.1925 -0.0939  0.1082
  275loPI   PO4 4388  10.391   1.286   9.723 -0.2472  0.0128  0.0390
  275loPI   GL1 4389  10.498   1.482   9.379 -0.2520  0.2669 -0.0693
  275loPI   GL2 4390  10.246   1.333   9.072  0.0760 -0.0498  0.4159
  275loPI   C1A 4391  10.586   1.732   9.008 -0.1575 -0.3081 -0.0161
  275loPI   C2A 4392  10.463   1.782   8.575 -0.0034  0.1469 -0.3244
  275loPI   C3A 4393  10.571   1.827   8.150 -0.0568 -0.0640 -0.0055
  275loPI   C4A 4394  10.646   2.173   7.781  0.0006  0.0609 -0.1728
  275loPI   C5A 4395  11.088   2.366   7.695  0.0500 -0.1126 -0.2379
  275loPI   C6A 4396  11.471   2.360   7.496 -0.2099 -0.0004  0.0477
  275loPI   C1B 4397  10.023   1.702   8.830  0.3094  0.0096 -0.0122
  275loPI   C2B 4398   9.931   1.815   8.463  0.3261 -0.1878 -0.0683
  275loPI   C3B 4399   9.965   1.971   8.024 -0.3396  0.0208 -0.0680
  275loPI   C4B 4400  10.146   2.240   7.871 -0.2201 -0.0305  0.0602
  276loPI    C1 4401  10.382   3.399  10.246  0.0707 -0.0883  0.2265
  276loPI    C2 4402  10.015   3.555  10.277  0.1251  0.1349 -0.1836
  276loPI    C3 4403  10.070   3.212  10.079  0.1206  0.0296 -0.0039
  276loPI   PO4 4404  10.581   3.575  10.135  0.2683  0.1364 -0.2341
  276loPI   GL1 4405  10.620   3.799   9.770 -0.3016  0.0399 -0.0875
  276loPI   GL2 4406  10.847   3.819   9.610  0.0192 -0.1233  0.1633
  276loPI   C1A 4407  10.562   3.591   9.320 -0.0768  0.2037  0.5270
  276loPI   C2A 4408  10.571   3.615   8.794 -0.0711  0.0248 -0.3180
  276loPI   C3A 4409  10.721   3.629   8.437 -0.1264  0.0783  0.0875
  276loPI   C4A 4410  10.819   3.647   7.996 -0.2318  0.4970 -0.0095
  276loPI   C5A 4411  11.258   3.566   7.782 -0.0579  0.0391  0.0439
  276loPI   C6A 4412  11.505   3.232   7.718  0.5849 -0.0436 -0.0977
  276loPI   C1B 4413  11.090   3.734   9.172 -0.1577 -0.0053 -0.0819
  276loPI   C2B 4414  11.283   3.953   8.841 -0.0229 -0.0135  0.0673
  276loPI   C3B 4415  11.480   4.175   8.606  0.0715  0.2961 -0.0249
  276loPI   C4B 4416  11.886   4.293   8.286  0.1800  0.3777 -0.0665
  277loPI    C1 4417   0.207   5.268  10.014  0.1575  0.0799  0.0388
  277loPI    C2 4418   0.109   5.587  10.233 -0.0248  0.0372  0.0210
  277loPI    C3 4419   0.240   5.254  10.412  0.2167  0.1380  0.0361
  277loPI   PO4 4420   0.345   5.314   9.871  0.0542 -0.0920 -0.0380
  277loPI   GL1 4421   0.385   5.017   9.551 -0.0144  0.0496 -0.0609
  277loPI   GL2 4422   0.432   5.168   9.380 -0.1132  0.0618  0.0958
  277loPI   C1A 4423   0.028   4.845   9.278 -0.1826 -0.4319 -0.1588
  277loPI   C2A 4424  -0.141   4.711   8.873 -0.1127 -0.2731  0.2082
  277loPI   C3A 4425  -0.120   4.612   8.459 -0.0280  0.1967 -0.0094
  277loPI   C4A 4426  -0.132   4.494   8.112  0.0038 -0.2589  0.0094
  277loPI   C5A 4427  -0.097   4.530   7.731  0.0044 -0.0083  0.2870
  277loPI   C6A 4428  -0.189   4.519   7.414  0.0377  0.1646  0.0013
  277loPI   C1B 4429   0.481   5.337   9.053 -0.0403 -0.3219 -0.0138
  277loPI   C2B 4430   0.341   5.430   8.582 -0.1042 -0.1630  0.1337
  277loPI   C3B 4431   0.321   5.670   8.160  0.2356 -0.2198  0.0077
  277loPI   C4B 4432   0.507   6.148   8.030 -0.1004 -0.1599 -0.1924
  278loPI    C1 4433   8.578  17.542   9.776  0.0517 -0.1580  0.4239
  278loPI    C2 4434   8.203  17.582   9.910 -0.1207  0.0071 -0.0853
  278loPI    C3 4435   8.275  17.375   9.575  0.2111  0.2073 -0.1428
  278loPI   PO4 4436   8.746  17.800   9.723  0.0653  0.3991  0.1763
  278loPI   GL1 4437   8.900  17.905   9.275 -0.0290  0.3723  0.0098
  278loPI   GL2 4438   8.715  17.585   9.274 -0.1623  0.0585 -0.0816
  278loPI   C1A 4439   8.763  18.205   9.036  0.0964 -0.0428 -0.0039
  278loPI   C2A 4440   8.963  18.400   8.740  0.1206  0.1596  0.0065
  278loPI   C3A 4441   9.053  18.339   8.268 -0.0716  0.0864  0.2245
  278loPI   C4A 4442   9.093  18.473   7.782 -0.2699 -0.2037  0.2222
  278loPI   C5A 4443   8.868  18.475   7.335  0.1005 -0.0605  0.0763
  278loPI   C6A 4444   8.380  18.607   7.358 -0.2071  0.0700  0.1373
  278loPI   C1B 4445   8.474  17.708   8.965  0.0127  0.1277 -0.2837
  278loPI   C2B 4446   8.156  17.648   8.778  0.0323 -0.0843  0.2094
  278loPI   C3B 4447   7.983  17.799   8.374 -0.1478  0.0409 -0.1444
  278loPI   C4B 4448   8.139  18.103   8.066 -0.1205  0.2041 -0.0306
  279loPI    C1 4449  15.280   7.114   9.993  0.1663 -0.0580 -0.2125
  279loPI    C2 4450  15.520   7.427   9.927  0.1097  0.0439  0.0533
  279loPI    C3 4451  15.596   7.177  10.230  0.0348 -0.0801 -0.0295
  279loPI   PO4 4452  15.230   7.065   9.817 -0.1634 -0.0043  0.2160
  279loPI   GL1 4453  15.305   7.167   9.459  0.1357 -0.2055 -0.0278
  279loPI   GL2 4454  15.640   7.231   9.363  0.1415  0.1652 -0.0024
  279loPI   C1A 4455  15.338   7.580   9.365 -0.0930 -0.1822 -0.2229
  279loPI   C2A 4456  15.587   7.663   9.025  0.0579 -0.2342 -0.0898
  279loPI   C3A 4457  15.939   7.675   8.793 -0.0185  0.0824  0.0619
  279loPI   C4A 4458  15.957   7.646   8.379 -0.3010 -0.0823  0.0888
  279loPI   C5A 4459  15.704   7.499   8.113 -0.3650 -0.0652 -0.0347
  279loPI   C6A 4460  15.354   7.607   7.804 -0.2024 -0.2240 -0.2242
  279loPI   C1B 4461  15.658   7.233   8.921  0.0742 -0.1214  0.2464
  279loPI   C2B 4462  15.537   7.302   8.492 -0.3095 -0.1308  0.2456
  279loPI   C3B 4463  15.116   7.420   8.294  0.1066  0.1157 -0.1501
  279loPI   C4B 4464  14.853   7.515   8.040 -0.0306  0.1820 -0.5235
  280loPI    C1 4465  10.002  15.537   9.945  0.1724 -0.1208 -0.0418
  280loPI    C2 4466   9.867  15.620  10.313  0.1617 -0.1204 -0.0458
  280loPI    C3 4467  10.255  15.539  10.255  0.1600 -0.1380 -0.0316
  280loPI   PO4 4468   9.783  15.540   9.757 -0.0277  0.2298 -0.3660
  280loPI   GL1 4469   9.891  15.644   9.405  0.3107  0.1326 -0.0530
  280loPI   GL2 4470  10.172  15.720   9.224  0.1391 -0.2958 -0.1454
  280loPI   C1A 4471   9.590  15.896   9.025 -0.1088  0.1917 -0.4405
  280loPI   C2A 4472   9.460  16.047   8.566 -0.1218  0.3123 -0.1337
  280loPI   C3A 4473   9.238  16.134   8.196 -0.1225 -0.4000 -0.1752
  280loPI   C4A 4474   9.109  16.037   7.736  0.0046  0.1528 -0.2226
  280loPI   C5A 4475   9.182  15.899   7.379 -0.0237 -0.1257  0.0377
  280loPI   C6A 4476   9.135  15.758   6.841 -0.0156  0.2973 -0.0077
  280loPI   C1B 4477  10.397  15.818   8.885  0.1307  0.1508 -0.3587
  280loPI   C2B 4478  10.538  15.821   8.454  0.2444  0.1439 -0.1704
  280loPI   C3B 4479  10.497  15.612   8.019  0.0302 -0.0968 -0.0836
  280loPI   C4B 4480  10.805  15.318   7.940 -0.0008 -0.1806  0.1506
  281loPI    C1 4481   5.375   2.938  10.186  0.1159 -0.0695  0.0516
  281loPI    C2 4482   5.336   2.591   9.991 -0.0366 -0.0271  0.0053
  281loPI    C3 4483   5.467   2.594  10.369  0.2738 -0.1084 -0.0981
  281loPI   PO4 4484   5.235   3.165   9.940 -0.3485  0.0657 -0.0254
  281loPI   GL1 4485   5.340   3.311   9.501 -0.0050  0.0244  0.0777
  281loPI   GL2 4486   5.130   3.473   9.229  0.0950  0.4731  0.2741
  281loPI   C1A 4487   5.536   3.115   9.096  0.3863 -0.0159 -0.0862
  281loPI   C2A 4488   5.543   3.025   8.638 -0.2697 -0.1964  0.1331
  281loPI   C3A 4489   5.630   3.038   8.287  0.1150 -0.1327  0.0557
  281loPI   C4A 4490   5.448   2.943   7.950 -0.1556  0.0042  0.0521
  281loPI   C5A 4491   5.643   2.851   7.471  0.2024 -0.0143  0.2675
  281loPI   C6A 4492   5.900   2.782   7.211  0.6077 -0.0630  0.1386
  281loPI   C1B 4493   4.979   3.479   8.710 -0.0286  0.4041 -0.0325
  281loPI   C2B 4494   4.875   3.655   8.266  0.1191 -0.0928  0.1372
  281loPI   C3B 4495   4.514   3.814   7.944  0.1894  0.2504  0.1852
  281loPI   C4B 4496   4.396   3.949   7.457 -0.0044  0.2017  0.0695
  282loPI    C1 4497   2.199  15.453   9.997 -0.2151 -0.0872 -0.0316
  282loPI    C2 4498   2.440  15.133   9.998 -0.2439 -0.1089  0.0272
  282loPI    C3 4499   2.396  15.352  10.331 -0.1990 -0.0246 -0.0220
  282loPI   PO4 4500   2.191  15.556   9.788 -0.0510 -0.2212 -0.0628
  282loPI   GL1 4501   2.456  15.829   9.555 -0.0497  0.3614 -0.3340
  282loPI   GL2 4502   2.526  15.516   9.421 -0.1653  0.0443 -0.1007
  282loPI   C1A 4503   2.340  16.175   9.243  0.0520  0.1500 -0.2092
  282loPI   C2A 4504   2.149  16.295   8.769  0.0299  0.1875 -0.1821
  282loPI   C3A 4505   2.183  16.416   8.370 -0.0292  0.1435  0.0842
  282loPI   C4A 4506   2.307  16.327   7.982 -0.0929 -0.2612 -0.1082
  282loPI   C5A 4507   2.601  16.412   7.829 -0.1669 -0.0142 -0.0777
  282loPI   C6A 4508   2.922  16.731   7.661 -0.1074  0.0648  0.2171
  282loPI   C1B 4509   2.575  15.211   9.124  0.1165 -0.0796 -0.2045
  282loPI   C2B 4510   2.783  15.027   8.780 -0.2932 -0.1766  0.1223
  282loPI   C3B 4511   2.547  15.116   8.306 -0.0852 -0.1592  0.2087
  282loPI   C4B 4512   2.495  15.480   8.056  0.0830 -0.2702  0.3503
  283loPI    C1 4513  18.254   9.711   9.766 -0.1530 -0.0785  0.1806
  283loPI    C2 4514  18.489   9.612  10.074 -0.1129 -0.0777  0.1504
  283loPI    C3 4515  18.141   9.798  10.140  0.0043  0.1323  0.1811
  283loPI   PO4 4516  18.372   9.472   9.546  0.0504  0.1447 -0.5681
  283loPI   GL1 4517  18.335   9.198   9.224 -0.2480 -0.1981 -0.5028
  283loPI   GL2 4518  18.182   9.422   9.053  0.3967  0.0671 -0.2312
  283loPI   C1A 4519  18.443   9.147   8.701  0.1032 -0.0616  0.1375
  283loPI   C2A 4520  18.373   9.246   8.266 -0.1617  0.1870  0.0748
  283loPI   C3A 4521  18.225   9.396   7.853 -0.1343  0.2289  0.0641
  283loPI   C4A 4522  17.971   9.306   7.381  0.2156 -0.0431 -0.1065
  283loPI   C5A 4523  17.836   8.996   7.140  0.1794  0.1876  0.1188
  283loPI   C6A 4524  17.648   8.751   6.821  0.0845  0.4721 -0.0717
  283loPI   C1B 4525  18.221   9.606   8.739  0.1618  0.1763  0.0120
  283loPI   C2B 4526  18.170   9.697   8.409 -0.0091 -0.1204  0.1173
  283loPI   C3B 4527  18.461   9.838   8.147 -0.0197  0.0951  0.1532
  283loPI   C4B 4528  18.496   9.898   7.701 -0.0422  0.0815  0.1964
  284loPI    C1 4529   4.703  17.169   9.935  0.1115  0.0842  0.0757
  284loPI    C2 4530   4.842  17.506  10.098  0.2096  0.0168  0.1329
  284loPI    C3 4531   5.084  17.191  10.054  0.1345 -0.0263  0.0242
  284loPI   PO4 4532   4.608  17.335   9.668 -0.0526 -0.0122  0.3568
  284loPI   GL1 4533   4.332  17.593   9.394  0.1011 -0.0813  0.0903
  284loPI   GL2 4534   4.125  17.801   9.236  0.0705 -0.1171 -0.2357
  284loPI   C1A 4535   4.426  17.315   9.010 -0.0349 -0.2316 -0.0224
  284loPI   C2A 4536   4.613  17.065   8.727  0.1117 -0.1202  0.0202
  284loPI   C3A 4537   4.694  17.106   8.319 -0.0977 -0.0029 -0.1425
  284loPI   C4A 4538   4.535  17.154   7.862 -0.0296  0.2023  0.3386
  284loPI   C5A 4539   4.436  17.399   7.433 -0.4296 -0.1942  0.1648
  284loPI   C6A 4540   4.108  17.289   7.248  0.3059  0.1413  0.3356
  284loPI   C1B 4541   4.337  17.793   8.810 -0.3084  0.0652 -0.0090
  284loPI   C2B 4542   4.372  17.970   8.354  0.4122  0.1624  0.1690
  284loPI   C3B 4543   4.192  18.000   8.006 -0.0905 -0.2622  0.1996
  284loPI   C4B 4544   3.741  18.067   7.875  0.0890 -0.2261 -0.1834
  285loPI    C1 4545  17.923  11.659   9.942  0.5119  0.0556  0.1689
  285loPI    C2 4546  17.825  11.907  10.240  0.1642  0.3339 -0.1659
  285loPI    C3 4547  17.817  11.511  10.298 -0.1796  0.3766  0.1137
  285loPI   PO4 4548  17.964  11.921   9.710  0.2553 -0.0432  0.0058
  285loPI   GL1 4549  18.032  11.909   9.272  0.0124 -0.1915 -0.1291
  285loPI   GL2 4550  18.333  11.953   9.197 -0.0259  0.1045  0.0935
  285loPI   C1A 4551  17.765  11.983   9.013 -0.0542 -0.2752  0.2639
  285loPI   C2A 4552  17.399  11.863   8.693  0.0297 -0.1770  0.1715
  285loPI   C3A 4553  17.190  11.712   8.306  0.0251  0.0888  0.3978
  285loPI   C4A 4554  17.293  11.579   7.909  0.0001  0.0716 -0.0290
  285loPI   C5A 4555  17.560  11.601   7.603  0.0505  0.1790 -0.2890
  285loPI   C6A 4556  17.673  11.624   7.053 -0.2451 -0.0133 -0.1396
  285loPI   C1B 4557  18.445  12.242   8.909  0.0204  0.0848 -0.0451
  285loPI   C2B 4558  18.372  12.368   8.558  0.5202  0.1534 -0.1837
  285loPI   C3B 4559  18.176  12.537   8.171  0.1918  0.3707  0.2805
  285loPI   C4B 4560  17.995  12.350   7.822  0.2468  0.3072  0.0464
  286loPI    C1 4561   4.240   1.792   9.667 -0.2002  0.0130  0.0545
  286loPI    C2 4562   4.073   2.043   9.930 -0.1150  0.1522 -0.0227
  286loPI    C3 4563   4.102   1.653  10.016  0.1478  0.2356  0.2878
  286loPI   PO4 4564   4.076   1.873   9.382 -0.0835 -0.2104  0.3465
  286loPI   GL1 4565   4.172   2.139   9.066 -0.0120 -0.1230 -0.1056
  286loPI   GL2 4566   4.422   2.367   9.034  0.3109  0.2752  0.2551
  286loPI   C1A 4567   4.232   1.878   8.737 -0.5877  0.3112 -0.0184
  286loPI   C2A 4568   4.154   1.584   8.456  0.0451 -0.1555  0.3526
  286loPI   C3A 4569   4.046   1.607   8.055  0.2985 -0.4383 -0.3681
  286loPI   C4A 4570   4.197   1.512   7.663  0.3215 -0.3015 -0.0066
  286loPI   C5A 4571   4.114   1.480   7.268 -0.1275 -0.1090 -0.2247
  286loPI   C6A 4572   3.989   1.518   6.896 -0.0598  0.1595 -0.2018
  286loPI   C1B 4573   4.349   2.394   8.669 -0.0792 -0.1919  0.1536
  286loPI   C2B 4574   4.466   2.361   8.242  0.1047 -0.0036 -0.0919
  286loPI   C3B 4575   4.580   2.477   7.891 -0.0060 -0.0585  0.0756
  286loPI   C4B 4576   4.733   2.197   7.625  0.1902  0.0719  0.1137
  287loPI    C1 4577   7.784  15.055   9.631 -0.0027  0.2039 -0.1962
  287loPI    C2 4578   7.398  15.130   9.558 -0.2104 -0.3863  0.2232
  287loPI    C3 4579   7.549  15.194   9.923  0.1329 -0.0244  0.0255
  287loPI   PO4 4580   7.837  14.882   9.449 -0.0332 -0.1063 -0.2470
  287loPI   GL1 4581   7.754  14.746   9.020 -0.0309 -0.4316 -0.1717
  287loPI   GL2 4582   7.538  14.468   8.939 -0.0746  0.1829 -0.1250
  287loPI   C1A 4583   7.905  14.966   8.726 -0.0900  0.1580  0.1072
  287loPI   C2A 4584   8.040  15.050   8.364  0.2000  0.3134 -0.3687
  287loPI   C3A 4585   8.310  15.255   8.236  0.5263 -0.2339 -0.1143
  287loPI   C4A 4586   8.424  15.465   7.960  0.1642 -0.2495  0.0452
  287loPI   C5A 4587   8.319  15.554   7.576  0.0956  0.2798  0.1452
  287loPI   C6A 4588   8.253  15.625   7.190  0.2913 -0.0951 -0.0092
  287loPI   C1B 4589   7.414  14.766   8.599  0.2013  0.1051  0.1548
  287loPI   C2B 4590   7.550  15.051   8.273 -0.2497 -0.3352 -0.0105
  287loPI   C3B 4591   7.697  15.478   8.165  0.0785  0.1353  0.0554
  287loPI   C4B 4592   7.728  15.861   8.132 -0.2503 -0.1451  0.2200
  288loPI    C1 4593  12.848  15.748   9.807 -0.0298  0.2254  0.0988
  288loPI    C2 4594  12.819  15.517  10.132  0.0547 -0.1684 -0.1659
  288loPI    C3 4595  13.094  15.807  10.117 -0.2345  0.1421  0.2799
  288loPI   PO4 4596  12.759  15.582   9.635 -0.3514  0.2610  0.1170
  288loPI   GL1 4597  12.664  15.510   9.252  0.0950  0.0498  0.0568
  288loPI   GL2 4598  12.388  15.397   9.055 -0.1713 -0.0349  0.1646
  288loPI   C1A 4599  12.761  15.720   8.858 -0.0828 -0.4022 -0.0244
  288loPI   C2A 4600  12.465  15.947   8.612  0.0313  0.1127  0.3087
  288loPI   C3A 4601  12.456  16.031   8.201 -0.3000  0.0091  0.0708
  288loPI   C4A 4602  12.452  15.877   7.839  0.2016  0.0061 -0.0871
  288loPI   C5A 4603  12.503  15.805   7.347  0.0999 -0.2635 -0.1657
  288loPI   C6A 4604  12.289  15.468   7.244  0.0222  0.2116 -0.1221
  288loPI   C1B 4605  12.540  15.351   8.606 -0.0244  0.0109  0.0491
  288loPI   C2B 4606  12.642  15.582   8.252  0.0311  0.0831  0.2319
  288loPI   C3B 4607  12.327  15.386   7.959 -0.0916 -0.2701  0.1495
  288loPI   C4B 4608  12.347  15.145   7.608 -0.2544 -0.0554  0.0472
  289loPI    C1 4609  18.174  14.302  10.193  0.1159  0.0885  0.2126
  289loPI    C2 4610  18.481  14.091  10.339  0.2028  0.0238 -0.0569
  289loPI    C3 4611  18.106  13.965  10.397  0.2466 -0.1156 -0.0741
  289loPI   PO4 4612  18.407  14.467   9.970  0.0273 -0.0600  0.0247
  289loPI   GL1 4613  18.544  14.628   9.536  0.3386  0.0536  0.0842
  289loPI   GL2 4614  18.790  14.441   9.592 -0.2574  0.0042  0.0360
  289loPI   C1A 4615  18.375  14.764   9.110  0.0752  0.0052  0.0082
  289loPI   C2A 4616  18.362  14.513   8.709  0.0251 -0.0647 -0.2436
  289loPI   C3A 4617  18.364  14.374   8.312  0.0275 -0.1030 -0.0753
  289loPI   C4A 4618  18.427  14.257   8.001 -0.1937  0.1776  0.1175
  289loPI   C5A 4619  18.509  13.892   7.668 -0.0877 -0.2001  0.0729
  289loPI   C6A 4620  18.700  13.777   7.239  0.0983  0.1391  0.3372
  289loPI   C1B 4621  19.094  14.495   9.292  0.0091 -0.0937  0.3586
  289loPI   C2B 4622  19.408  14.784   9.316  0.1310  0.2297  0.1385
  289loPI   C3B 4623  19.727  14.842   8.983 -0.1163  0.0869 -0.0050
  289loPI   C4B 4624  20.005  14.457   8.879  0.1155  0.0618  0.0658
  290loPI    C1 4625  13.296   6.032  10.492  0.0004 -0.1650  0.1019
  290loPI    C2 4626  13.264   5.753  10.777 -0.0739  0.1263  0.3846
  290loPI    C3 4627  13.327   6.135  10.878  0.3804  0.1641 -0.0096
  290loPI   PO4 4628  13.130   5.919  10.328  0.0328  0.0517 -0.0235
  290loPI   GL1 4629  13.070   5.732   9.990  0.0453  0.3083 -0.1297
  290loPI   GL2 4630  12.870   5.481   9.856  0.2800  0.3076  0.1260
  290loPI   C1A 4631  13.261   5.730   9.555  0.1020 -0.0743 -0.0500
  290loPI   C2A 4632  13.346   5.490   9.135 -0.0092  0.4366  0.0316
  290loPI   C3A 4633  13.416   5.499   8.734 -0.1248 -0.0122  0.0629
  290loPI   C4A 4634  13.579   5.620   8.350 -0.0214 -0.2058  0.2480
  290loPI   C5A 4635  13.631   5.712   7.951  0.3121  0.0925 -0.0965
  290loPI   C6A 4636  13.819   5.847   7.595 -0.1465 -0.0200 -0.2038
  290loPI   C1B 4637  12.895   5.266   9.423  0.0586  0.6165 -0.1676
  290loPI   C2B 4638  13.156   4.991   9.162  0.0189 -0.0185 -0.1532
  290loPI   C3B 4639  13.159   4.726   8.736 -0.0817  0.1873  0.2254
  290loPI   C4B 4640  13.602   4.683   8.498  0.2460 -0.0329  0.0224
  291loPI    C1 4641  10.764   5.718  10.388 -0.1452  0.0901 -0.0799
  291loPI    C2 4642  10.434   5.910  10.508  0.0068  0.1668  0.2264
  291loPI    C3 4643  10.606   5.640  10.747  0.1192  0.0646  0.0330
  291loPI   PO4 4644  10.701   5.680  10.148 -0.1053  0.2939  0.1540
  291loPI   GL1 4645  10.922   5.716   9.723  0.0998  0.4032 -0.1313
  291loPI   GL2 4646  11.184   5.528   9.804 -0.0283 -0.0734  0.2690
  291loPI   C1A 4647  10.758   5.273   9.550 -0.0547 -0.1351  0.0067
  291loPI   C2A 4648  10.727   5.128   9.106  0.1125  0.0613 -0.1224
  291loPI   C3A 4649  10.596   5.086   8.623  0.2195  0.0546 -0.0937
  291loPI   C4A 4650  10.617   5.028   8.192  0.4580 -0.3346  0.1665
  291loPI   C5A 4651  10.562   4.957   7.719 -0.4539  0.5899  0.1871
  291loPI   C6A 4652  10.543   5.269   7.510 -0.0307  0.4650 -0.3635
  291loPI   C1B 4653  11.414   5.724   9.442  0.0264 -0.3296 -0.1740
  291loPI   C2B 4654  11.566   5.981   9.183  0.0752  0.3027 -0.1276
  291loPI   C3B 4655  11.597   6.362   8.854  0.2538 -0.2763  0.2656
  291loPI   C4B 4656  11.643   6.529   8.442  0.1258  0.1025  0.2715
  292loPI    C1 4657   6.070   1.380   9.513  0.0372  0.0023  0.3070
  292loPI    C2 4658   6.257   1.380   9.159 -0.0542 -0.0723  0.2581
  292loPI    C3 4659   6.096   1.042   9.300 -0.3916  0.0477  0.1715
  292loPI   PO4 4660   6.159   1.667   9.598  0.1263  0.0606 -0.1436
  292loPI   GL1 4661   6.433   1.810   9.328 -0.0274  0.1679  0.0588
  292loPI   GL2 4662   6.647   1.623   9.391  0.0664 -0.1040  0.0037
  292loPI   C1A 4663   6.466   1.831   8.906  0.2219  0.0434 -0.2091
  292loPI   C2A 4664   6.209   1.719   8.574 -0.0456  0.1529  0.2121
  292loPI   C3A 4665   5.918   1.839   8.215 -0.3167  0.0437 -0.0092
  292loPI   C4A 4666   5.882   1.964   7.874 -0.4334  0.0405  0.1552
  292loPI   C5A 4667   5.760   1.885   7.452 -0.2384 -0.1163 -0.3364
  292loPI   C6A 4668   5.824   2.051   7.155 -0.2432 -0.1644 -0.2076
  292loPI   C1B 4669   6.925   1.777   8.975 -0.0229  0.0585  0.0015
  292loPI   C2B 4670   6.988   1.994   8.674 -0.2413 -0.0048 -0.0136
  292loPI   C3B 4671   6.941   2.302   8.371  0.2128 -0.0578 -0.1013
  292loPI   C4B 4672   6.870   2.416   7.924 -0.2684  0.2312  0.0292
  293loPI    C1 4673   7.780   4.439   9.791  0.2295 -0.0432 -0.0129
  293loPI    C2 4674   7.528   4.185   9.972  0.0670  0.0850 -0.0567
  293loPI    C3 4675   7.890   4.254  10.128  0.0929 -0.1344 -0.0171
  293loPI   PO4 4676   7.605   4.561   9.672 -0.1639 -0.1058 -0.0683
  293loPI   GL1 4677   7.526   4.897   9.382 -0.2739  0.5698  0.0775
  293loPI   GL2 4678   7.230   4.705   9.317  0.1337  0.2491 -0.0495
  293loPI   C1A 4679   7.626   4.673   8.930 -0.2360 -0.1558  0.0086
  293loPI   C2A 4680   7.664   4.488   8.602  0.2482  0.1125  0.1259
  293loPI   C3A 4681   7.421   4.455   8.252 -0.2419 -0.0881 -0.3921
  293loPI   C4A 4682   7.424   4.460   7.837 -0.0178 -0.0047 -0.1006
  293loPI   C5A 4683   7.400   4.212   7.435  0.0763 -0.1589  0.0851
  293loPI   C6A 4684   7.732   3.900   7.458 -0.0950  0.1474 -0.0973
  293loPI   C1B 4685   7.081   4.856   9.025 -0.0573 -0.2928 -0.0669
  293loPI   C2B 4686   6.708   4.924   8.746 -0.0065 -0.0544  0.2605
  293loPI   C3B 4687   6.752   4.910   8.310  0.1152 -0.0095 -0.3196
  293loPI   C4B 4688   7.046   4.811   8.053 -0.1111  0.0851 -0.2632
  294loPI    C1 4689   8.535  14.031   9.780 -0.0300 -0.0928 -0.1267
  294loPI    C2 4690   8.578  13.659   9.919  0.0079 -0.0777 -0.0982
  294loPI    C3 4691   8.354  13.922  10.119 -0.0402 -0.0927 -0.1322
  294loPI   PO4 4692   8.604  13.934   9.402 -0.2424 -0.0426 -0.0715
  294loPI   GL1 4693   8.563  13.852   9.029 -0.1004 -0.0495 -0.3133
  294loPI   GL2 4694   8.470  14.110   8.713  0.0948  0.1648 -0.1274
  294loPI   C1A 4695   8.552  13.575   8.677  0.2972 -0.2210  0.1244
  294loPI   C2A 4696   8.554  13.693   8.213  0.1758 -0.5297 -0.2115
  294loPI   C3A 4697   8.206  13.710   7.930  0.0317 -0.2521  0.1887
  294loPI   C4A 4698   7.805  14.047   7.930 -0.1008  0.2069 -0.1004
  294loPI   C5A 4699   7.373  14.037   7.849 -0.0117 -0.0320 -0.1183
  294loPI   C6A 4700   6.952  14.048   7.786 -0.0141 -0.1254  0.0538
  294loPI   C1B 4701   8.190  14.185   8.380  0.0758 -0.2508  0.1302
  294loPI   C2B 4702   8.147  14.405   8.039 -0.2573  0.0990  0.1289
  294loPI   C3B 4703   8.034  14.833   7.865  0.1728 -0.2635  0.1681
  294loPI   C4B 4704   8.059  15.120   7.868 -0.1044 -0.0120 -0.0203
  295loPI    C1 4705  11.728  15.577   9.802  0.3851 -0.0684 -0.0693
  295loPI    C2 4706  11.866  15.213   9.893 -0.0415 -0.1925  0.1065
  295loPI    C3 4707  11.972  15.528  10.115  0.1958 -0.2337  0.0548
  295loPI   PO4 4708  11.763  15.603   9.554  0.0571 -0.0815 -0.4582
  295loPI   GL1 4709  11.587  15.512   9.149  0.0086 -0.5639 -0.5348
  295loPI   GL2 4710  11.777  15.341   9.110  0.0212  0.1645 -0.2788
  295loPI   C1A 4711  11.416  15.634   8.827 -0.2323  0.1294 -0.0234
  295loPI   C2A 4712  11.312  15.626   8.426 -0.1948  0.0515 -0.2155
  295loPI   C3A 4713  11.187  15.566   8.110 -0.1107  0.2914 -0.0686
  295loPI   C4A 4714  11.335  15.526   7.709  0.1607  0.1645 -0.1080
  295loPI   C5A 4715  11.482  15.343   7.423 -0.0604 -0.2322 -0.0191
  295loPI   C6A 4716  11.367  15.135   7.119 -0.0130 -0.0545 -0.0969
  295loPI   C1B 4717  11.998  15.097   8.811 -0.0895  0.1174 -0.3131
  295loPI   C2B 4718  12.074  15.041   8.327 -0.0714 -0.0466  0.1221
  295loPI   C3B 4719  12.073  14.855   7.944 -0.1637 -0.0280 -0.0169
  295loPI   C4B 4720  12.175  14.504   7.633 -0.0033 -0.0928  0.3169
  296loPI    C1 4721   2.193  10.185  10.112 -0.0842 -0.1026  0.4403
  296loPI    C2 4722   2.094  10.541  10.266 -0.0465  0.2253 -0.2562
  296loPI    C3 4723   2.475  10.419  10.275 -0.0828  0.1271  0.1179
  296loPI   PO4 4724   1.990  10.192   9.854 -0.0138 -0.0467 -0.1218
  296loPI   GL1 4725   2.200  10.217   9.448 -0.2846  0.0565 -0.0620
  296loPI   GL2 4726   2.202   9.986   9.210 -0.3773  0.1626 -0.3841
  296loPI   C1A 4727   2.599  10.303   9.251  0.1287 -0.1253 -0.2925
  296loPI   C2A 4728   2.564  10.189   8.870 -0.2924  0.2392 -0.0968
  296loPI   C3A 4729   2.602  10.180   8.444  0.1862 -0.3041  0.2126
  296loPI   C4A 4730   2.629  10.344   7.925 -0.3538  0.2102 -0.4144
  296loPI   C5A 4731   2.769  10.795   7.609  0.0774  0.0180  0.1586
  296loPI   C6A 4732   2.590  11.164   7.337 -0.1653 -0.0971 -0.0205
  296loPI   C1B 4733   1.831  10.265   9.033  0.0932  0.1052 -0.1818
  296loPI   C2B 4734   1.700  10.260   8.656 -0.1285  0.1809 -0.2200
  296loPI   C3B 4735   1.776  10.251   8.242  0.3804  0.2104  0.0874
  296loPI   C4B 4736   1.939  10.406   7.906 -0.3872  0.0058  0.2953
  297loPI    C1 4737   3.672   1.804   9.625 -0.0627 -0.2315 -0.1489
  297loPI    C2 4738   3.664   1.483   9.864  0.2893 -0.1430 -0.0110
  297loPI    C3 4739   3.601   1.847  10.017 -0.1291 -0.1424 -0.1705
  297loPI   PO4 4740   3.487   1.774   9.472  0.3399 -0.1317 -0.1320
  297loPI   GL1 4741   3.567   2.045   9.125  0.0583 -0.4016 -0.4061
  297loPI   GL2 4742   3.216   2.093   9.164 -0.2122 -0.1248  0.1955
  297loPI   C1A 4743   3.840   2.179   8.749  0.1821  0.0416  0.0190
  297loPI   C2A 4744   4.050   2.105   8.311  0.2640  0.0268  0.1088
  297loPI   C3A 4745   4.150   2.086   7.894 -0.3239  0.3297  0.0955
  297loPI   C4A 4746   4.248   2.004   7.511  0.0201 -0.3804 -0.0552
  297loPI   C5A 4747   4.571   2.094   7.151 -0.0608 -0.1740 -0.0730
  297loPI   C6A 4748   4.551   2.297   6.895 -0.1133 -0.0043 -0.1504
  297loPI   C1B 4749   3.378   1.964   8.675 -0.1101  0.1332  0.1996
  297loPI   C2B 4750   3.203   1.878   8.319 -0.1135 -0.1840 -0.1894
  297loPI   C3B 4751   2.911   1.793   7.949  0.1507  0.0563 -0.1525
  297loPI   C4B 4752   2.761   1.759   7.462  0.1718  0.1885 -0.1479
  298loPI    C1 4753  17.930   2.497   9.985  0.0283 -0.0419 -0.0694
  298loPI    C2 4754  18.115   2.367  10.315 -0.0636  0.0444  0.0167
  298loPI    C3 4755  17.894   2.700  10.327 -0.0431  0.0644 -0.1395
  298loPI   PO4 4756  17.994   2.315   9.817  0.3458  0.0079 -0.1324
  298loPI   GL1 4757  17.984   2.074   9.473  0.1161  0.2339 -0.1064
  298loPI   GL2 4758  17.636   1.991   9.351  0.0066  0.2797 -0.1990
  298loPI   C1A 4759  18.000   2.040   9.024  0.1901  0.0573  0.2852
  298loPI   C2A 4760  17.878   1.939   8.603 -0.1320 -0.2902  0.0255
  298loPI   C3A 4761  17.889   1.838   8.221  0.0442 -0.0307 -0.0259
  298loPI   C4A 4762  17.834   1.943   7.821 -0.0466  0.0303  0.1379
  298loPI   C5A 4763  18.116   1.846   7.589  0.2914 -0.1296 -0.1630
  298loPI   C6A 4764  18.551   1.910   7.671 -0.2045 -0.1252  0.0175
  298loPI   C1B 4765  17.465   1.965   8.925 -0.2016  0.3856 -0.0267
  298loPI   C2B 4766  17.438   1.852   8.366  0.1140  0.0726 -0.4043
  298loPI   C3B 4767  17.370   1.713   7.937  0.0437 -0.4047 -0.0590
  298loPI   C4B 4768  17.171   1.781   7.643 -0.3331 -0.2329 -0.1094
  299loPI    C1 4769  10.246   7.181   9.851 -0.2525  0.2558  0.1045
  299loPI    C2 4770  10.088   7.123  10.214 -0.1055 -0.1409  0.1100
  299loPI    C3 4771  10.438   6.953  10.119 -0.0588  0.1007 -0.1613
  299loPI   PO4 4772   9.895   7.267   9.622  0.0308 -0.1795  0.1509
  299loPI   GL1 4773   9.667   7.387   9.248 -0.1877 -0.0763  0.3342
  299loPI   GL2 4774   9.561   7.572   9.093 -0.2144 -0.0616  0.4005
  299loPI   C1A 4775   9.798   7.123   8.919  0.1720  0.2374  0.1377
  299loPI   C2A 4776   9.514   7.046   8.558 -0.3884  0.2538 -0.6516
  299loPI   C3A 4777   9.445   6.908   8.100  0.2523 -0.0763 -0.4455
  299loPI   C4A 4778   9.573   6.642   7.656  0.2064  0.0420 -0.2472
  299loPI   C5A 4779   9.829   6.240   7.545  0.1718  0.0385  0.0481
  299loPI   C6A 4780  10.070   5.808   7.521  0.0852  0.0547 -0.0162
  299loPI   C1B 4781   9.609   7.507   8.709  0.3742 -0.3619  0.2099
  299loPI   C2B 4782   9.865   7.502   8.395 -0.0832 -0.1097  0.3712
  299loPI   C3B 4783  10.231   7.553   8.058 -0.2058  0.1241  0.0157
  299loPI   C4B 4784  10.158   7.280   7.745 -0.1190  0.2699 -0.0251
  300loPI    C1 4785   2.245  12.975   9.573  0.0704 -0.1405 -0.1300
  300loPI    C2 4786   2.333  13.364   9.537 -0.0393 -0.0667  0.3389
  300loPI    C3 4787   2.598  13.113   9.702  0.0618 -0.2097 -0.0314
  300loPI   PO4 4788   1.966  12.976   9.377 -0.1050  0.0765 -0.1981
  300loPI   GL1 4789   2.087  13.116   8.929  0.1703 -0.2596  0.2382
  300loPI   GL2 4790   2.360  12.974   9.052 -0.3869 -0.2415 -0.3409
  300loPI   C1A 4791   1.824  13.242   8.628 -0.2917 -0.1118 -0.2223
  300loPI   C2A 4792   1.824  13.199   8.165 -0.0837  0.4212 -0.0229
  300loPI   C3A 4793   1.750  13.265   7.749 -0.0117  0.3073 -0.0930
  300loPI   C4A 4794   1.846  13.640   7.722 -0.0616  0.1467 -0.1148
  300loPI   C5A 4795   2.128  13.793   7.858  0.2435  0.1138 -0.2270
  300loPI   C6A 4796   2.225  13.585   8.258 -0.0687 -0.1915 -0.0500
  300loPI   C1B 4797   2.490  12.893   8.714  0.1181  0.2287 -0.1677
  300loPI   C2B 4798   2.727  13.049   8.307  0.1093  0.1110 -0.1513
  300loPI   C3B 4799   3.015  13.155   8.027 -0.4299 -0.1604  0.0605
  300loPI   C4B 4800   3.360  12.968   7.901 -0.0231  0.1916  0.0938
  301loPI    C1 4801   8.825   0.164   9.897 -0.0390 -0.1132 -0.1109
  301loPI    C2 4802   8.604  -0.090  10.113  0.1384 -0.2081 -0.0390
  301loPI    C3 4803   8.694   0.271  10.260  0.0220 -0.1646 -0.0734
  301loPI   PO4 4804   8.735   0.028   9.650  0.2051 -0.2015 -0.2478
  301loPI   GL1 4805   8.599   0.180   9.307  0.1294 -0.1269 -0.1169
  301loPI   GL2 4806   8.345  -0.031   9.235 -0.2321  0.0474 -0.2097
  301loPI   C1A 4807   8.735   0.050   8.848  0.1502  0.0398 -0.0823
  301loPI   C2A 4808   8.739   0.082   8.428 -0.1571  0.1195  0.3127
  301loPI   C3A 4809   8.581   0.252   8.003  0.1475  0.0222  0.0480
  301loPI   C4A 4810   8.755   0.216   7.573  0.1609 -0.2086  0.1492
  301loPI   C5A 4811   8.958   0.212   7.099  0.1582 -0.0943 -0.2802
  301loPI   C6A 4812   9.229   0.135   6.792 -0.3514  0.2056 -0.1118
  301loPI   C1B 4813   8.243  -0.167   8.788 -0.2666  0.1784 -0.1020
  301loPI   C2B 4814   8.333  -0.119   8.326 -0.1445  0.1584  0.0142
  301loPI   C3B 4815   8.350  -0.166   7.986 -0.0795  0.1295 -0.2575
  301loPI   C4B 4816   8.533  -0.265   7.641  0.1385 -0.3705  0.1136
  302loPI    C1 4817   2.070   2.908   9.707  0.1140 -0.0681 -0.2031
  302loPI    C2 4818   2.112   3.239   9.485  0.0055 -0.0375 -0.1783
  302loPI    C3 4819   2.153   3.258   9.883 -0.2973  0.0058 -0.1469
  302loPI   PO4 4820   1.881   2.788   9.464  0.0585 -0.0615  0.0549
  302loPI   GL1 4821   1.751   2.962   9.140 -0.0139 -0.0534  0.2893
  302loPI   GL2 4822   1.716   3.220   9.178  0.1273 -0.0206  0.4099
  302loPI   C1A 4823   1.553   2.807   8.707  0.2326 -0.0519 -0.2562
  302loPI   C2A 4824   1.943   2.874   8.395 -0.3042 -0.1045 -0.1182
  302loPI   C3A 4825   2.229   2.911   8.039 -0.3762 -0.2107  0.1871
  302loPI   C4A 4826   2.016   2.886   7.682  0.0098 -0.1554  0.2577
  302loPI   C5A 4827   2.130   2.616   7.427  0.0641  0.1042 -0.1023
  302loPI   C6A 4828   2.404   2.659   7.143 -0.3601 -0.1340 -0.0741
  302loPI   C1B 4829   1.977   3.265   8.642 -0.1030 -0.0422 -0.0117
  302loPI   C2B 4830   2.154   3.379   8.284 -0.0451 -0.0785 -0.2473
  302loPI   C3B 4831   2.551   3.260   8.086 -0.1582 -0.0988  0.0792
  302loPI   C4B 4832   2.516   3.030   7.648  0.0906 -0.3689 -0.1055
  303loPI    C1 4833   5.912  15.158  10.216  0.1273 -0.0302 -0.1320
  303loPI    C2 4834   5.846  14.906  10.520 -0.1266  0.0164 -0.1462
  303loPI    C3 4835   6.130  15.185  10.550 -0.0188 -0.1046 -0.0290
  303loPI   PO4 4836   5.705  15.377  10.147 -0.3063  0.1880 -0.1570
  303loPI   GL1 4837   5.469  15.375   9.770 -0.2557  0.2987 -0.0753
  303loPI   GL2 4838   5.757  15.342   9.669  0.0367  0.3261  0.1597
  303loPI   C1A 4839   5.157  15.365   9.510 -0.2611 -0.2000  0.0179
  303loPI   C2A 4840   4.906  15.298   9.056 -0.1126 -0.2162  0.2153
  303loPI   C3A 4841   4.858  15.245   8.709  0.0206  0.2713 -0.2851
  303loPI   C4A 4842   4.702  14.881   8.548  0.1419  0.1045 -0.3097
  303loPI   C5A 4843   4.553  14.521   8.427  0.0215  0.2459 -0.1686
  303loPI   C6A 4844   4.567  14.256   8.030 -0.2141  0.2253  0.3111
  303loPI   C1B 4845   5.508  15.252   9.228  0.0618 -0.1697 -0.1377
  303loPI   C2B 4846   5.427  15.074   8.836  0.1757 -0.3415 -0.1677
  303loPI   C3B 4847   5.183  14.954   8.539 -0.2433 -0.1053 -0.1386
  303loPI   C4B 4848   4.990  14.933   8.154  0.0863 -0.2563  0.0619
  304loPI    C1 4849  13.802   1.141  10.010  0.4465  0.2184 -0.0155
  304loPI    C2 4850  13.788   1.190  10.407 -0.0818 -0.0459  0.0074
  304loPI    C3 4851  13.463   1.261  10.185  0.0734 -0.3422 -0.3243
  304loPI   PO4 4852  14.063   1.224   9.858  0.1135 -0.1560 -0.2178
  304loPI   GL1 4853  14.084   1.343   9.402  0.1409  0.2395 -0.2234
  304loPI   GL2 4854  14.145   1.042   9.402  0.2878 -0.0029  0.2261
  304loPI   C1A 4855  14.050   1.313   9.029 -0.0597 -0.0316  0.2013
  304loPI   C2A 4856  14.180   1.166   8.676 -0.2244 -0.0604  0.1459
  304loPI   C3A 4857  13.988   0.975   8.276  0.3152 -0.5567  0.1821
  304loPI   C4A 4858  13.989   1.050   7.888  0.2731  0.5189 -0.1543
  304loPI   C5A 4859  14.221   1.461   7.649 -0.1208 -0.4481 -0.2267
  304loPI   C6A 4860  14.521   1.818   7.537 -0.0252  0.2238 -0.2839
  304loPI   C1B 4861  14.127   0.787   9.032  0.2246  0.1161 -0.0045
  304loPI   C2B 4862  14.095   0.653   8.650 -0.1512 -0.2266 -0.1205
  304loPI   C3B 4863  13.938   0.405   8.453 -0.1807  0.0614 -0.0822
  304loPI   C4B 4864  13.590   0.294   8.116 -0.2254 -0.1361  0.4686
  305loPI    C1 4865  10.672   3.096   9.984 -0.0474  0.0322  0.0669
  305loPI    C2 4866  10.900   3.344   9.767  0.0010 -0.1042 -0.0396
  305loPI    C3 4867  10.560   3.199   9.614 -0.0394 -0.0850  0.0314
  305loPI   PO4 4868  10.750   2.934  10.077  0.1360  0.4246 -0.0054
  305loPI   GL1 4869  10.882   2.761   9.680  0.2277 -0.2155  0.0224
  305loPI   GL2 4870  10.717   2.710   9.527  0.0500 -0.0182 -0.1669
  305loPI   C1A 4871  11.118   3.012   9.413 -0.3044  0.0085  0.1167
  305loPI   C2A 4872  11.444   3.320   9.289  0.1727 -0.1082 -0.2700
  305loPI   C3A 4873  11.553   3.484   8.842 -0.0368 -0.0476 -0.4375
  305loPI   C4A 4874  11.698   3.731   8.492  0.2176  0.1370 -0.2882
  305loPI   C5A 4875  11.584   3.855   8.103  0.4571 -0.1354 -0.0537
  305loPI   C6A 4876  11.711   3.726   7.736  0.0347  0.2094  0.3524
  305loPI   C1B 4877  10.897   2.746   9.069  0.0881  0.0315 -0.0437
  305loPI   C2B 4878  10.999   2.701   8.653 -0.1420 -0.0878 -0.1192
  305loPI   C3B 4879  11.296   2.712   8.385 -0.2260 -0.2965 -0.5941
  305loPI   C4B 4880  11.587   2.675   8.031  0.1065 -0.1428 -0.1353
  306loPI    C1 4881  14.807   3.955  10.120  0.0879  0.2580 -0.2232
  306loPI    C2 4882  14.909   4.215  10.406  0.1012  0.1969 -0.1723
  306loPI    C3 4883  14.913   4.328  10.023 -0.4201  0.4383 -0.1145
  306loPI   PO4 4884  14.813   3.740  10.298  0.0687  0.2086 -0.1734
  306loPI   GL1 4885  14.571   3.501  10.136 -0.0219 -0.0641  0.0955
  306loPI   GL2 4886  14.489   3.689   9.886  0.1355 -0.1215 -0.2645
  306loPI   C1A 4887  14.746   3.292   9.714  0.2778 -0.2769 -0.4021
  306loPI   C2A 4888  14.750   3.192   9.261  0.0638 -0.0149 -0.3683
  306loPI   C3A 4889  14.935   3.301   8.959  0.1378 -0.0893  0.1568
  306loPI   C4A 4890  15.264   3.544   8.723 -0.2007  0.1204 -0.0807
  306loPI   C5A 4891  15.341   3.518   8.253  0.1024  0.0510 -0.1299
  306loPI   C6A 4892  15.558   3.219   7.913 -0.0353  0.0296  0.0596
  306loPI   C1B 4893  14.617   3.832   9.668 -0.3453  0.1470  0.0353
  306loPI   C2B 4894  14.590   4.092   9.264 -0.0988 -0.2331  0.0858
  306loPI   C3B 4895  14.862   4.292   8.841 -0.0368 -0.0504  0.0432
  306loPI   C4B 4896  14.924   4.580   8.515  0.1742 -0.0492 -0.0202
  307loPI    C1 4897   8.988  11.837   9.441  0.0055  0.1775  0.0391
  307loPI    C2 4898   9.054  11.631   9.778  0.1989  0.1346 -0.0238
  307loPI    C3 4899   8.892  11.449   9.461 -0.0654  0.1966  0.0727
  307loPI   PO4 4900   9.276  11.991   9.471  0.0048  0.0433  0.2095
  307loPI   GL1 4901   9.202  12.342   9.243 -0.1093  0.1393  0.0988
  307loPI   GL2 4902   9.409  12.273   9.062  0.2083  0.0975 -0.0004
  307loPI   C1A 4903   8.973  12.560   8.981 -0.0938  0.0305  0.1831
  307loPI   C2A 4904   9.008  12.708   8.638 -0.2708  0.1517  0.3267
  307loPI   C3A 4905   9.017  12.863   8.236  0.1235  0.2344  0.2909
  307loPI   C4A 4906   9.298  13.095   7.982 -0.0675 -0.3502 -0.0478
  307loPI   C5A 4907   9.480  13.280   7.634  0.0677 -0.2506 -0.2409
  307loPI   C6A 4908   9.732  13.624   7.532  0.2322 -0.2423 -0.2090
  307loPI   C1B 4909   9.356  12.319   8.675 -0.3492  0.0502  0.2077
  307loPI   C2B 4910   9.359  12.208   8.225 -0.4047 -0.2775 -0.0508
  307loPI   C3B 4911   9.073  12.021   7.879  0.2284  0.1146  0.1739
  307loPI   C4B 4912   8.811  12.089   7.597 -0.4896  0.0000 -0.3773
  308loPI    C1 4913   7.846   3.648   9.648 -0.2351 -0.1131  0.1750
  308loPI    C2 4914   8.097   3.522   9.933  0.1465  0.1143 -0.0504
  308loPI    C3 4915   7.831   3.810  10.013  0.1476  0.0702  0.1153
  308loPI   PO4 4916   7.768   3.401   9.545 -0.0363 -0.1486  0.1504
  308loPI   GL1 4917   7.813   2.952   9.291  0.0263  0.0615  0.1329
  308loPI   GL2 4918   8.164   2.907   9.165  0.2786 -0.0455  0.2088
  308loPI   C1A 4919   7.506   2.941   8.917  0.4251  0.3340  0.0670
  308loPI   C2A 4920   7.375   3.150   8.513 -0.1865 -0.2690 -0.0028
  308loPI   C3A 4921   7.490   3.162   8.130  0.0664 -0.1764  0.1653
  308loPI   C4A 4922   7.248   3.189   7.673 -0.1728  0.1971 -0.0676
  308loPI   C5A 4923   7.380   2.918   7.347  0.1592  0.4614 -0.0474
  308loPI   C6A 4924   7.794   2.943   7.061  0.1831  0.0715  0.0495
  308loPI   C1B 4925   8.199   2.853   8.710 -0.1804  0.2570  0.3107
  308loPI   C2B 4926   8.221   2.744   8.259 -0.0618 -0.1540  0.2158
  308loPI   C3B 4927   8.273   2.569   7.833 -0.0198 -0.0614  0.3567
  308loPI   C4B 4928   8.099   2.712   7.427  0.1473  0.0866  0.1609
  309loPI    C1 4929   2.223   6.013   9.796  0.1323 -0.0279  0.0652
  309loPI    C2 4930   1.993   5.795  10.040  0.0370 -0.1597 -0.1402
  309loPI    C3 4931   2.149   6.140  10.168 -0.0724 -0.1911  0.0819
  309loPI   PO4 4932   2.151   6.064   9.612  0.3492 -0.0356  0.0340
  309loPI   GL1 4933   2.263   6.058   9.186 -0.0984 -0.0328 -0.0903
  309loPI   GL2 4934   2.434   6.261   8.845  0.1834  0.0094  0.1688
  309loPI   C1A 4935   1.927   6.044   8.859 -0.0963  0.1381  0.3343
  309loPI   C2A 4936   1.798   5.923   8.452 -0.3010 -0.0717  0.2486
  309loPI   C3A 4937   1.856   6.114   8.027  0.0686  0.0242 -0.1355
  309loPI   C4A 4938   1.988   6.059   7.619 -0.2510  0.1146 -0.0258
  309loPI   C5A 4939   2.080   6.042   7.284 -0.1671 -0.1621 -0.0050
  309loPI   C6A 4940   2.463   6.001   7.069  0.0861 -0.0885 -0.0448
  309loPI   C1B 4941   2.286   6.129   8.463  0.2033  0.0450  0.5432
  309loPI   C2B 4942   2.442   6.063   7.949 -0.3196 -0.1359  0.2446
  309loPI   C3B 4943   2.597   5.891   7.635 -0.1504 -0.1897  0.4029
  309loPI   C4B 4944   2.753   5.598   7.278 -0.2507  0.2607  0.0244
  310loPI    C1 4945   3.824   8.524  10.037  0.2901 -0.1502  0.0145
  310loPI    C2 4946   4.199   8.569  10.169  0.2189  0.2282  0.0969
  310loPI    C3 4947   3.936   8.868  10.206 -0.0928 -0.0331  0.0382
  310loPI   PO4 4948   3.884   8.351   9.748  0.2500 -0.2751 -0.0491
  310loPI   GL1 4949   3.838   8.316   9.302 -0.2907  0.0068 -0.1719
  310loPI   GL2 4950   3.997   8.570   9.238  0.1405  0.1471 -0.0558
  310loPI   C1A 4951   3.455   8.517   9.198  0.4140 -0.0483 -0.1892
  310loPI   C2A 4952   3.371   8.458   8.775 -0.0096  0.0372  0.2717
  310loPI   C3A 4953   3.280   8.347   8.343  0.1177 -0.1946  0.0535
  310loPI   C4A 4954   3.349   8.106   7.919  0.1152  0.1812  0.2107
  310loPI   C5A 4955   3.253   8.313   7.550  0.2730  0.1720 -0.1598
  310loPI   C6A 4956   3.284   8.449   7.196  0.0253  0.0767  0.2330
  310loPI   C1B 4957   4.134   8.646   8.750  0.1951 -0.1453 -0.1774
  310loPI   C2B 4958   4.081   8.917   8.524 -0.0862 -0.2587 -0.2162
  310loPI   C3B 4959   4.166   9.342   8.333 -0.1016 -0.2394 -0.0592
  310loPI   C4B 4960   4.475   9.430   8.131 -0.0418  0.1559  0.0317
  311loPI    C1 4961   6.424   8.506   9.689  0.0898  0.1750  0.1210
  311loPI    C2 4962   6.433   8.698  10.039  0.1233  0.1401  0.1393
  311loPI    C3 4963   6.775   8.606   9.853  0.1088  0.0574  0.1532
  311loPI   PO4 4964   6.263   8.578   9.513 -0.1659 -0.0244  0.0348
  311loPI   GL1 4965   6.198   8.557   9.086  0.0464  0.1721 -0.2617
  311loPI   GL2 4966   6.298   8.271   9.114  0.0365 -0.2310  0.2289
  311loPI   C1A 4967   6.255   8.647   8.646 -0.1069 -0.1322  0.0044
  311loPI   C2A 4968   6.264   8.576   8.194 -0.0470 -0.0658 -0.3821
  311loPI   C3A 4969   6.502   8.343   7.734  0.1708  0.1043 -0.1237
  311loPI   C4A 4970   6.766   8.406   7.347 -0.1378  0.0016 -0.1513
  311loPI   C5A 4971   6.846   8.153   6.980 -0.2630  0.2953 -0.1968
  311loPI   C6A 4972   6.757   8.068   6.602  0.3175  0.0126  0.1911
  311loPI   C1B 4973   6.401   8.119   8.734 -0.1034  0.1268 -0.3162
  311loPI   C2B 4974   6.304   8.017   8.404  0.0809  0.1235 -0.1237
  311loPI   C3B 4975   5.948   7.865   8.119 -0.2809  0.1317 -0.0133
  311loPI   C4B 4976   5.802   7.557   8.029 -0.0698 -0.1262  0.1841
  312loPI    C1 4977   4.795  17.915   9.793 -0.2325  0.0453  0.1352
  312loPI    C2 4978   4.802  18.300   9.681 -0.1884 -0.0163 -0.0781
  312loPI    C3 4979   5.012  18.180   9.999 -0.2254  0.1411  0.0066
  312loPI   PO4 4980   4.775  17.823   9.552  0.0584 -0.0777 -0.0903
  312loPI   GL1 4981   4.708  17.996   9.261  0.2495  0.2584 -0.5867
  312loPI   GL2 4982   4.488  18.154   9.178 -0.0752 -0.2306  0.3233
  312loPI   C1A 4983   4.818  18.096   8.862  0.0604 -0.1661 -0.3039
  312loPI   C2A 4984   4.905  18.186   8.384 -0.0660 -0.1086 -0.1500
  312loPI   C3A 4985   4.739  18.141   7.930  0.2212 -0.1929  0.0587
  312loPI   C4A 4986   4.479  18.220   7.668 -0.1783 -0.1733 -0.0832
  312loPI   C5A 4987   4.434  18.200   7.330 -0.0736  0.2717 -0.3250
  312loPI   C6A 4988   4.663  18.388   6.955 -0.3014 -0.0733  0.1740
  312loPI   C1B 4989   4.286  18.314   8.764  0.2416 -0.0901 -0.2180
  312loPI   C2B 4990   3.973  18.291   8.392  0.0751  0.3932 -0.1212
  312loPI   C3B 4991   3.543  18.127   8.425  0.0194 -0.1598  0.4042
  312loPI   C4B 4992   3.373  17.831   8.365  0.0717  0.0874  0.3604
  313loPI    C1 4993   9.055   0.864   9.546 -0.0637  0.0984  0.0891
  313loPI    C2 4994   9.119   1.129   9.838 -0.2374  0.1911  0.0437
  313loPI    C3 4995   9.075   0.742   9.926  0.0197  0.1757  0.1098
  313loPI   PO4 4996   9.249   0.960   9.360  0.1455  0.1352 -0.0161
  313loPI   GL1 4997   9.252   1.057   9.047  0.1878 -0.0924 -0.0216
  313loPI   GL2 4998   9.259   0.720   8.904 -0.0342 -0.1927 -0.0015
  313loPI   C1A 4999   9.158   1.125   8.615 -0.2458 -0.1093 -0.1824
  313loPI   C2A 5000   9.209   0.768   8.298 -0.1494  0.1497  0.3594
  313loPI   C3A 5001   9.364   0.573   7.779  0.1765  0.1738  0.1494
  313loPI   C4A 5002   9.267   0.325   7.461 -0.0713  0.0725  0.2554
  313loPI   C5A 5003   9.410   0.034   7.228 -0.0355 -0.1656  0.1815
  313loPI   C6A 5004   9.727  -0.217   7.109 -0.1468  0.1873 -0.0459
  313loPI   C1B 5005   9.594   0.779   8.636  0.1087 -0.0564 -0.0482
  313loPI   C2B 5006   9.698   0.758   8.291  0.1050  0.0023 -0.4279
  313loPI   C3B 5007   9.873   0.709   7.832  0.4432  0.1075 -0.3774
  313loPI   C4B 5008  10.241   0.510   7.707 -0.0576  0.2097 -0.0637
  314loPI    C1 5009  16.335  11.977   9.595  0.2247 -0.0419 -0.1647
  314loPI    C2 5010  16.669  12.178   9.504  0.1769  0.1567  0.0861
  314loPI    C3 5011  16.501  12.222   9.865  0.1391 -0.3020  0.1303
  314loPI   PO4 5012  16.250  11.795   9.365  0.0700  0.2520 -0.0949
  314loPI   GL1 5013  16.102  11.794   8.936  0.1377 -0.3397 -0.1493
  314loPI   GL2 5014  16.390  11.495   8.980 -0.2789 -0.1215 -0.0009
  314loPI   C1A 5015  16.186  11.744   8.578  0.1131 -0.0654 -0.0797
  314loPI   C2A 5016  16.145  11.913   8.156 -0.0972 -0.1626  0.2374
  314loPI   C3A 5017  16.051  12.011   7.785  0.0829  0.0622  0.0526
  314loPI   C4A 5018  15.678  11.931   7.562  0.0203 -0.0646  0.0277
  314loPI   C5A 5019  15.580  11.872   7.090 -0.0406 -0.0846 -0.1184
  314loPI   C6A 5020  15.671  12.028   6.624  0.2202 -0.1797  0.0894
  314loPI   C1B 5021  16.516  11.315   8.556 -0.1909 -0.0886 -0.0431
  314loPI   C2B 5022  16.804  11.397   8.279  0.3416  0.0770  0.0814
  314loPI   C3B 5023  17.095  11.120   7.937 -0.1859  0.1328 -0.2387
  314loPI   C4B 5024  17.168  10.867   7.550 -0.1532  0.0241 -0.2017
  315loPI    C1 5025   2.679  16.201  10.523 -0.0517 -0.0287 -0.2752
  315loPI    C2 5026   2.314  16.254  10.368 -0.1607 -0.0756 -0.0395
  315loPI    C3 5027   2.363  16.241  10.765  0.0774 -0.2178 -0.0714
  315loPI   PO4 5028   2.847  16.235  10.169 -0.0144 -0.1369 -0.0336
  315loPI   GL1 5029   2.830  16.175   9.706  0.0227 -0.1114  0.0296
  315loPI   GL2 5030   3.193  16.054   9.674 -0.0665  0.3478 -0.1862
  315loPI   C1A 5031   2.841  16.316   9.308 -0.2642 -0.2772  0.1632
  315loPI   C2A 5032   2.735  16.147   8.938  0.2155 -0.1653  0.1894
  315loPI   C3A 5033   2.580  16.109   8.554 -0.0826  0.1460 -0.0489
  315loPI   C4A 5034   2.776  16.042   8.146  0.1159 -0.2806  0.1617
  315loPI   C5A 5035   2.725  15.914   7.691 -0.3311  0.0207  0.0808
  315loPI   C6A 5036   2.407  16.200   7.371 -0.1335  0.2898 -0.0057
  315loPI   C1B 5037   2.912  15.842   9.362  0.0748  0.1581  0.0487
  315loPI   C2B 5038   2.794  15.614   8.974 -0.1857  0.0213 -0.0170
  315loPI   C3B 5039   2.601  15.552   8.556  0.0175 -0.1466 -0.3109
  315loPI   C4B 5040   2.996  15.565   8.273  0.2234 -0.0148 -0.0149
  316loPI    C1 5041   8.922  18.800   9.875  0.0722  0.1784 -0.0624
  316loPI    C2 5042   9.178  18.583  10.093 -0.1921  0.0894  0.1649
  316loPI    C3 5043   9.086  18.956  10.204  0.0403  0.2183 -0.0653
  316loPI   PO4 5044   9.025  18.668   9.620 -0.0337  0.0325 -0.1078
  316loPI   GL1 5045   9.170  18.527   9.135 -0.2638  0.1300 -0.1251
  316loPI   GL2 5046   9.258  18.836   9.037 -0.2172 -0.0392  0.1918
  316loPI   C1A 5047   9.414  18.417   8.752  0.1565 -0.3932  0.2283
  316loPI   C2A 5048   9.570  18.475   8.374 -0.3377 -0.0114 -0.1765
  316loPI   C3A 5049   9.515  18.364   8.070 -0.2371  0.0241  0.0847
  316loPI   C4A 5050   9.544  18.256   7.606 -0.1267  0.0289 -0.1631
  316loPI   C5A 5051   9.534  18.392   7.136 -0.0563 -0.3200  0.0754
  316loPI   C6A 5052   9.266  18.692   7.051  0.0051 -0.3197  0.1077
  316loPI   C1B 5053   9.176  19.033   8.725  0.2630  0.3049  0.0282
  316loPI   C2B 5054   9.119  18.802   8.384 -0.0279  0.2567  0.1410
  316loPI   C3B 5055   8.999  18.925   7.985  0.1334  0.0985  0.1514
  316loPI   C4B 5056   9.002  18.978   7.488  0.0036  0.0607 -0.0819
  317loPI    C1 5057  10.255   4.527  10.219  0.0332 -0.0271 -0.2281
  317loPI    C2 5058  10.519   4.784  10.063 -0.0684  0.0850 -0.2176
  317loPI    C3 5059  10.410   4.818  10.446 -0.2586  0.1727 -0.2784
  317loPI   PO4 5060  10.041   4.511   9.992  0.0104  0.0285  0.0374
  317loPI   GL1 5061   9.825   4.747   9.658 -0.2387  0.1644 -0.2166
  317loPI   GL2 5062  10.171   4.879   9.702  0.3110  0.0519  0.0937
  317loPI   C1A 5063   9.962   4.860   9.206  0.2150  0.3382  0.0180
  317loPI   C2A 5064  10.094   4.920   8.689  0.2183 -0.0647 -0.1329
  317loPI   C3A 5065  10.147   4.839   8.262  0.1786 -0.0563  0.3182
  317loPI   C4A 5066  10.251   4.564   7.966 -0.1096 -0.0749  0.0664
  317loPI   C5A 5067  10.629   4.489   7.976  0.0695 -0.1902 -0.1891
  317loPI   C6A 5068  11.063   4.434   7.744  0.0082 -0.2298 -0.0228
  317loPI   C1B 5069  10.440   4.770   9.352 -0.1144  0.4513 -0.3569
  317loPI   C2B 5070  10.624   4.578   8.977 -0.0734 -0.1327  0.1419
  317loPI   C3B 5071  10.382   4.453   8.551  0.2110  0.3455  0.2707
  317loPI   C4B 5072   9.994   4.237   8.311  0.0141  0.0473 -0.0790
  318loPI    C1 5073   9.808  13.866   9.938 -0.1010  0.0803  0.1784
  318loPI    C2 5074   9.848  14.220  10.119 -0.0764  0.0519  0.2286
  318loPI    C3 5075   9.688  13.911  10.317  0.0519 -0.0088  0.2382
  318loPI   PO4 5076   9.946  13.900   9.762  0.3040  0.2594 -0.1036
  318loPI   GL1 5077  10.085  13.451   9.521  0.1506 -0.2534 -0.0909
  318loPI   GL2 5078   9.863  13.369   9.326 -0.1578  0.0373 -0.0718
  318loPI   C1A 5079  10.342  13.476   9.114  0.1316  0.1291 -0.1442
  318loPI   C2A 5080  10.409  13.325   8.705  0.0089  0.0409 -0.2133
  318loPI   C3A 5081  10.343  13.270   8.289 -0.4143 -0.0048 -0.0424
  318loPI   C4A 5082  10.444  13.387   7.926 -0.0199  0.0574 -0.0391
  318loPI   C5A 5083  10.485  13.369   7.474  0.0930  0.1350  0.2844
  318loPI   C6A 5084  10.936  13.208   7.286 -0.4467 -0.1957 -0.2295
  318loPI   C1B 5085   9.909  13.320   8.975  0.0146  0.3297 -0.1062
  318loPI   C2B 5086   9.824  13.096   8.580 -0.1505  0.0549 -0.4958
  318loPI   C3B 5087   9.760  13.244   8.144 -0.2108  0.2401 -0.2602
  318loPI   C4B 5088  10.007  13.245   7.807  0.2282 -0.1416 -0.0018
  319loPI    C1 5089  10.759  18.895   9.789 -0.0200  0.1064 -0.1777
  319loPI    C2 5090  11.074  18.819  10.024  0.0350 -0.3321 -0.3843
  319loPI    C3 5091  10.705  18.817  10.177  0.1285  0.2564 -0.1253
  319loPI   PO4 5092  10.867  19.115   9.673 -0.0047 -0.1416  0.2155
  319loPI   GL1 5093  11.032  19.260   9.339 -0.2138  0.2104 -0.3243
  319loPI   GL2 5094  11.266  19.467   9.255  0.3638  0.2105 -0.0375
  319loPI   C1A 5095  10.709  19.133   9.023  0.1268  0.1582 -0.0508
  319loPI   C2A 5096  10.728  19.146   8.688  0.0737  0.0662  0.1732
  319loPI   C3A 5097  10.846  19.352   8.371  0.1056 -0.0089  0.1938
  319loPI   C4A 5098  10.905  19.530   7.893  0.2375  0.0659  0.2086
  319loPI   C5A 5099  10.696  19.690   7.533  0.0773 -0.0705 -0.1792
  319loPI   C6A 5100  10.829  19.836   7.195  0.1601  0.1305  0.3281
  319loPI   C1B 5101  11.174  19.440   8.793  0.0604  0.0019 -0.0561
  319loPI   C2B 5102  11.027  19.792   8.508 -0.0321  0.0383 -0.0084
  319loPI   C3B 5103  10.947  20.070   8.190  0.0319 -0.0690  0.2833
  319loPI   C4B 5104  11.272  20.280   8.017 -0.5782  0.2869 -0.0111
  320loPI    C1 5105  11.520  16.530   9.491  0.1413 -0.1795 -0.2407
  320loPI    C2 5106  11.560  16.314   9.825 -0.0199 -0.0274 -0.1212
  320loPI    C3 5107  11.570  16.713   9.843 -0.2620 -0.0133 -0.2647
  320loPI   PO4 5108  11.635  16.455   9.351  0.0108  0.0152 -0.2647
  320loPI   GL1 5109  11.583  16.211   9.098  0.0472  0.0757 -0.5057
  320loPI   GL2 5110  11.202  16.127   9.097  0.0043 -0.2446 -0.0564
  320loPI   C1A 5111  11.601  16.042   8.666  0.0990  0.3784 -0.0469
  320loPI   C2A 5112  11.539  16.009   8.183 -0.2708  0.1340 -0.0834
  320loPI   C3A 5113  11.453  16.062   7.770  0.1566  0.0518 -0.0118
  320loPI   C4A 5114  11.300  15.863   7.370 -0.0766 -0.0431 -0.0722
  320loPI   C5A 5115  11.534  15.647   7.069 -0.2829  0.1748  0.1124
  320loPI   C6A 5116  11.939  15.476   6.880 -0.1026  0.0409  0.0955
  320loPI   C1B 5117  11.027  16.056   8.784 -0.2613  0.0285 -0.0446
  320loPI   C2B 5118  11.015  16.073   8.328  0.0164 -0.4056  0.1101
  320loPI   C3B 5119  10.855  15.978   7.903 -0.2135 -0.0453 -0.0883
  320loPI   C4B 5120  10.833  15.778   7.542  0.0807 -0.0180 -0.0231
  321loPI    C1 5121  11.360   4.381  10.128  0.3489 -0.1822 -0.2122
  321loPI    C2 5122  11.645   4.399  10.408  0.0959  0.0100  0.0377
  321loPI    C3 5123  11.616   4.688  10.134 -0.0011  0.1119  0.1543
  321loPI   PO4 5124  11.410   4.125  10.028  0.0480  0.0930 -0.0964
  321loPI   GL1 5125  11.418   4.164   9.612 -0.0856 -0.0414 -0.3766
  321loPI   GL2 5126  11.110   4.264   9.386  0.2007 -0.2633 -0.2769
  321loPI   C1A 5127  11.549   3.963   9.276  0.2778 -0.0805  0.0157
  321loPI   C2A 5128  11.890   3.826   9.037  0.3051  0.0358 -0.0274
  321loPI   C3A 5129  12.159   3.787   8.608 -0.1692  0.0719 -0.2346
  321loPI   C4A 5130  12.104   3.826   8.184 -0.0320 -0.2761 -0.0788
  321loPI   C5A 5131  12.427   3.966   7.866  0.1854  0.1052 -0.3117
  321loPI   C6A 5132  12.611   4.238   7.592  0.1099 -0.2344  0.4147
  321loPI   C1B 5133  11.072   4.416   8.970  0.0523 -0.2523 -0.2898
  321loPI   C2B 5134  10.994   4.666   8.646  0.2399  0.1237  0.1870
  321loPI   C3B 5135  11.055   4.794   8.312  0.1335  0.0047 -0.2556
  321loPI   C4B 5136  11.101   4.935   7.923 -0.0798 -0.0827 -0.0337
  322loPI    C1 5137  12.007  12.082   9.728 -0.3775 -0.1237 -0.4622
  322loPI    C2 5138  11.759  12.395   9.719  0.1299  0.3146  0.0468
  322loPI    C3 5139  11.655  12.063   9.916 -0.3094  0.2451 -0.2888
  322loPI   PO4 5140  12.195  12.201   9.559 -0.1607 -0.0389  0.0224
  322loPI   GL1 5141  12.414  12.248   9.222 -0.2019  0.2246 -0.0859
  322loPI   GL2 5142  12.750  12.012   9.244 -0.0533  0.0182 -0.0304
  322loPI   C1A 5143  12.593  12.137   8.746  0.1588 -0.0267 -0.0290
  322loPI   C2A 5144  12.830  11.991   8.441  0.0809  0.2929  0.0263
  322loPI   C3A 5145  12.959  11.868   7.975 -0.1980 -0.2649  0.4554
  322loPI   C4A 5146  13.048  11.716   7.510  0.1051 -0.0433  0.0834
  322loPI   C5A 5147  13.327  11.611   7.212 -0.0487  0.1531  0.0227
  322loPI   C6A 5148  13.377  11.429   6.801 -0.0686 -0.3191  0.3941
  322loPI   C1B 5149  13.089  12.248   8.917  0.0957  0.3198 -0.0661
  322loPI   C2B 5150  13.304  12.364   8.637  0.3919 -0.1887  0.2406
  322loPI   C3B 5151  13.195  12.348   8.166 -0.1414 -0.2695 -0.0534
  322loPI   C4B 5152  12.655  12.255   7.980  0.2561  0.2740  0.5547
  323loPI    C1 5153  11.406  12.803   9.654 -0.3014  0.0514  0.0869
  323loPI    C2 5154  11.329  12.796  10.046  0.2517 -0.2265  0.2000
  323loPI    C3 5155  11.284  12.464   9.827  0.0755 -0.1070  0.0524
  323loPI   PO4 5156  11.395  13.073   9.526  0.0957  0.0977  0.0283
  323loPI   GL1 5157  11.662  13.026   9.206  0.1705  0.1845 -0.2307
  323loPI   GL2 5158  11.777  12.952   8.891 -0.4569 -0.0160 -0.2303
  323loPI   C1A 5159  11.379  13.267   8.911  0.1101  0.0570  0.0035
  323loPI   C2A 5160  11.171  13.417   8.522  0.0600  0.0125  0.2526
  323loPI   C3A 5161  11.223  13.519   8.142  0.0461 -0.3982 -0.0805
  323loPI   C4A 5162  11.344  13.501   7.863 -0.1008  0.4970 -0.0848
  323loPI   C5A 5163  11.337  13.397   7.482 -0.0477  0.1908 -0.0205
  323loPI   C6A 5164  11.336  13.468   7.022  0.3609 -0.3430  0.2071
  323loPI   C1B 5165  11.719  13.152   8.469  0.0101 -0.1166 -0.0646
  323loPI   C2B 5166  11.753  13.212   7.934 -0.2624  0.0436 -0.0987
  323loPI   C3B 5167  11.909  13.336   7.542  0.1041  0.0164  0.1774
  323loPI   C4B 5168  11.747  13.597   7.259 -0.1260 -0.2651 -0.1023
  324loPI    C1 5169  13.579   7.246  10.328 -0.0548  0.2333  0.0271
  324loPI    C2 5170  13.808   6.933  10.425 -0.0779  0.1650 -0.1352
  324loPI    C3 5171  13.938   7.305  10.493 -0.0858  0.1195  0.1363
  324loPI   PO4 5172  13.464   7.192  10.027 -0.5065  0.2969 -0.0363
  324loPI   GL1 5173  13.532   7.333   9.644  0.0505 -0.0443  0.0662
  324loPI   GL2 5174  13.754   7.129   9.611  0.0466  0.0501  0.0638
  324loPI   C1A 5175  13.506   7.127   9.230  0.1449  0.1081 -0.0555
  324loPI   C2A 5176  13.333   7.048   8.755 -0.1267 -0.2127  0.3242
  324loPI   C3A 5177  13.180   6.984   8.433 -0.1251 -0.0491 -0.2731
  324loPI   C4A 5178  13.255   7.008   8.106  0.1020 -0.1114  0.1432
  324loPI   C5A 5179  13.285   6.882   7.631 -0.0512 -0.1495 -0.0147
  324loPI   C6A 5180  13.345   6.724   7.263 -0.0817  0.2227 -0.3204
  324loPI   C1B 5181  13.992   7.204   9.207  0.1370 -0.1444 -0.0094
  324loPI   C2B 5182  14.205   7.181   8.847  0.3818 -0.0163  0.1804
  324loPI   C3B 5183  14.131   7.292   8.374 -0.0049 -0.2584 -0.1860
  324loPI   C4B 5184  14.329   7.258   8.019  0.0947  0.3064 -0.3329
  325loPI    C1 5185  15.350  14.662  10.005  0.0055  0.0215  0.1417
  325loPI    C2 5186  15.123  14.984  10.072 -0.1213 -0.0761  0.1846
  325loPI    C3 5187  15.212  14.736  10.373 -0.1677 -0.1742  0.1181
  325loPI   PO4 5188  15.248  14.639   9.767 -0.0393 -0.2329  0.0871
  325loPI   GL1 5189  14.953  14.484   9.474  0.1569 -0.0053 -0.4094
  325loPI   GL2 5190  15.096  14.171   9.368 -0.0611 -0.2435  0.2018
  325loPI   C1A 5191  14.928  14.709   8.988  0.0825 -0.1794 -0.1880
  325loPI   C2A 5192  14.873  14.729   8.502  0.0264  0.0010  0.0984
  325loPI   C3A 5193  14.923  14.673   8.062  0.1936 -0.0329  0.0065
  325loPI   C4A 5194  14.976  14.973   7.587  0.0608 -0.0305  0.0683
  325loPI   C5A 5195  15.060  14.880   7.242  0.1465 -0.1748 -0.1446
  325loPI   C6A 5196  15.375  15.016   6.925 -0.0056  0.0956  0.1068
  325loPI   C1B 5197  15.151  14.294   8.991 -0.1965  0.0951 -0.3309
  325loPI   C2B 5198  15.405  14.444   8.651 -0.0918  0.1639 -0.1280
  325loPI   C3B 5199  15.370  14.441   8.269  0.2393  0.0750  0.0392
  325loPI   C4B 5200  15.649  14.407   7.892 -0.1353  0.0953  0.0626
  326loPI    C1 5201   7.067  18.132   9.913 -0.0674  0.0605  0.0740
  326loPI    C2 5202   7.362  18.038  10.166 -0.0605  0.1932  0.1155
  326loPI    C3 5203   7.283  18.422  10.084 -0.0994  0.1523 -0.0402
  326loPI   PO4 5204   7.142  17.862   9.731 -0.0387 -0.2665 -0.0040
  326loPI   GL1 5205   7.331  17.760   9.368  0.1299 -0.1610  0.0188
  326loPI   GL2 5206   7.113  17.852   9.139 -0.0800  0.0821 -0.3311
  326loPI   C1A 5207   7.434  17.605   8.878  0.0844  0.0617  0.2615
  326loPI   C2A 5208   7.328  17.647   8.406  0.0941  0.1512  0.0995
  326loPI   C3A 5209   7.467  17.642   8.027  0.1119 -0.1562 -0.1216
  326loPI   C4A 5210   7.301  17.706   7.629  0.1502  0.1188  0.0994
  326loPI   C5A 5211   7.149  17.398   7.351  0.0639  0.1073  0.2329
  326loPI   C6A 5212   7.121  17.182   6.950  0.0265 -0.0427 -0.1299
  326loPI   C1B 5213   7.226  18.031   8.688  0.0313  0.4054 -0.2382
  326loPI   C2B 5214   7.178  18.245   8.266  0.1491  0.3267  0.1094
  326loPI   C3B 5215   7.115  18.106   7.907 -0.1548 -0.0563 -0.0139
  326loPI   C4B 5216   7.157  18.112   7.373 -0.3240  0.1029 -0.0270
  327loPI    C1 5217   6.781   4.746   9.883 -0.1679 -0.0437  0.0463
  327loPI    C2 5218   6.477   4.904  10.089 -0.1686  0.1547 -0.1040
  327loPI    C3 5219   6.853   5.017  10.167 -0.1634  0.1799 -0.1645
  327loPI   PO4 5220   6.746   4.763   9.690  0.2828  0.0389  0.2683
  327loPI   GL1 5221   6.660   4.958   9.235 -0.0329  0.3106 -0.2665
  327loPI   GL2 5222   6.298   4.724   9.190 -0.1212 -0.2508 -0.0428
  327loPI   C1A 5223   6.445   5.216   9.012 -0.0966 -0.0270 -0.0724
  327loPI   C2A 5224   6.398   5.318   8.627  0.4813 -0.0501 -0.3508
  327loPI   C3A 5225   6.579   5.363   8.279  0.0585 -0.0709  0.0521
  327loPI   C4A 5226   6.699   5.449   7.803 -0.2052 -0.1479 -0.0735
  327loPI   C5A 5227   7.035   5.624   7.435 -0.1278  0.1551  0.4378
  327loPI   C6A 5228   6.933   6.019   7.401  0.1496 -0.1036 -0.2102
  327loPI   C1B 5229   6.344   4.639   8.822  0.1466 -0.1277 -0.1462
  327loPI   C2B 5230   6.279   4.622   8.410 -0.2597  0.0967  0.3171
  327loPI   C3B 5231   6.350   4.707   8.021 -0.3259  0.0546 -0.2610
  327loPI   C4B 5232   6.558   4.983   7.778 -0.0816  0.3230 -0.3439
  328loPI    C1 5233   4.395   6.441   9.454  0.0428 -0.1567  0.0941
  328loPI    C2 5234   4.422   6.668   9.782  0.4232 -0.0656  0.0041
  328loPI    C3 5235   4.339   6.278   9.815 -0.1100  0.0535  0.1676
  328loPI   PO4 5236   4.248   6.608   9.271  0.1853 -0.2036 -0.0222
  328loPI   GL1 5237   4.243   6.786   8.890 -0.1558 -0.1097  0.0866
  328loPI   GL2 5238   4.119   7.060   9.082 -0.1760  0.0348  0.0642
  328loPI   C1A 5239   4.303   6.710   8.399  0.0098 -0.0037  0.0328
  328loPI   C2A 5240   4.311   6.792   7.939  0.2136 -0.2514  0.2022
  328loPI   C3A 5241   4.324   6.864   7.525 -0.0306 -0.0210 -0.1312
  328loPI   C4A 5242   3.991   7.084   7.252 -0.1807  0.1421  0.3923
  328loPI   C5A 5243   3.815   7.290   7.154 -0.4550 -0.2082 -0.1921
  328loPI   C6A 5244   3.876   7.695   7.032 -0.2751  0.0905 -0.0730
  328loPI   C1B 5245   4.016   7.125   8.668 -0.0691 -0.0115  0.2159
  328loPI   C2B 5246   4.124   7.159   8.234  0.1910 -0.1090  0.2294
  328loPI   C3B 5247   4.082   7.531   7.881 -0.1314 -0.0766 -0.1168
  328loPI   C4B 5248   4.039   7.603   7.526  0.0139  0.2056 -0.0512
  329loPI    C1 5249  18.505   1.979  10.417 -0.0917 -0.0998 -0.0127
  329loPI    C2 5250  18.402   2.247  10.696 -0.0122 -0.0714 -0.0104
  329loPI    C3 5251  18.449   1.863  10.796 -0.0621 -0.0751 -0.0007
  329loPI   PO4 5252  18.359   1.947  10.167  0.0648  0.0439  0.2136
  329loPI   GL1 5253  18.396   1.928   9.679  0.2862 -0.0063  0.0726
  329loPI   GL2 5254  18.541   2.174   9.660 -0.0564  0.0281 -0.1117
  329loPI   C1A 5255  18.208   1.664   9.217 -0.0612 -0.1168  0.0195
  329loPI   C2A 5256  18.140   1.608   8.839  0.0599  0.0069  0.0692
  329loPI   C3A 5257  17.777   1.370   8.520  0.0555 -0.2062 -0.4503
  329loPI   C4A 5258  17.557   1.323   8.215 -0.0745 -0.3095  0.0948
  329loPI   C5A 5259  17.181   1.191   7.921 -0.4959 -0.1841 -0.1428
  329loPI   C6A 5260  16.863   1.390   7.600 -0.1606  0.2343 -0.0553
  329loPI   C1B 5261  18.446   2.385   9.372  0.1127  0.0984  0.2484
  329loPI   C2B 5262  18.447   2.566   8.970 -0.0747 -0.0955 -0.0216
  329loPI   C3B 5263  18.565   2.511   8.532  0.1118  0.0525 -0.2254
  329loPI   C4B 5264  18.750   2.501   8.098 -0.3423  0.0972 -0.4094
  330loPI    C1 5265  14.568   8.823  10.018  0.1718  0.0662 -0.2539
  330loPI    C2 5266  14.670   9.090  10.298 -0.2390  0.1332 -0.1608
  330loPI    C3 5267  14.899   8.768  10.235 -0.0349  0.2216  0.1107
  330loPI   PO4 5268  14.454   8.940   9.764 -0.0476 -0.1190  0.0645
  330loPI   GL1 5269  14.570   9.138   9.479  0.0155 -0.2856 -0.0357
  330loPI   GL2 5270  14.603   8.808   9.294 -0.2191  0.1866  0.2450
  330loPI   C1A 5271  14.355   9.256   9.071 -0.1479  0.3618  0.1283
  330loPI   C2A 5272  14.216   9.224   8.659  0.0363 -0.3125  0.2325
  330loPI   C3A 5273  14.004   9.471   8.302 -0.2351  0.1520 -0.2477
  330loPI   C4A 5274  13.931   9.660   7.943  0.0202 -0.0493 -0.0407
  330loPI   C5A 5275  13.491   9.821   7.830  0.3681  0.0274  0.1059
  330loPI   C6A 5276  13.317  10.259   7.734 -0.1474  0.1233 -0.1157
  330loPI   C1B 5277  14.850   8.658   9.030  0.0560  0.0597 -0.0628
  330loPI   C2B 5278  15.158   8.836   8.662  0.1083  0.3836  0.1639
  330loPI   C3B 5279  14.986   8.818   8.194 -0.0669  0.0522  0.2086
  330loPI   C4B 5280  14.837   8.847   7.797  0.2106  0.0851 -0.2651
  331loPI    C1 5281  15.953  15.200  10.148 -0.1389  0.1410  0.0034
  331loPI    C2 5282  15.599  15.100   9.989 -0.2288 -0.0402  0.3090
  331loPI    C3 5283  15.705  14.958  10.347  0.0488  0.2139  0.3321
  331loPI   PO4 5284  16.111  15.157   9.959  0.1448  0.1475  0.3046
  331loPI   GL1 5285  16.301  15.489   9.637  0.4435 -0.3500  0.2105
  331loPI   GL2 5286  16.214  15.441   9.329  0.0652  0.0027  0.3120
  331loPI   C1A 5287  16.185  15.906   9.458 -0.0743 -0.4850 -0.1174
  331loPI   C2A 5288  16.215  16.317   9.385 -0.1811  0.0793 -0.1792
  331loPI   C3A 5289  16.193  16.867   9.484  0.2370 -0.1312 -0.2074
  331loPI   C4A 5290  16.151  17.084   9.292 -0.0615 -0.0344  0.3522
  331loPI   C5A 5291  16.123  17.063   8.881 -0.1495  0.1615  0.1094
  331loPI   C6A 5292  16.293  17.066   8.420 -0.1695  0.1229 -0.2330
  331loPI   C1B 5293  16.196  15.789   8.994 -0.1412 -0.2476  0.1422
  331loPI   C2B 5294  16.387  15.993   8.590 -0.2867 -0.0785  0.1259
  331loPI   C3B 5295  16.434  16.167   8.151  0.0420  0.0910 -0.0264
  331loPI   C4B 5296  16.425  16.324   7.746 -0.1982  0.1505 -0.0551
  332loPI    C1 5297   7.086  14.818   9.867 -0.0683 -0.0463  0.1781
  332loPI    C2 5298   7.473  14.723   9.832 -0.0538  0.0250  0.1443
  332loPI    C3 5299   7.280  14.656  10.176 -0.0197 -0.0402  0.1507
  332loPI   PO4 5300   6.968  14.800   9.654 -0.2723 -0.0671  0.2212
  332loPI   GL1 5301   6.981  14.926   9.268 -0.0527 -0.1747  0.0003
  332loPI   GL2 5302   7.018  15.202   9.255 -0.1087  0.2513 -0.0678
  332loPI   C1A 5303   6.912  14.738   8.775  0.2094 -0.0108 -0.2603
  332loPI   C2A 5304   6.650  14.379   8.507 -0.1530 -0.0011 -0.2633
  332loPI   C3A 5305   6.594  13.961   8.101 -0.0391 -0.2174 -0.2498
  332loPI   C4A 5306   6.506  13.826   7.743 -0.1160  0.3366 -0.2016
  332loPI   C5A 5307   6.659  14.189   7.406 -0.1151 -0.0893 -0.1022
  332loPI   C6A 5308   7.148  14.421   7.471 -0.0520 -0.2525  0.0377
  332loPI   C1B 5309   6.855  15.270   8.895 -0.1073 -0.0082 -0.1494
  332loPI   C2B 5310   6.828  15.169   8.547  0.3560 -0.2767 -0.1238
  332loPI   C3B 5311   6.901  14.915   8.207 -0.0190 -0.0704  0.2000
  332loPI   C4B 5312   7.236  14.790   7.879 -0.3704  0.1346  0.0428
  333loPI    C1 5313   0.168   2.717  10.191  0.0435 -0.0804  0.1687
  333loPI    C2 5314  -0.149   2.819  10.412 -0.0275  0.0246  0.0200
  333loPI    C3 5315  -0.038   3.049  10.104 -0.0308 -0.2078 -0.1579
  333loPI   PO4 5316   0.073   2.496   9.974 -0.2713 -0.2531  0.1733
  333loPI   GL1 5317  -0.061   2.750   9.642  0.1130  0.1906  0.3286
  333loPI   GL2 5318   0.148   2.524   9.481 -0.2558 -0.1872  0.2404
  333loPI   C1A 5319  -0.359   2.825   9.195 -0.1924  0.0959 -0.1901
  333loPI   C2A 5320  -0.259   2.820   8.794 -0.0655  0.2184  0.3854
  333loPI   C3A 5321   0.019   2.808   8.342 -0.3485 -0.1644 -0.2096
  333loPI   C4A 5322  -0.033   3.020   8.030 -0.0353  0.1758  0.0703
  333loPI   C5A 5323  -0.317   3.096   7.577 -0.1376  0.1013 -0.2546
  333loPI   C6A 5324  -0.737   3.010   7.356  0.3295 -0.0851  0.2604
  333loPI   C1B 5325  -0.210   2.253   9.449 -0.0332 -0.0179 -0.2235
  333loPI   C2B 5326  -0.359   2.226   9.096  0.0082  0.2519 -0.2039
  333loPI   C3B 5327  -0.628   2.060   8.778  0.0759 -0.1323 -0.1559
  333loPI   C4B 5328  -0.803   1.867   8.444  0.3649 -0.1790 -0.1808
  334loPI    C1 5329  10.060   6.647  10.126 -0.0671  0.0652 -0.0972
  334loPI    C2 5330  10.083   6.253  10.195  0.1480  0.0859 -0.0428
  334loPI    C3 5331   9.736   6.445  10.246  0.1381 -0.0235  0.3300
  334loPI   PO4 5332  10.124   6.644   9.810 -0.3518 -0.2729 -0.3374
  334loPI   GL1 5333   9.874   6.666   9.422 -0.1768  0.2154  0.1924
  334loPI   GL2 5334   9.712   6.428   9.668  0.0040 -0.0937  0.1369
  334loPI   C1A 5335  10.101   6.752   9.083  0.0828  0.0627  0.0671
  334loPI   C2A 5336  10.125   6.856   8.685  0.0926  0.2180 -0.0416
  334loPI   C3A 5337  10.023   7.026   8.281  0.0886  0.0666 -0.0539
  334loPI   C4A 5338   9.718   7.186   7.887  0.0644 -0.4898 -0.0857
  334loPI   C5A 5339   9.289   7.087   7.686 -0.4205 -0.0783  0.1682
  334loPI   C6A 5340   9.096   7.174   7.298 -0.0656  0.4552  0.0856
  334loPI   C1B 5341   9.739   6.209   9.299 -0.0339  0.1402 -0.2809
  334loPI   C2B 5342  10.012   5.912   8.930 -0.0740  0.0784  0.0816
  334loPI   C3B 5343  10.122   5.802   8.517 -0.2837 -0.1320 -0.2560
  334loPI   C4B 5344  10.168   5.317   8.356 -0.3332 -0.1506  0.1778
  335loPI    C1 5345   8.794   4.493  10.175 -0.1797  0.0182  0.1442
  335loPI    C2 5346   8.518   4.236  10.041 -0.4098  0.2517  0.1609
  335loPI    C3 5347   8.542   4.317  10.432 -0.2049  0.1061  0.1803
  335loPI   PO4 5348   8.932   4.477   9.975 -0.3648  0.2846  0.0014
  335loPI   GL1 5349   8.891   4.091   9.629  0.0871 -0.1799  0.0890
  335loPI   GL2 5350   8.636   4.327   9.521 -0.2708 -0.0152  0.0511
  335loPI   C1A 5351   9.092   4.284   9.229 -0.1377  0.0279 -0.0799
  335loPI   C2A 5352   9.148   4.289   8.745 -0.0775 -0.1840  0.2865
  335loPI   C3A 5353   9.527   4.101   8.558  0.1690 -0.2177 -0.0751
  335loPI   C4A 5354   9.664   3.939   8.067  0.0600  0.2374 -0.1504
  335loPI   C5A 5355   9.734   3.806   7.626 -0.0504 -0.1523 -0.2543
  335loPI   C6A 5356  10.078   3.936   7.381  0.2187 -0.0394  0.0555
  335loPI   C1B 5357   8.513   4.329   9.119 -0.1432 -0.0306  0.0355
  335loPI   C2B 5358   8.689   4.199   8.764 -0.1371  0.6714 -0.3204
  335loPI   C3B 5359   8.840   4.202   8.271  0.2094  0.0167  0.1013
  335loPI   C4B 5360   9.289   4.312   8.127 -0.0358  0.2210  0.1038
  336loPI    C1 5361  11.249  15.479   9.569  0.1368 -0.1234 -0.0054
  336loPI    C2 5362  11.228  15.271   9.910 -0.0107 -0.0150  0.0526
  336loPI    C3 5363  11.249  15.671   9.920 -0.1817 -0.0020 -0.0685
  336loPI   PO4 5364  11.115  15.279   9.319 -0.1736 -0.1554 -0.0991
  336loPI   GL1 5365  11.097  15.234   8.949  0.1211 -0.1362  0.1701
  336loPI   GL2 5366  10.867  15.544   8.890 -0.1745  0.0514 -0.3998
  336loPI   C1A 5367  11.356  15.076   8.704  0.3768  0.1387 -0.1441
  336loPI   C2A 5368  11.629  15.175   8.352  0.1694 -0.0276 -0.1003
  336loPI   C3A 5369  11.581  14.956   7.968  0.0957  0.0743  0.0393
  336loPI   C4A 5370  11.756  14.795   7.601  0.0169  0.4819 -0.4610
  336loPI   C5A 5371  11.960  14.653   7.132  0.2031  0.1421  0.5481
  336loPI   C6A 5372  12.302  14.563   6.861  0.0611 -0.3225 -0.2355
  336loPI   C1B 5373  10.848  15.404   8.506  0.0903  0.1101  0.2927
  336loPI   C2B 5374  11.131  15.108   8.219 -0.2408  0.0007 -0.2367
  336loPI   C3B 5375  11.051  14.949   7.720  0.3850  0.2341  0.1882
  336loPI   C4B 5376  11.231  14.767   7.438 -0.0980  0.3135 -0.3522
  337loPI    C1 5377  10.659  10.306   9.785  0.1190 -0.3652  0.0120
  337loPI    C2 5378  11.041  10.417   9.743  0.1083 -0.2787  0.1377
  337loPI    C3 5379  10.855  10.469  10.093 -0.0378 -0.2623  0.0585
  337loPI   PO4 5380  10.520  10.343   9.466  0.0956 -0.2086  0.0135
  337loPI   GL1 5381  10.588  10.160   9.031 -0.4823  0.0787 -0.0691
  337loPI   GL2 5382  10.418  10.010   8.815 -0.1962  0.1318 -0.0163
  337loPI   C1A 5383  10.962  10.073   8.744 -0.1220  0.2950  0.4022
  337loPI   C2A 5384  11.001  10.089   8.277 -0.3707  0.1929  0.0523
  337loPI   C3A 5385  10.795  10.230   7.957 -0.2521  0.0879 -0.2872
  337loPI   C4A 5386  10.560  10.543   7.683 -0.0323  0.2008 -0.1908
  337loPI   C5A 5387  10.368  10.658   7.269 -0.0529 -0.1550 -0.1924
  337loPI   C6A 5388   9.993  10.651   7.006  0.0318  0.0597  0.0179
  337loPI   C1B 5389  10.562   9.832   8.563  0.1344  0.2321 -0.0215
  337loPI   C2B 5390  10.587   9.796   8.188  0.0673 -0.4843  0.0571
  337loPI   C3B 5391  10.711   9.797   7.862  0.3187 -0.0570  0.2497
  337loPI   C4B 5392  10.890  10.048   7.433  0.0640 -0.0900 -0.1532
  338loPI    C1 5393  15.957  17.664  10.366 -0.2584  0.0666 -0.0447
  338loPI    C2 5394  15.589  17.801  10.293 -0.3213  0.0882  0.2982
  338loPI    C3 5395  15.836  18.007  10.531 -0.0114  0.1782 -0.0901
  338loPI   PO4 5396  16.006  17.571  10.122 -0.1720 -0.1488 -0.2978
  338loPI   GL1 5397  15.780  17.577   9.820 -0.0876 -0.2036 -0.1249
  338loPI   GL2 5398  15.843  17.901   9.626  0.3183 -0.1300  0.0741
  338loPI   C1A 5399  15.875  17.471   9.425  0.0966  0.0165 -0.1909
  338loPI   C2A 5400  15.957  17.503   8.992 -0.0829 -0.0525 -0.0530
  338loPI   C3A 5401  16.356  17.507   8.640 -0.4747  0.0628 -0.1647
  338loPI   C4A 5402  16.444  17.575   8.224 -0.1833 -0.0262  0.0588
  338loPI   C5A 5403  16.610  17.130   7.986 -0.3576 -0.3644 -0.2019
  338loPI   C6A 5404  16.605  16.681   8.097  0.0192  0.0797  0.0147
  338loPI   C1B 5405  15.732  18.032   9.155 -0.0506 -0.2533  0.3471
  338loPI   C2B 5406  15.782  18.088   8.687  0.1118 -0.1388 -0.2942
  338loPI   C3B 5407  15.790  18.068   8.204  0.2407  0.1328  0.3501
  338loPI   C4B 5408  15.571  18.042   7.781 -0.1741  0.1920  0.1977
  339loPI    C1 5409  14.677  10.314  10.135 -0.0979 -0.0881  0.3366
  339loPI    C2 5410  14.562   9.932  10.152 -0.1690 -0.0780  0.1182
  339loPI    C3 5411  14.603  10.144  10.489 -0.5360 -0.1577  0.2167
  339loPI   PO4 5412  14.752  10.314   9.898  0.1735 -0.0781  0.2619
  339loPI   GL1 5413  14.687  10.448   9.430  0.1709 -0.0632 -0.2263
  339loPI   GL2 5414  15.014  10.596   9.499  0.1272 -0.5627 -0.0664
  339loPI   C1A 5415  14.707  10.573   8.967  0.1348  0.1637 -0.0709
  339loPI   C2A 5416  14.421  10.652   8.590  0.2619  0.2746  0.0223
  339loPI   C3A 5417  14.559  10.641   8.116  0.2292  0.1499 -0.1441
  339loPI   C4A 5418  14.328  10.526   7.739  0.0501  0.2587 -0.0024
  339loPI   C5A 5419  14.362  10.597   7.327  0.1826 -0.0534 -0.0663
  339loPI   C6A 5420  14.417  10.368   6.965 -0.1162 -0.1113  0.0855
  339loPI   C1B 5421  15.240  10.564   9.164  0.0498  0.1618  0.1814
  339loPI   C2B 5422  15.616  10.460   8.970 -0.4666 -0.2090 -0.1728
  339loPI   C3B 5423  15.665  10.219   8.617  0.1611  0.1023  0.1836
  339loPI   C4B 5424  15.877   9.884   8.595 -0.0340  0.2398  0.0110
  340loPI    C1 5425   6.546  13.289   9.682 -0.0457  0.2901  0.1232
  340loPI    C2 5426   6.637  12.948   9.870  0.1736  0.2567 -0.0394
  340loPI    C3 5427   6.911  13.238   9.838  0.1173  0.2882 -0.2493
  340loPI   PO4 5428   6.261  13.334   9.664 -0.0951  0.1216  0.4475
  340loPI   GL1 5429   5.916  13.618   9.482 -0.3616 -0.0597  0.0965
  340loPI   GL2 5430   5.675  13.820   9.521  0.0885 -0.3285 -0.0396
  340loPI   C1A 5431   5.872  13.236   9.179  0.2322  0.0496 -0.0318
  340loPI   C2A 5432   5.581  13.069   8.769 -0.0015  0.2731 -0.0647
  340loPI   C3A 5433   5.462  13.125   8.432 -0.4582 -0.0974 -0.1675
  340loPI   C4A 5434   5.188  12.921   8.122 -0.0290  0.2394 -0.0196
  340loPI   C5A 5435   4.853  12.627   7.971 -0.0172 -0.0317 -0.2634
  340loPI   C6A 5436   4.819  12.643   7.544 -0.0728 -0.0416 -0.1637
  340loPI   C1B 5437   5.448  13.675   9.193  0.0370 -0.0019 -0.0774
  340loPI   C2B 5438   5.317  13.500   8.788  0.2906  0.0095  0.2012
  340loPI   C3B 5439   4.895  13.164   8.646  0.0457 -0.3292 -0.0816
  340loPI   C4B 5440   4.628  12.936   8.550 -0.0962  0.2264 -0.0945
  341loPI    C1 5441   3.006  13.382  10.139  0.0520 -0.2455 -0.0853
  341loPI    C2 5442   2.628  13.261  10.188  0.0734 -0.1781  0.2696
  341loPI    C3 5443   2.750  13.607  10.348  0.2415 -0.1128  0.0070
  341loPI   PO4 5444   3.004  13.416   9.879 -0.0377  0.1213  0.1075
  341loPI   GL1 5445   2.937  13.439   9.432  0.1793 -0.0943 -0.0934
  341loPI   GL2 5446   3.164  13.242   9.374 -0.1350 -0.2908 -0.0044
  341loPI   C1A 5447   2.728  13.414   8.956  0.1056  0.0220 -0.1945
  341loPI   C2A 5448   2.407  13.384   8.678 -0.0417  0.2149 -0.0215
  341loPI   C3A 5449   2.249  13.096   8.373  0.0012  0.1003 -0.0025
  341loPI   C4A 5450   2.206  12.901   7.940 -0.1842  0.0699  0.0959
  341loPI   C5A 5451   1.967  12.875   7.494  0.0142  0.1112 -0.2312
  341loPI   C6A 5452   1.884  12.591   7.220 -0.1851 -0.0655 -0.0495
  341loPI   C1B 5453   3.186  13.397   8.928 -0.0507  0.3028  0.1288
  341loPI   C2B 5454   3.103  13.603   8.614 -0.0523  0.2915 -0.5764
  341loPI   C3B 5455   2.754  13.613   8.349 -0.2003 -0.2418 -0.1959
  341loPI   C4B 5456   2.666  13.539   7.955 -0.0037  0.1661  0.3739
  342loPI    C1 5457  12.886  11.252   9.972  0.3991  0.1411  0.1765
  342loPI    C2 5458  12.736  11.610  10.067 -0.2322 -0.0715  0.0311
  342loPI    C3 5459  12.956  11.408  10.333 -0.1375  0.2828  0.2282
  342loPI   PO4 5460  12.919  11.295   9.756  0.0106  0.3272  0.0223
  342loPI   GL1 5461  13.056  11.532   9.411  0.1310  0.0142  0.2264
  342loPI   GL2 5462  12.877  11.340   9.254 -0.1801 -0.1119 -0.2824
  342loPI   C1A 5463  13.131  11.743   9.045 -0.2301  0.0692 -0.1357
  342loPI   C2A 5464  13.406  11.888   8.712  0.0502  0.3827  0.0653
  342loPI   C3A 5465  13.454  11.701   8.206 -0.1079  0.1858 -0.1223
  342loPI   C4A 5466  13.437  11.837   7.950 -0.0845 -0.0826  0.1308
  342loPI   C5A 5467  13.288  12.144   7.714  0.1196 -0.0131  0.0735
  342loPI   C6A 5468  13.066  12.500   7.648  0.1280 -0.1504  0.0787
  342loPI   C1B 5469  12.711  11.578   8.948 -0.2323 -0.0734 -0.0576
  342loPI   C2B 5470  12.825  11.491   8.576 -0.1372 -0.3902  0.1838
  342loPI   C3B 5471  12.697  11.382   8.242 -0.0898  0.0285 -0.1696
  342loPI   C4B 5472  12.925  11.248   7.823 -0.3422  0.3148  0.2936
  343loPI    C1 5473   2.224   9.763   9.697  0.2299  0.2021 -0.0482
  343loPI    C2 5474   2.181   9.706  10.090  0.1827  0.0723 -0.0716
  343loPI    C3 5475   2.529   9.838   9.944  0.2391  0.0055  0.0016
  343loPI   PO4 5476   2.010   9.712   9.568 -0.0140 -0.0156  0.0326
  343loPI   GL1 5477   1.910   9.381   9.300  0.2748 -0.0718  0.1603
  343loPI   GL2 5478   2.192   9.424   9.252 -0.1234 -0.0522  0.0897
  343loPI   C1A 5479   1.881   9.699   8.849 -0.3866  0.0472  0.0785
  343loPI   C2A 5480   2.144   9.973   8.656  0.0680  0.0277  0.2258
  343loPI   C3A 5481   2.154  10.374   8.597 -0.3875 -0.1297 -0.1851
  343loPI   C4A 5482   2.417  10.647   8.333 -0.1901 -0.2607 -0.3281
  343loPI   C5A 5483   2.362  10.784   7.923  0.0914  0.1377  0.0498
  343loPI   C6A 5484   2.214  11.213   7.655 -0.1291 -0.0893 -0.1776
  343loPI   C1B 5485   2.173   9.292   8.928  0.1884 -0.1987  0.1930
  343loPI   C2B 5486   2.045   9.319   8.492 -0.0093 -0.0511 -0.3702
  343loPI   C3B 5487   2.011   9.626   8.237  0.0113  0.1831 -0.1120
  343loPI   C4B 5488   2.246  10.040   8.096 -0.2225 -0.1832 -0.1131
  344loPI    C1 5489   1.756  13.000  10.021 -0.1566  0.0765 -0.2392
  344loPI    C2 5490   2.126  13.128  10.101 -0.1057 -0.1968 -0.0208
  344loPI    C3 5491   1.813  13.289  10.292 -0.0980  0.0080 -0.1778
  344loPI   PO4 5492   1.662  13.153   9.699  0.2523 -0.2169  0.2040
  344loPI   GL1 5493   1.628  13.262   9.124  0.1957 -0.4491  0.1335
  344loPI   GL2 5494   1.912  13.543   9.184  0.3757 -0.2242 -0.0876
  344loPI   C1A 5495   1.441  13.514   8.833 -0.0162 -0.1274  0.5152
  344loPI   C2A 5496   1.289  13.525   8.307  0.4078  0.1215  0.0919
  344loPI   C3A 5497   1.321  13.703   7.828  0.0518  0.0395 -0.2736
  344loPI   C4A 5498   1.061  13.803   7.559 -0.1712  0.0094 -0.2232
  344loPI   C5A 5499   0.981  13.458   7.193 -0.0358 -0.3083 -0.2679
  344loPI   C6A 5500   0.741  13.199   7.102  0.0539 -0.0362 -0.0141
  344loPI   C1B 5501   1.961  13.694   8.735  0.3221  0.0438 -0.2925
  344loPI   C2B 5502   1.743  13.669   8.353 -0.4223 -0.0702 -0.0345
  344loPI   C3B 5503   1.384  13.976   8.207  0.0658 -0.2299  0.3190
  344loPI   C4B 5504   1.204  14.230   7.812 -0.2487  0.2973  0.3411
  345loPI    C1 5505  17.003   6.844  10.640  0.1534  0.3001  0.0752
  345loPI    C2 5506  16.728   6.914  10.923 -0.0540  0.0025 -0.0478
  345loPI    C3 5507  17.083   6.759  11.023 -0.0721  0.0339  0.0668
  345loPI   PO4 5508  16.852   6.859  10.423  0.0563  0.1463  0.1583
  345loPI   GL1 5509  16.606   6.968  10.053  0.1566 -0.0920  0.1739
  345loPI   GL2 5510  16.769   6.714   9.938 -0.0186  0.3213 -0.0361
  345loPI   C1A 5511  16.530   7.074   9.566  0.1456 -0.0340 -0.2107
  345loPI   C2A 5512  16.481   7.035   9.206  0.2094  0.1067 -0.0272
  345loPI   C3A 5513  16.542   6.940   8.768 -0.1660  0.2312  0.0245
  345loPI   C4A 5514  16.504   7.126   8.349  0.0225  0.3619  0.0756
  345loPI   C5A 5515  16.522   7.557   8.144 -0.1695  0.0360 -0.2280
  345loPI   C6A 5516  16.475   7.424   7.717  0.1113 -0.0825  0.1585
  345loPI   C1B 5517  16.975   6.820   9.534  0.0294 -0.1522 -0.0747
  345loPI   C2B 5518  16.946   7.096   9.170  0.2288 -0.0659 -0.1458
  345loPI   C3B 5519  17.053   7.147   8.823  0.1459 -0.2531 -0.0455
  345loPI   C4B 5520  16.961   7.178   8.391  0.2715 -0.2535 -0.1008
  346loPI    C1 5521  13.138  16.325  10.213  0.2342  0.1326 -0.1248
  346loPI    C2 5522  12.856  16.498  10.437  0.1478  0.0755 -0.1891
  346loPI    C3 5523  13.072  16.196  10.585  0.0941  0.0413 -0.1804
  346loPI   PO4 5524  13.320  16.523  10.027 -0.1262  0.0713 -0.0582
  346loPI   GL1 5525  13.275  16.536   9.616  0.2953  0.3216 -0.0962
  346loPI   GL2 5526  13.567  16.661   9.549 -0.0312 -0.1821  0.4877
  346loPI   C1A 5527  13.401  16.218   9.348  0.2025 -0.0561  0.2974
  346loPI   C2A 5528  13.281  16.156   8.923  0.1166 -0.4370  0.0895
  346loPI   C3A 5529  13.265  16.258   8.578 -0.0393 -0.2013  0.0363
  346loPI   C4A 5530  13.002  16.021   8.322  0.1272 -0.1554  0.3679
  346loPI   C5A 5531  12.932  16.015   7.807 -0.2989  0.6531 -0.1801
  346loPI   C6A 5532  12.963  16.021   7.444  0.2429 -0.1234  0.0933
  346loPI   C1B 5533  13.742  16.604   9.145 -0.0189  0.0752 -0.1197
  346loPI   C2B 5534  13.844  16.709   8.772 -0.3986  0.1328  0.0058
  346loPI   C3B 5535  13.646  16.592   8.427  0.1200 -0.2388 -0.3539
  346loPI   C4B 5536  13.352  16.360   8.117  0.1832  0.1669  0.1309
  347loPI    C1 5537   5.648  14.496  10.585 -0.1461  0.2633  0.0228
  347loPI    C2 5538   5.748  14.187  10.819 -0.0813  0.0633 -0.2636
  347loPI    C3 5539   5.797  14.562  10.951  0.0126 -0.0450  0.0171
  347loPI   PO4 5540   5.379  14.358  10.490  0.2341 -0.0387  0.0983
  347loPI   GL1 5541   4.999  14.548  10.103 -0.1400  0.2255 -0.1704
  347loPI   GL2 5542   4.720  14.675  10.033 -0.0148  0.0461  0.1006
  347loPI   C1A 5543   5.174  14.286   9.710  0.0591  0.0308  0.0972
  347loPI   C2A 5544   5.308  14.205   9.230 -0.1269  0.1656 -0.2961
  347loPI   C3A 5545   5.274  14.339   8.890 -0.2815  0.1390 -0.3614
  347loPI   C4A 5546   5.129  14.485   8.430 -0.0516 -0.0421 -0.2061
  347loPI   C5A 5547   5.081  14.474   7.996 -0.1172 -0.1402 -0.3121
  347loPI   C6A 5548   4.783  14.683   7.775 -0.1781 -0.1837  0.3148
  347loPI   C1B 5549   4.705  14.257   9.820 -0.0793 -0.1810 -0.0889
  347loPI   C2B 5550   4.482  13.965   9.585  0.1087 -0.0980 -0.0359
  347loPI   C3B 5551   4.069  14.023   9.596 -0.2822 -0.2223 -0.1868
  347loPI   C4B 5552   3.725  13.954   9.417 -0.0154  0.1590 -0.0372
  348loPI    C1 5553   1.425   1.428   9.859 -0.0670  0.2878  0.1210
  348loPI    C2 5554   1.197   1.106   9.925  0.3092 -0.0850 -0.3202
  348loPI    C3 5555   1.482   1.206  10.187  0.0553  0.0193 -0.0778
  348loPI   PO4 5556   1.276   1.581   9.788  0.0050 -0.0536 -0.3573
  348loPI   GL1 5557   1.090   1.749   9.387 -0.3190  0.2197  0.3515
  348loPI   GL2 5558   0.917   1.501   9.205  0.2360  0.3125 -0.0082
  348loPI   C1A 5559   1.300   1.772   9.064 -0.0834 -0.0243 -0.4733
  348loPI   C2A 5560   1.397   1.766   8.641  0.3667  0.2125  0.0462
  348loPI   C3A 5561   1.339   1.700   8.289 -0.0505 -0.1181 -0.0399
  348loPI   C4A 5562   0.985   1.685   7.977 -0.0341 -0.0117  0.0612
  348loPI   C5A 5563   1.067   1.814   7.562 -0.1309  0.3706  0.1475
  348loPI   C6A 5564   0.992   1.845   7.175 -0.0991 -0.0729  0.0248
  348loPI   C1B 5565   0.971   1.443   8.759  0.0208  0.0233  0.1049
  348loPI   C2B 5566   0.716   1.541   8.445 -0.1025  0.3536 -0.0957
  348loPI   C3B 5567   0.436   1.465   8.033  0.2307  0.0647  0.0530
  348loPI   C4B 5568   0.624   1.128   7.785  0.0376 -0.1534  0.1129
  349loPI    C1 5569  15.423   0.937  10.372  0.0457  0.0501 -0.0095
  349loPI    C2 5570  15.300   1.251  10.588  0.2736  0.1200  0.0212
  349loPI    C3 5571  15.409   0.913  10.771  0.0302  0.0222 -0.0118
  349loPI   PO4 5572  15.356   1.018  10.096  0.0544  0.0028  0.3649
  349loPI   GL1 5573  15.381   1.222   9.738  0.1939  0.0350  0.2336
  349loPI   GL2 5574  15.487   1.481   9.698  0.1355  0.0196 -0.0872
  349loPI   C1A 5575  15.577   1.158   9.336  0.0394  0.1660  0.1896
  349loPI   C2A 5576  15.690   1.241   8.939  0.1130  0.0718 -0.0732
  349loPI   C3A 5577  16.062   1.429   8.783 -0.2915  0.2336  0.1469
  349loPI   C4A 5578  16.162   1.390   8.364  0.2619 -0.2378  0.0871
  349loPI   C5A 5579  16.359   1.080   8.053  0.3377 -0.1310 -0.2092
  349loPI   C6A 5580  16.176   0.681   7.864  0.0134  0.0709  0.1366
  349loPI   C1B 5581  15.619   1.701   9.325 -0.1435  0.0437  0.0007
  349loPI   C2B 5582  15.615   1.718   8.846  0.3400 -0.0576  0.2168
  349loPI   C3B 5583  15.766   1.770   8.468 -0.2482  0.2672 -0.0568
  349loPI   C4B 5584  15.985   1.854   8.161 -0.0372  0.2918  0.0197
  350loPI    C1 5585  13.500   0.755  10.431 -0.1209 -0.0674 -0.0039
  350loPI    C2 5586  13.377   0.526  10.735  0.1402 -0.1583  0.0355
  350loPI    C3 5587  13.654   0.389  10.480  0.1766  0.0498 -0.0389
  350loPI   PO4 5588  13.306   0.830  10.321 -0.1718 -0.1431 -0.1251
  350loPI   GL1 5589  13.344   0.936   9.787  0.0212  0.3073 -0.0698
  350loPI   GL2 5590  13.659   0.886   9.584  0.0047  0.1599 -0.1083
  350loPI   C1A 5591  13.169   1.035   9.369 -0.2034 -0.1569 -0.0722
  350loPI   C2A 5592  13.261   1.058   8.938  0.2118 -0.3663 -0.3439
  350loPI   C3A 5593  13.200   0.987   8.462  0.1152  0.1544  0.0234
  350loPI   C4A 5594  13.083   0.926   8.081  0.4990 -0.2837  0.1703
  350loPI   C5A 5595  13.075   0.972   7.608  0.1814  0.0086  0.0954
  350loPI   C6A 5596  12.806   1.040   7.189 -0.1627  0.0116 -0.0407
  350loPI   C1B 5597  13.677   0.930   9.158  0.2777  0.0865 -0.1339
  350loPI   C2B 5598  13.735   1.035   8.668  0.0657 -0.0266 -0.1237
  350loPI   C3B 5599  13.558   1.217   8.200 -0.1138  0.1547  0.1484
  350loPI   C4B 5600  13.557   1.273   7.751  0.3159  0.0818  0.2091
  351loPI    C1 5601   5.652   6.116   9.936  0.1643 -0.2226  0.1302
  351loPI    C2 5602   5.876   6.205  10.256  0.1309  0.1115  0.0637
  351loPI    C3 5603   5.592   5.924  10.283  0.2043  0.0572  0.2949
  351loPI   PO4 5604   5.891   6.269   9.710  0.2487  0.0823  0.1599
  351loPI   GL1 5605   5.714   6.272   9.295 -0.1962  0.0131 -0.5420
  351loPI   GL2 5606   5.410   6.137   9.250 -0.1226  0.0667  0.1785
  351loPI   C1A 5607   5.577   6.366   8.828  0.0542 -0.2593  0.1042
  351loPI   C2A 5608   5.632   6.380   8.384  0.2174 -0.0196 -0.1736
  351loPI   C3A 5609   5.722   6.408   7.967  0.2252  0.0731  0.2654
  351loPI   C4A 5610   5.670   6.338   7.551  0.1013 -0.0478 -0.1395
  351loPI   C5A 5611   5.901   6.086   7.374  0.0488  0.1565  0.1224
  351loPI   C6A 5612   5.978   5.915   6.919  0.3973  0.1535 -0.1566
  351loPI   C1B 5613   5.203   6.078   8.897  0.1330  0.1537  0.0462
  351loPI   C2B 5614   5.182   6.063   8.540  0.1924  0.1489 -0.2780
  351loPI   C3B 5615   4.929   5.926   8.316  0.2815 -0.2143  0.1062
  351loPI   C4B 5616   4.600   6.029   8.174  0.2272 -0.2524  0.2653
  352loPI    C1 5617   8.386   7.838   9.579 -0.2073  0.3106  0.2354
  352loPI    C2 5618   8.666   8.012   9.806 -0.0049 -0.0531  0.2720
  352loPI    C3 5619   8.404   7.759   9.971 -0.0814 -0.0466  0.1612
  352loPI   PO4 5620   8.579   7.700   9.348  0.2032  0.1351  0.1784
  352loPI   GL1 5621   8.570   7.735   8.968  0.1470  0.2018  0.0149
  352loPI   GL2 5622   8.649   7.659   8.674 -0.1116  0.0739 -0.0003
  352loPI   C1A 5623   8.313   7.975   8.714 -0.1339 -0.0234  0.0882
  352loPI   C2A 5624   8.084   8.029   8.411  0.1551  0.0631 -0.1613
  352loPI   C3A 5625   8.178   8.035   8.001  0.5274  0.1329  0.0433
  352loPI   C4A 5626   7.943   7.701   7.603  0.1578  0.1029 -0.4003
  352loPI   C5A 5627   7.724   7.748   7.224 -0.3428 -0.3086 -0.1461
  352loPI   C6A 5628   7.530   7.680   6.768 -0.2324 -0.1745 -0.1451
  352loPI   C1B 5629   8.600   7.805   8.294 -0.1639  0.2142  0.1075
  352loPI   C2B 5630   8.733   7.625   7.896 -0.1161  0.0865 -0.0979
  352loPI   C3B 5631   8.691   7.596   7.467 -0.2428 -0.4008  0.4324
  352loPI   C4B 5632   8.886   7.848   7.217  0.2347  0.0810 -0.4512
  353loPI    C1 5633  17.017  13.269   9.929  0.1341 -0.1322 -0.0561
  353loPI    C2 5634  16.929  12.885   9.859 -0.3024 -0.0353 -0.0625
  353loPI    C3 5635  17.025  13.003  10.228 -0.0272 -0.1738 -0.0877
  353loPI   PO4 5636  17.176  13.377   9.727 -0.2869 -0.2145 -0.0474
  353loPI   GL1 5637  17.096  13.369   9.338  0.4407  0.1992  0.1299
  353loPI   GL2 5638  17.378  13.438   9.233  0.3976 -0.6706  0.1516
  353loPI   C1A 5639  17.107  13.208   8.849  0.1061 -0.1334 -0.0196
  353loPI   C2A 5640  16.991  13.287   8.384 -0.3668 -0.2681 -0.0171
  353loPI   C3A 5641  16.944  13.556   8.020 -0.1335 -0.1261 -0.0543
  353loPI   C4A 5642  16.839  13.873   7.694  0.2308  0.0345  0.1829
  353loPI   C5A 5643  16.608  13.958   7.249 -0.0710  0.2073 -0.0994
  353loPI   C6A 5644  16.638  13.827   6.821 -0.0391  0.2091 -0.3324
  353loPI   C1B 5645  17.542  13.658   8.875 -0.1477  0.1205  0.1777
  353loPI   C2B 5646  17.518  13.671   8.469  0.1719  0.1317  0.1868
  353loPI   C3B 5647  17.474  13.801   8.046  0.2174 -0.2090 -0.2752
  353loPI   C4B 5648  17.619  13.746   7.679  0.1186  0.2561  0.3554
  354loPI    C1 5649   4.926  15.681  10.508  0.2415 -0.3742 -0.2357
  354loPI    C2 5650   5.238  15.695  10.758  0.0688 -0.1282 -0.0282
  354loPI    C3 5651   4.883  15.837  10.874  0.0395  0.1987 -0.4932
  354loPI   PO4 5652   4.944  15.841  10.241  0.0978 -0.1275 -0.0348
  354loPI   GL1 5653   4.917  15.766   9.792  0.2121  0.0030 -0.0059
  354loPI   GL2 5654   4.606  15.805   9.735 -0.3302 -0.2850 -0.0657
  354loPI   C1A 5655   4.937  15.793   9.367  0.1540  0.1401  0.4113
  354loPI   C2A 5656   4.747  15.903   9.014 -0.2503 -0.0628  0.0667
  354loPI   C3A 5657   4.693  15.680   8.605 -0.0562 -0.0262 -0.1068
  354loPI   C4A 5658   4.844  15.487   8.241 -0.3557  0.1162 -0.3167
  354loPI   C5A 5659   5.078  15.243   7.754 -0.0802 -0.2214  0.1064
  354loPI   C6A 5660   5.504  15.219   7.561 -0.2807  0.1861 -0.0013
  354loPI   C1B 5661   4.501  15.479   9.479 -0.0710 -0.1109  0.1515
  354loPI   C2B 5662   4.445  15.492   8.980 -0.3134 -0.0756  0.3287
  354loPI   C3B 5663   4.201  15.567   8.659  0.1036  0.2286  0.1163
  354loPI   C4B 5664   3.941  15.877   8.488  0.0682 -0.2711  0.0090
  355loPI    C1 5665  12.890   3.535  10.464  0.0564  0.1773  0.5829
  355loPI    C2 5666  12.685   3.200  10.390  0.0677  0.2964 -0.0336
  355loPI    C3 5667  12.536   3.474  10.639  0.0425 -0.1426  0.4501
  355loPI   PO4 5668  13.060   3.539  10.193  0.0353 -0.0549 -0.0388
  355loPI   GL1 5669  13.382   3.685   9.899  0.0335 -0.0650  0.1003
  355loPI   GL2 5670  13.706   3.790  10.033  0.2287 -0.0620 -0.4222
  355loPI   C1A 5671  13.363   3.711   9.518  0.0701  0.2335  0.0985
  355loPI   C2A 5672  13.062   3.775   9.172 -0.0063 -0.4373  0.0384
  355loPI   C3A 5673  13.168   3.741   8.787  0.0735 -0.2964 -0.0548
  355loPI   C4A 5674  13.129   3.900   8.309 -0.0560  0.0109  0.3966
  355loPI   C5A 5675  12.850   4.147   8.023 -0.3218 -0.2191  0.1778
  355loPI   C6A 5676  13.048   4.515   7.710 -0.1367  0.4463  0.3052
  355loPI   C1B 5677  13.989   3.832   9.664  0.0156  0.2201  0.3614
  355loPI   C2B 5678  14.075   3.896   9.151 -0.2471  0.0717 -0.0563
  355loPI   C3B 5679  14.304   4.037   8.846  0.0176  0.2615  0.5256
  355loPI   C4B 5680  14.462   3.834   8.442 -0.0639  0.0985 -0.0198
  356loPI    C1 5681   2.854   4.852   9.904 -0.0800 -0.0072 -0.0202
  356loPI    C2 5682   2.527   4.891  10.131 -0.1732 -0.1095 -0.1356
  356loPI    C3 5683   2.888   4.875  10.302 -0.2011  0.3166 -0.0254
  356loPI   PO4 5684   2.818   5.093   9.724 -0.0141  0.2407  0.0806
  356loPI   GL1 5685   2.862   5.118   9.279  0.0680  0.0396 -0.0102
  356loPI   GL2 5686   2.711   5.368   9.244  0.1860  0.0936 -0.1911
  356loPI   C1A 5687   3.092   5.105   8.942 -0.3828  0.1755 -0.0728
  356loPI   C2A 5688   3.354   4.971   8.654  0.0059 -0.1030  0.1125
  356loPI   C3A 5689   3.635   4.968   8.291  0.0566  0.0799  0.1485
  356loPI   C4A 5690   3.751   4.985   8.013 -0.1533  0.0186  0.2176
  356loPI   C5A 5691   3.787   5.006   7.582 -0.3805 -0.2773 -0.1686
  356loPI   C6A 5692   4.117   5.019   7.308 -0.2306  0.3290 -0.2255
  356loPI   C1B 5693   2.639   5.242   8.741  0.3709  0.3381  0.1190
  356loPI   C2B 5694   2.520   5.147   8.280  0.4339 -0.2711 -0.2512
  356loPI   C3B 5695   2.728   4.959   8.075  0.0516  0.1061  0.1531
  356loPI   C4B 5696   2.698   4.742   7.638 -0.0582 -0.1489  0.1559
  357loPI    C1 5697   2.763  14.140  10.094  0.0832  0.1332  0.1578
  357loPI    C2 5698   3.060  13.876  10.139  0.0716  0.1252  0.1877
  357loPI    C3 5699   2.900  14.053  10.460 -0.1233 -0.0553  0.1926
  357loPI   PO4 5700   2.826  14.347   9.978 -0.2229  0.0946 -0.1925
  357loPI   GL1 5701   2.744  14.372   9.635 -0.0665 -0.0867  0.2479
  357loPI   GL2 5702   2.962  14.605   9.618 -0.0108  0.1248 -0.8042
  357loPI   C1A 5703   2.811  14.120   9.266 -0.3221 -0.3771  0.2462
  357loPI   C2A 5704   2.896  13.942   8.917  0.0482 -0.0188  0.2174
  357loPI   C3A 5705   2.915  14.069   8.552 -0.1217 -0.0991  0.2230
  357loPI   C4A 5706   3.116  13.925   8.182 -0.2480 -0.2433 -0.1592
  357loPI   C5A 5707   3.235  14.085   7.763  0.2840  0.0909 -0.1431
  357loPI   C6A 5708   3.315  14.459   7.550  0.2355  0.2967  0.0064
  357loPI   C1B 5709   2.885  14.753   9.308 -0.0568 -0.0071 -0.2560
  357loPI   C2B 5710   2.807  14.502   8.913 -0.0087 -0.1263 -0.2981
  357loPI   C3B 5711   2.628  14.591   8.480 -0.1169 -0.2167  0.2303
  357loPI   C4B 5712   2.687  14.482   8.067 -0.2036 -0.1274 -0.0758
  358loPI    C1 5713   0.770  16.904  10.477 -0.0765 -0.0347 -0.1151
  358loPI    C2 5714   0.851  16.542  10.329  0.1246 -0.0709  0.0776
  358loPI    C3 5715   1.070  16.857  10.218  0.1182 -0.0548  0.1107
  358loPI   PO4 5716   0.436  16.880  10.413  0.0199  0.0093 -0.0222
  358loPI   GL1 5717   0.412  16.651  10.040  0.1795  0.1776  0.1131
  358loPI   GL2 5718   0.310  16.365   9.807  0.0020  0.0040 -0.4117
  358loPI   C1A 5719   0.829  16.511   9.784 -0.0614  0.3102 -0.0398
  358loPI   C2A 5720   1.006  16.622   9.374 -0.0905  0.2154 -0.2508
  358loPI   C3A 5721   0.850  16.766   8.985  0.2852  0.2872 -0.0175
  358loPI   C4A 5722   0.837  16.782   8.498  0.0193  0.0802 -0.0646
  358loPI   C5A 5723   0.807  16.821   8.025  0.2367 -0.1418  0.0662
  358loPI   C6A 5724   0.713  16.411   7.712  0.2854 -0.1784  0.2674
  358loPI   C1B 5725   0.450  16.543   9.421 -0.2604  0.2848  0.2160
  358loPI   C2B 5726   0.381  16.525   8.924  0.3875 -0.0358  0.1509
  358loPI   C3B 5727   0.370  16.572   8.455  0.1845  0.1888 -0.2382
  358loPI   C4B 5728   0.310  16.779   7.988  0.2029 -0.1040 -0.0809
  359loPI    C1 5729  11.546   8.440   9.803  0.0134 -0.1811  0.1388
  359loPI    C2 5730  11.251   8.628   9.997 -0.0004  0.0252 -0.0782
  359loPI    C3 5731  11.630   8.750  10.042  0.0425 -0.1748  0.1205
  359loPI   PO4 5732  11.529   8.475   9.549 -0.1153 -0.0864  0.1101
  359loPI   GL1 5733  11.732   8.303   9.260  0.1986  0.2108 -0.0026
  359loPI   GL2 5734  12.121   8.396   9.178  0.1920 -0.1741  0.5188
  359loPI   C1A 5735  11.524   8.342   8.864  0.2836  0.0182  0.1363
  359loPI   C2A 5736  11.720   8.289   8.541  0.2089 -0.1654  0.0536
  359loPI   C3A 5737  11.618   8.112   8.165  0.0381 -0.0233 -0.2160
  359loPI   C4A 5738  11.376   7.747   8.112  0.0123  0.3901  0.2955
  359loPI   C5A 5739  11.006   7.603   7.946  0.0223  0.0874  0.1199
  359loPI   C6A 5740  10.569   7.609   7.741 -0.2183  0.2634  0.0351
  359loPI   C1B 5741  12.145   8.631   8.677  0.0004 -0.0549 -0.2686
  359loPI   C2B 5742  12.323   8.742   8.319 -0.2801  0.0376  0.1729
  359loPI   C3B 5743  12.299   8.833   7.994  0.2040 -0.1019  0.0649
  359loPI   C4B 5744  12.328   8.882   7.513  0.1900  0.0599  0.1712
  360loPI    C1 5745   4.882   6.464   9.853  0.1757  0.1149  0.0933
  360loPI    C2 5746   5.203   6.321  10.045  0.0024  0.0152  0.3132
  360loPI    C3 5747   5.165   6.715   9.984  0.2436  0.0139  0.1414
  360loPI   PO4 5748   4.926   6.370   9.576 -0.0477 -0.0146  0.0627
  360loPI   GL1 5749   4.803   6.252   9.206  0.1394 -0.1424  0.1391
  360loPI   GL2 5750   4.682   6.507   9.072  0.0208 -0.2016 -0.0080
  360loPI   C1A 5751   4.724   6.198   8.737  0.0857 -0.2728 -0.0015
  360loPI   C2A 5752   4.302   6.250   8.523 -0.0898  0.4250 -0.0540
  360loPI   C3A 5753   4.124   6.363   8.074 -0.1270 -0.1511 -0.3044
  360loPI   C4A 5754   4.050   6.463   7.598 -0.2225 -0.0788 -0.0794
  360loPI   C5A 5755   3.679   6.754   7.383 -0.2881 -0.1459 -0.0152
  360loPI   C6A 5756   3.376   6.964   7.237 -0.1775 -0.0784  0.0822
  360loPI   C1B 5757   5.125   6.584   8.960 -0.0126  0.0890  0.0572
  360loPI   C2B 5758   5.232   6.612   8.486 -0.2315 -0.0566  0.3799
  360loPI   C3B 5759   5.203   6.313   8.127  0.0839  0.3044  0.0028
  360loPI   C4B 5760   5.196   6.376   7.765 -0.0498  0.1061 -0.3202
  361loPI    C1 5761   0.393   3.332  10.220  0.0785  0.2451 -0.2616
  361loPI    C2 5762   0.590   2.984  10.199 -0.0268  0.1617  0.0807
  361loPI    C3 5763   0.326   3.048  10.494  0.0251  0.5498  0.0481
  361loPI   PO4 5764   0.272   3.415   9.995  0.0536 -0.1575 -0.0858
  361loPI   GL1 5765   0.156   3.174   9.527  0.2374  0.2564 -0.2326
  361loPI   GL2 5766   0.477   2.992   9.499 -0.0343 -0.3173 -0.2067
  361loPI   C1A 5767   0.130   2.843   9.148 -0.1868 -0.0280 -0.2803
  361loPI   C2A 5768   0.048   2.421   8.925 -0.0242  0.3332  0.1759
  361loPI   C3A 5769  -0.155   2.146   8.513  0.0048 -0.1525  0.1467
  361loPI   C4A 5770  -0.443   1.929   8.148 -0.0282  0.0134 -0.1290
  361loPI   C5A 5771  -0.666   1.546   8.064  0.1965  0.1709 -0.0830
  361loPI   C6A 5772  -1.111   1.386   8.067  0.0452 -0.2263  0.2443
  361loPI   C1B 5773   0.455   3.253   9.090  0.0132  0.0793 -0.0005
  361loPI   C2B 5774   0.699   3.213   8.714  0.0996 -0.0883  0.0051
  361loPI   C3B 5775   0.925   3.475   8.311 -0.5762  0.0578  0.1477
  361loPI   C4B 5776   0.860   3.641   7.920 -0.1148 -0.3470  0.0586
  362loPI    C1 5777  12.738  14.267   9.700 -0.1470 -0.3644 -0.0450
  362loPI    C2 5778  12.561  14.427  10.021 -0.0243 -0.1543 -0.0805
  362loPI    C3 5779  12.441  14.531   9.654  0.0128 -0.1937 -0.1039
  362loPI   PO4 5780  12.999  14.314   9.750 -0.0349  0.0471  0.0345
  362loPI   GL1 5781  13.282  14.143   9.395 -0.2331 -0.3237 -0.0233
  362loPI   GL2 5782  12.944  13.906   9.392 -0.1122  0.2101  0.0258
  362loPI   C1A 5783  13.355  14.331   8.957 -0.1239  0.0992 -0.1444
  362loPI   C2A 5784  13.365  14.315   8.403 -0.1931 -0.0098  0.2330
  362loPI   C3A 5785  13.462  14.513   7.972  0.0882  0.1369  0.1855
  362loPI   C4A 5786  13.828  14.474   7.749 -0.1602  0.0121 -0.1533
  362loPI   C5A 5787  13.867  14.499   7.285  0.0891 -0.2027  0.0141
  362loPI   C6A 5788  14.287  14.241   7.185  0.1241 -0.4029  0.0979
  362loPI   C1B 5789  13.022  13.952   8.947 -0.4767  0.0909  0.0310
  362loPI   C2B 5790  13.096  13.753   8.453 -0.2082 -0.0588  0.1732
  362loPI   C3B 5791  13.274  13.863   8.119 -0.1624 -0.1981  0.1662
  362loPI   C4B 5792  13.461  13.524   7.830 -0.2892 -0.2792  0.0760
  363loPI    C1 5793   5.701   6.840   9.737  0.1108  0.0881  0.3009
  363loPI    C2 5794   5.986   6.776  10.010  0.1618 -0.0885  0.2079
  363loPI    C3 5795   5.626   6.605  10.052  0.2326 -0.2755  0.0644
  363loPI   PO4 5796   5.808   7.106   9.582 -0.0628 -0.0797  0.0669
  363loPI   GL1 5797   5.933   7.233   9.166  0.0598 -0.0492 -0.2241
  363loPI   GL2 5798   6.281   7.080   9.152 -0.0300 -0.1591 -0.1034
  363loPI   C1A 5799   5.810   6.957   8.841 -0.2931  0.1945  0.0545
  363loPI   C2A 5800   5.639   6.859   8.369 -0.0104 -0.3451 -0.1146
  363loPI   C3A 5801   5.399   6.806   7.946  0.1131 -0.0299  0.3401
  363loPI   C4A 5802   5.364   6.742   7.497  0.1859  0.1369  0.0645
  363loPI   C5A 5803   5.324   6.563   7.089  0.2611 -0.2384 -0.1244
  363loPI   C6A 5804   5.438   6.513   6.723 -0.0902 -0.1578 -0.0674
  363loPI   C1B 5805   6.218   7.038   8.661  0.0701 -0.2367  0.2992
  363loPI   C2B 5806   6.014   7.126   8.315  0.0009 -0.1000  0.1933
  363loPI   C3B 5807   5.838   7.042   7.925  0.4238 -0.0415 -0.0190
  363loPI   C4B 5808   5.605   7.307   7.595  0.0356 -0.0589 -0.0148
  364loPI    C1 5809  18.218   3.583  10.314 -0.2580  0.3186 -0.1800
  364loPI    C2 5810  18.071   3.952  10.362 -0.3226  0.2501  0.1756
  364loPI    C3 5811  18.229   3.758  10.674 -0.0624  0.0715 -0.0629
  364loPI   PO4 5812  18.082   3.513  10.117 -0.0370  0.0221 -0.1099
  364loPI   GL1 5813  18.032   3.555   9.690  0.1132  0.2856 -0.2513
  364loPI   GL2 5814  18.155   3.248   9.514  0.0965 -0.4247 -0.1779
  364loPI   C1A 5815  18.162   3.677   9.313 -0.2601  0.1088  0.1329
  364loPI   C2A 5816  18.198   3.524   8.918 -0.2386  0.2037 -0.0822
  364loPI   C3A 5817  17.932   3.674   8.517  0.0409  0.1502 -0.1509
  364loPI   C4A 5818  18.020   3.833   8.083 -0.0892  0.3292 -0.1315
  364loPI   C5A 5819  17.753   4.015   7.839  0.1499 -0.1483 -0.1647
  364loPI   C6A 5820  17.468   4.413   7.950 -0.2460  0.1015  0.3288
  364loPI   C1B 5821  18.008   3.072   9.076 -0.1841  0.2647  0.1665
  364loPI   C2B 5822  17.805   3.179   8.733  0.0956  0.1611  0.2716
  364loPI   C3B 5823  17.778   3.292   8.276 -0.0446 -0.2580  0.0072
  364loPI   C4B 5824  17.687   3.397   7.886  0.2230  0.0088  0.1696
  365loPI    C1 5825   3.149  14.479  10.384 -0.3745  0.2893 -0.0472
  365loPI    C2 5826   3.405  14.647  10.642 -0.2530 -0.0258  0.0430
  365loPI    C3 5827   3.011  14.664  10.711 -0.2213 -0.1052  0.2487
  365loPI   PO4 5828   3.336  14.460  10.142  0.2483 -0.0002 -0.2499
  365loPI   GL1 5829   3.267  14.192   9.761  0.0317  0.0918  0.2483
  365loPI   GL2 5830   3.210  13.850   9.705 -0.1094 -0.1472  0.0631
  365loPI   C1A 5831   3.223  14.312   9.372  0.1110  0.0302 -0.0569
  365loPI   C2A 5832   3.349  14.297   8.918  0.0995  0.2607 -0.2580
  365loPI   C3A 5833   3.488  14.094   8.537  0.0022  0.1470 -0.2828
  365loPI   C4A 5834   3.561  14.126   8.134 -0.0912 -0.3607 -0.2664
  365loPI   C5A 5835   3.598  14.522   7.913 -0.0627  0.2278 -0.0210
  365loPI   C6A 5836   3.813  14.556   7.497 -0.1681  0.0395  0.2409
  365loPI   C1B 5837   3.306  13.733   9.257  0.0378  0.2461 -0.1914
  365loPI   C2B 5838   3.520  13.734   8.873 -0.3729 -0.1478  0.4503
  365loPI   C3B 5839   3.754  13.650   8.520 -0.1262  0.0385 -0.1360
  365loPI   C4B 5840   3.850  13.684   8.127 -0.1138 -0.0179 -0.2681
  366loPI    C1 5841   0.777   1.926  10.009  0.1028  0.1239  0.0055
  366loPI    C2 5842   0.443   1.708  10.041  0.1026  0.0918 -0.2023
  366loPI    C3 5843   0.643   1.817  10.370 -0.1174  0.1201 -0.0759
  366loPI   PO4 5844   0.698   2.091   9.903  0.0063  0.2268  0.2944
  366loPI   GL1 5845   0.730   2.091   9.451  0.0014  0.2374 -0.1589
  366loPI   GL2 5846   0.574   1.802   9.453 -0.0154 -0.0512  0.0913
  366loPI   C1A 5847   0.463   2.255   9.190 -0.0874  0.3245  0.5215
  366loPI   C2A 5848   0.512   2.256   8.803  0.3611 -0.1102 -0.2769
  366loPI   C3A 5849   0.269   2.351   8.370 -0.1927 -0.1538 -0.3944
  366loPI   C4A 5850   0.046   2.375   7.977  0.2260  0.0916 -0.0473
  366loPI   C5A 5851   0.211   2.254   7.588 -0.4422 -0.0132 -0.0780
  366loPI   C6A 5852   0.493   1.792   7.517  0.0355  0.0526  0.0917
  366loPI   C1B 5853   0.588   1.754   8.998  0.1450 -0.0033 -0.0536
  366loPI   C2B 5854   0.273   1.862   8.598  0.1037 -0.1598  0.0220
  366loPI   C3B 5855   0.187   1.873   8.117  0.0760 -0.2511 -0.1738
  366loPI   C4B 5856  -0.100   1.848   7.790 -0.1889 -0.4035 -0.1817
  367loPI    C1 5857  18.141   4.472  10.286  0.2200 -0.1049  0.0574
  367loPI    C2 5858  17.778   4.313  10.233  0.1550  0.0180  0.1292
  367loPI    C3 5859  17.910   4.391  10.603  0.0894  0.3501  0.0855
  367loPI   PO4 5860  18.201   4.669  10.094  0.1057  0.0462  0.0720
  367loPI   GL1 5861  18.098   4.725   9.656 -0.2327 -0.2412  0.3568
  367loPI   GL2 5862  18.221   4.464   9.620 -0.0002 -0.0045 -0.0098
  367loPI   C1A 5863  18.184   4.763   9.182  0.0889  0.0948  0.1205
  367loPI   C2A 5864  18.206   4.552   8.768  0.1130 -0.1683 -0.1550
  367loPI   C3A 5865  18.283   4.314   8.460  0.3104 -0.0308 -0.0298
  367loPI   C4A 5866  18.407   4.080   8.104 -0.0049  0.0011  0.0938
  367loPI   C5A 5867  18.498   3.650   7.852  0.0329  0.1088 -0.1112
  367loPI   C6A 5868  18.185   3.274   7.742  0.2797  0.1357  0.0488
  367loPI   C1B 5869  18.267   4.209   9.272 -0.1931 -0.2277 -0.3404
  367loPI   C2B 5870  18.411   4.064   8.855 -0.0636 -0.2542 -0.0648
  367loPI   C3B 5871  18.423   3.748   8.457  0.0259 -0.0271 -0.1302
  367loPI   C4B 5872  18.337   3.316   8.234  0.3764  0.0930 -0.1038
  368loPI    C1 5873   8.877  16.646   9.911 -0.1434 -0.0516 -0.1102
  368loPI    C2 5874   9.083  16.477  10.210 -0.0130  0.0590 -0.1365
  368loPI    C3 5875   9.190  16.837  10.071 -0.3824  0.2373  0.0240
  368loPI   PO4 5876   8.908  16.455   9.651  0.0368  0.0418 -0.1594
  368loPI   GL1 5877   8.966  16.586   9.199 -0.2570  0.1261  0.0294
  368loPI   GL2 5878   9.223  16.720   9.022  0.0627 -0.1481 -0.0502
  368loPI   C1A 5879   8.673  16.694   8.823  0.0189  0.0368 -0.3041
  368loPI   C2A 5880   8.509  16.789   8.333  0.0145  0.0757  0.0966
  368loPI   C3A 5881   8.446  16.867   7.952 -0.1594  0.0904 -0.1434
  368loPI   C4A 5882   8.356  17.233   7.721 -0.3856 -0.4107 -0.1490
  368loPI   C5A 5883   8.267  17.595   7.313 -0.0458  0.2300  0.0366
  368loPI   C6A 5884   8.254  17.961   6.949 -0.2154  0.1545 -0.1276
  368loPI   C1B 5885   9.086  16.881   8.616  0.0293 -0.0395 -0.0427
  368loPI   C2B 5886   8.943  17.042   8.198  0.1345  0.5110 -0.1628
  368loPI   C3B 5887   8.882  16.988   7.739 -0.1056 -0.2014  0.0371
  368loPI   C4B 5888   8.757  17.064   7.372 -0.0910  0.0407  0.0259
  369loPI    C1 5889   7.143  11.744   9.831  0.3593 -0.1908  0.1391
  369loPI    C2 5890   6.944  12.010  10.053  0.1601 -0.1382 -0.0988
  369loPI    C3 5891   7.026  11.648  10.202  0.0606 -0.0914  0.0730
  369loPI   PO4 5892   7.280  11.904   9.712 -0.3195  0.1725  0.1798
  369loPI   GL1 5893   7.217  12.078   9.319 -0.4549 -0.4284  0.3415
  369loPI   GL2 5894   7.149  12.184   9.240 -0.1127  0.0365 -0.1382
  369loPI   C1A 5895   7.272  12.212   8.743 -0.2022 -0.1378 -0.2671
  369loPI   C2A 5896   7.264  12.236   8.378  0.0839  0.0374  0.1041
  369loPI   C3A 5897   7.363  12.188   7.976 -0.0481  0.0388  0.2065
  369loPI   C4A 5898   7.390  12.565   7.668  0.1791 -0.3290 -0.1493
  369loPI   C5A 5899   7.555  12.982   7.552  0.3257  0.0332 -0.0790
  369loPI   C6A 5900   7.856  13.139   7.268  0.0836 -0.0730  0.1172
  369loPI   C1B 5901   6.688  12.129   9.090 -0.2656 -0.1210 -0.0879
  369loPI   C2B 5902   6.806  12.227   8.676  0.2707  0.0743 -0.0902
  369loPI   C3B 5903   6.775  12.123   8.274 -0.2905 -0.0501  0.2056
  369loPI   C4B 5904   6.476  12.147   7.822 -0.2304 -0.1188  0.0674
  370loPI    C1 5905   1.071  11.053   9.735  0.0767  0.1164 -0.0709
  370loPI    C2 5906   1.312  10.842   9.974  0.0723  0.1553 -0.0320
  370loPI    C3 5907   1.001  11.040  10.128 -0.0143  0.0640 -0.0886
  370loPI   PO4 5908   1.064  10.895   9.544  0.2373 -0.1174 -0.3191
  370loPI   GL1 5909   1.173  10.976   9.124  0.0405  0.1348 -0.0505
  370loPI   GL2 5910   1.394  10.827   9.261  0.0340 -0.4492  0.0037
  370loPI   C1A 5911   1.208  11.060   8.802 -0.0774 -0.2245 -0.3852
  370loPI   C2A 5912   1.224  10.980   8.333  0.5666  0.0524 -0.3631
  370loPI   C3A 5913   0.866  11.202   8.109 -0.0269  0.1712  0.3290
  370loPI   C4A 5914   0.728  11.393   7.765 -0.0676  0.1396 -0.0245
  370loPI   C5A 5915   0.652  11.539   7.361 -0.3549 -0.0494  0.0060
  370loPI   C6A 5916   0.659  11.694   6.955  0.0978 -0.1312  0.0224
  370loPI   C1B 5917   1.666  10.815   8.911  0.0846  0.0060 -0.2680
  370loPI   C2B 5918   1.733  10.777   8.450  0.0561  0.2852 -0.3750
  370loPI   C3B 5919   1.558  10.708   8.041 -0.0541  0.0590 -0.2551
  370loPI   C4B 5920   1.491  10.452   7.620  0.0587  0.0358 -0.0496
  371loPI    C1 5921  14.309  17.584  10.043  0.0966 -0.0698  0.2135
  371loPI    C2 5922  14.274  17.788  10.385 -0.0738 -0.1556  0.2479
  371loPI    C3 5923  13.948  17.642  10.205 -0.0019  0.0272 -0.0355
  371loPI   PO4 5924  14.507  17.781   9.912 -0.0641 -0.1452 -0.1411
  371loPI   GL1 5925  14.790  17.990   9.477 -0.1766  0.2320  0.0669
  371loPI   GL2 5926  14.845  17.676   9.436 -0.2977  0.0545  0.0298
  371loPI   C1A 5927  15.119  18.198   9.246 -0.0547  0.1586 -0.0819
  371loPI   C2A 5928  15.263  18.190   8.746  0.0289 -0.0958 -0.1353
  371loPI   C3A 5929  15.311  18.185   8.315 -0.0505 -0.2280  0.2995
  371loPI   C4A 5930  15.179  18.405   7.871 -0.2715  0.0302  0.0438
  371loPI   C5A 5931  14.981  18.671   7.483 -0.0554 -0.1004  0.1250
  371loPI   C6A 5932  14.712  18.895   7.298 -0.1660 -0.1847 -0.1236
  371loPI   C1B 5933  14.840  17.780   8.990 -0.1587  0.1381  0.4103
  371loPI   C2B 5934  14.933  17.779   8.583  0.0622 -0.0003 -0.3351
  371loPI   C3B 5935  14.900  17.860   8.198  0.1821  0.1086  0.2027
  371loPI   C4B 5936  15.082  17.809   7.776  0.1647  0.0282  0.1780
  372loPI    C1 5937   6.055  16.972   9.707  0.2899 -0.1865 -0.1361
  372loPI    C2 5938   6.361  17.207   9.813  0.1288 -0.0962  0.1412
  372loPI    C3 5939   6.289  16.869  10.014  0.0147 -0.0902  0.1110
  372loPI   PO4 5940   6.018  16.953   9.355  0.1642 -0.1867 -0.1447
  372loPI   GL1 5941   5.949  17.334   9.001  0.1671  0.0649  0.0163
  372loPI   GL2 5942   6.212  17.502   9.030  0.0964 -0.3392 -0.2892
  372loPI   C1A 5943   5.859  17.445   8.620 -0.3244 -0.4353 -0.0846
  372loPI   C2A 5944   5.797  17.410   8.123  0.0605  0.1231 -0.1439
  372loPI   C3A 5945   5.576  17.288   7.695 -0.2820 -0.0658 -0.0244
  372loPI   C4A 5946   5.677  17.383   7.206  0.3222  0.1265  0.1348
  372loPI   C5A 5947   5.533  17.655   6.859 -0.3555  0.0112 -0.1632
  372loPI   C6A 5948   5.537  18.039   6.556 -0.2015  0.0622  0.0289
  372loPI   C1B 5949   6.191  17.815   8.621  0.0381  0.0632 -0.2311
  372loPI   C2B 5950   6.144  17.848   8.095  0.1530 -0.1685  0.0062
  372loPI   C3B 5951   6.299  17.947   7.642 -0.0069  0.1089 -0.3254
  372loPI   C4B 5952   6.327  17.901   7.235  0.1598  0.0402  0.2553
  373loPI    C1 5953  10.361  12.508   9.727  0.2677  0.2435 -0.0775
  373loPI    C2 5954  10.568  12.651  10.038  0.2101 -0.0018  0.0766
  373loPI    C3 5955  10.203  12.795   9.956  0.1453 -0.0703  0.2407
  373loPI   PO4 5956  10.453  12.570   9.425 -0.2088 -0.0984 -0.0267
  373loPI   GL1 5957  10.640  12.689   9.168  0.0086  0.0493  0.2182
  373loPI   GL2 5958  10.546  12.899   9.037 -0.0143  0.1551 -0.2550
  373loPI   C1A 5959  10.790  12.581   8.710  0.2959  0.0818  0.1507
  373loPI   C2A 5960  10.625  12.826   8.267 -0.2254 -0.3106  0.1588
  373loPI   C3A 5961  10.472  12.889   7.933  0.1683 -0.1202 -0.1053
  373loPI   C4A 5962  10.257  12.810   7.543  0.0639 -0.1783  0.0524
  373loPI   C5A 5963  10.430  12.886   7.093  0.1431 -0.0112 -0.1099
  373loPI   C6A 5964  10.579  13.126   6.677  0.0444 -0.0285 -0.2351
  373loPI   C1B 5965  10.239  12.842   8.685 -0.0811 -0.0008 -0.1509
  373loPI   C2B 5966  10.165  12.689   8.358  0.2376 -0.1810 -0.2714
  373loPI   C3B 5967   9.941  12.746   7.962 -0.0602 -0.0525  0.1075
  373loPI   C4B 5968   9.713  12.805   7.587  0.1662 -0.2353 -0.0955
  374loPI    C1 5969  15.658  13.106   9.868  0.1183 -0.0056 -0.1210
  374loPI    C2 5970  15.818  13.460   9.776  0.0305  0.0718  0.0211
  374loPI    C3 5971  15.442  13.440   9.911  0.0096 -0.0830 -0.0586
  374loPI   PO4 5972  15.691  12.970   9.691 -0.3453 -0.2315 -0.0570
  374loPI   GL1 5973  15.563  12.957   9.283  0.0645 -0.0705 -0.0158
  374loPI   GL2 5974  15.647  12.643   9.270 -0.0145 -0.3042 -0.0141
  374loPI   C1A 5975  15.880  13.031   8.936  0.4152  0.1651  0.0111
  374loPI   C2A 5976  15.669  13.149   8.576 -0.3292 -0.3634 -0.1431
  374loPI   C3A 5977  15.736  13.347   8.138  0.0992 -0.0284  0.2046
  374loPI   C4A 5978  15.980  13.323   7.795  0.3830 -0.0454 -0.1193
  374loPI   C5A 5979  15.957  13.235   7.369 -0.0756  0.1485  0.0370
  374loPI   C6A 5980  16.011  12.860   7.214  0.0307  0.1137  0.0584
  374loPI   C1B 5981  15.669  12.632   8.796  0.2576 -0.0460  0.2155
  374loPI   C2B 5982  15.624  12.594   8.300  0.2016 -0.0164  0.1999
  374loPI   C3B 5983  15.439  12.472   7.940 -0.0687  0.2834  0.0156
  374loPI   C4B 5984  15.314  12.272   7.506 -0.0900 -0.1029 -0.0809
  375loPI    C1 5985   5.207  16.805   9.521  0.1859  0.0906  0.0463
  375loPI    C2 5986   5.337  16.659   9.870  0.4533 -0.0862 -0.1238
  375loPI    C3 5987   5.586  16.683   9.557  0.1958 -0.0021 -0.3258
  375loPI   PO4 5988   5.030  17.058   9.556 -0.0630  0.0902  0.0243
  375loPI   GL1 5989   4.732  17.013   9.327  0.2092  0.3157 -0.0787
  375loPI   GL2 5990   5.023  17.070   9.058  0.1148 -0.3307 -0.1985
  375loPI   C1A 5991   4.478  16.765   9.171 -0.0238 -0.1762  0.2336
  375loPI   C2A 5992   4.411  16.503   8.997  0.0819  0.2440  0.1248
  375loPI   C3A 5993   4.480  16.644   8.588 -0.0333  0.0663  0.3122
  375loPI   C4A 5994   4.554  16.640   8.093  0.2224  0.1097  0.0613
  375loPI   C5A 5995   4.726  16.724   7.758 -0.1653  0.2790 -0.1347
  375loPI   C6A 5996   4.788  16.964   7.414  0.0686 -0.4357 -0.4421
  375loPI   C1B 5997   5.106  17.040   8.605 -0.3298  0.0416  0.0080
  375loPI   C2B 5998   5.065  16.831   8.132  0.1847 -0.1350 -0.2512
  375loPI   C3B 5999   5.250  16.809   7.744  0.0734 -0.0511  0.0841
  375loPI   C4B 6000   5.390  16.979   7.371 -0.1135  0.3007  0.0606
  376loPI    C1 6001  13.860  11.416   9.971 -0.1705  0.0519 -0.2102
  376loPI    C2 6002  13.629  11.335   9.655 -0.0549 -0.1424 -0.2466
  376loPI    C3 6003  13.606  11.108   9.984 -0.1228  0.0149 -0.1417
  376loPI   PO4 6004  14.123  11.370   9.752  0.3662 -0.0800  0.1890
  376loPI   GL1 6005  14.079  11.369   9.432  0.0776 -0.1267 -0.0484
  376loPI   GL2 6006  14.239  11.670   9.317 -0.2586 -0.2546 -0.1175
  376loPI   C1A 6007  13.994  11.439   8.961 -0.2377 -0.0156 -0.2870
  376loPI   C2A 6008  13.916  11.785   8.657 -0.1352 -0.0780  0.0900
  376loPI   C3A 6009  13.827  12.240   8.566 -0.1119 -0.3225  0.0485
  376loPI   C4A 6010  13.692  12.253   8.261  0.2417 -0.2451  0.3889
  376loPI   C5A 6011  13.791  12.274   7.745  0.0353 -0.2640 -0.0098
  376loPI   C6A 6012  13.546  12.449   7.411  0.3127  0.1560  0.1147
  376loPI   C1B 6013  14.536  11.408   9.055  0.0470  0.2228 -0.0503
  376loPI   C2B 6014  14.640  11.075   8.737  0.0611  0.1177 -0.1140
  376loPI   C3B 6015  14.641  11.117   8.372 -0.2040 -0.1605 -0.1779
  376loPI   C4B 6016  14.659  11.124   7.895  0.1700  0.0963  0.1114
  377loPI    C1 6017   7.046   9.247   9.635  0.0740  0.0742 -0.2396
  377loPI    C2 6018   6.707   9.080   9.767  0.0433  0.1803 -0.1831
  377loPI    C3 6019   7.033   9.082   9.999 -0.0408  0.4601 -0.0646
  377loPI   PO4 6020   7.023   9.212   9.280 -0.1724  0.0145 -0.0905
  377loPI   GL1 6021   6.988   9.258   8.913  0.0156  0.3059 -0.0612
  377loPI   GL2 6022   6.760   9.013   8.767  0.0101  0.1162 -0.3736
  377loPI   C1A 6023   6.985   9.284   8.417 -0.0283  0.2911  0.0765
  377loPI   C2A 6024   7.135   9.137   8.020 -0.1484 -0.2948 -0.2003
  377loPI   C3A 6025   7.302   9.109   7.683 -0.0988 -0.0428 -0.1041
  377loPI   C4A 6026   7.294   8.895   7.251  0.1200  0.0093 -0.3914
  377loPI   C5A 6027   7.329   8.681   6.926  0.0635  0.0991 -0.2590
  377loPI   C6A 6028   7.064   8.477   6.551 -0.0580 -0.0168  0.0911
  377loPI   C1B 6029   6.570   9.031   8.281  0.0222  0.1193  0.0887
  377loPI   C2B 6030   6.322   9.034   7.947 -0.2506  0.5512 -0.1286
  377loPI   C3B 6031   6.425   9.005   7.587  0.4127 -0.0187  0.1215
  377loPI   C4B 6032   6.368   8.670   7.241  0.0997 -0.0273 -0.1496
  378loPI    C1 6033  16.527  13.140   9.761  0.1126  0.2299 -0.0343
  378loPI    C2 6034  16.551  13.110  10.159 -0.0524 -0.1254 -0.0472
  378loPI    C3 6035  16.197  13.176   9.984  0.0304  0.1002 -0.1333
  378loPI   PO4 6036  16.659  13.310   9.606 -0.0631  0.0322 -0.3434
  378loPI   GL1 6037  16.638  13.403   9.104 -0.1962  0.0636  0.0159
  378loPI   GL2 6038  16.415  13.640   9.339  0.1155 -0.0419  0.1122
  378loPI   C1A 6039  16.843  13.692   8.779  0.0727 -0.1270 -0.1417
  378loPI   C2A 6040  17.098  13.938   8.531  0.1023 -0.1042  0.4194
  378loPI   C3A 6041  17.186  14.202   8.125 -0.1803 -0.1507  0.0788
  378loPI   C4A 6042  17.211  14.258   7.651  0.3786 -0.0534  0.0631
  378loPI   C5A 6043  17.566  14.345   7.292  0.1527  0.0560  0.0000
  378loPI   C6A 6044  17.792  14.684   6.915 -0.1167 -0.1539 -0.2506
  378loPI   C1B 6045  16.384  13.789   8.935 -0.2479  0.0273  0.5017
  378loPI   C2B 6046  16.493  13.968   8.534  0.1381 -0.0266  0.2048
  378loPI   C3B 6047  16.627  14.145   8.178 -0.0201 -0.0307 -0.2112
  378loPI   C4B 6048  16.700  14.344   7.714  0.0256 -0.0642  0.1538
  379loPI    C1 6049   3.999  17.822   9.971  0.2004 -0.0174 -0.0156
  379loPI    C2 6050   4.067  17.572  10.275  0.2264  0.0986  0.0750
  379loPI    C3 6051   4.369  17.686  10.040  0.2129  0.0381  0.0278
  379loPI   PO4 6052   3.784  17.732   9.730  0.3399  0.1563  0.0375
  379loPI   GL1 6053   3.707  17.590   9.350 -0.2662  0.0636 -0.2885
  379loPI   GL2 6054   3.469  17.559   9.231  0.0808 -0.0924  0.3914
  379loPI   C1A 6055   3.955  17.460   8.989 -0.3351 -0.3812 -0.0751
  379loPI   C2A 6056   4.242  17.385   8.565 -0.1331  0.2299  0.3631
  379loPI   C3A 6057   4.273  17.416   8.175  0.1463 -0.2508  0.1105
  379loPI   C4A 6058   4.081  17.266   7.749 -0.1258 -0.0838  0.3001
  379loPI   C5A 6059   4.245  16.898   7.526 -0.1245 -0.1732 -0.0004
  379loPI   C6A 6060   4.568  16.588   7.297  0.0437  0.1292 -0.1748
  379loPI   C1B 6061   3.528  17.483   8.686 -0.0220  0.0821  0.2783
  379loPI   C2B 6062   3.711  17.231   8.385  0.0279 -0.0472  0.1850
  379loPI   C3B 6063   3.655  17.133   7.974 -0.1321 -0.1974 -0.0726
  379loPI   C4B 6064   3.739  16.924   7.605  0.1246 -0.0420 -0.3294
  380loPI    C1 6065  16.090   6.810  10.300  0.2898 -0.2203  0.1875
  380loPI    C2 6066  16.070   7.136  10.530  0.0367 -0.1481  0.0664
  380loPI    C3 6067  16.357   6.865  10.593  0.2588  0.1038  0.1585
  380loPI   PO4 6068  16.072   6.852  10.045  0.1400 -0.1122 -0.3147
  380loPI   GL1 6069  16.185   6.741   9.623 -0.0098  0.2969 -0.1223
  380loPI   GL2 6070  16.059   6.905   9.342 -0.0543 -0.2936 -0.2619
  380loPI   C1A 6071  16.047   6.313   9.366 -0.0436  0.0347  0.2793
  380loPI   C2A 6072  15.974   6.235   8.902 -0.2343  0.0361 -0.1053
  380loPI   C3A 6073  16.222   6.271   8.545 -0.0657  0.0321  0.0010
  380loPI   C4A 6074  16.235   6.126   8.070  0.1590 -0.3792  0.4093
  380loPI   C5A 6075  16.195   6.283   7.664  0.5731  0.1254  0.3365
  380loPI   C6A 6076  16.215   6.470   7.378 -0.2124 -0.2659  0.1383
  380loPI   C1B 6077  16.124   6.701   8.939 -0.2019  0.1227  0.0129
  380loPI   C2B 6078  16.172   6.753   8.477  0.1104  0.0138 -0.2658
  380loPI   C3B 6079  16.245   6.641   8.207 -0.0050  0.3189 -0.0165
  380loPI   C4B 6080  16.606   6.503   8.051  0.2948  0.1461 -0.1873
  381loPI    C1 6081  18.626   5.132  10.177  0.0145  0.0883  0.2132
  381loPI    C2 6082  18.886   5.331  10.408 -0.1467  0.0739  0.4103
  381loPI    C3 6083  18.756   4.969  10.519 -0.3347  0.1278  0.3697
  381loPI   PO4 6084  18.666   5.024   9.952  0.0444 -0.3367  0.0936
  381loPI   GL1 6085  18.471   5.046   9.611 -0.3683 -0.2075 -0.0079
  381loPI   GL2 6086  18.360   5.353   9.490  0.0603  0.1120  0.1321
  381loPI   C1A 6087  18.678   5.057   9.236  0.0502  0.0875 -0.2035
  381loPI   C2A 6088  18.669   5.108   8.801  0.1365 -0.2967 -0.2025
  381loPI   C3A 6089  18.573   5.212   8.374 -0.0936 -0.6313  0.2485
  381loPI   C4A 6090  18.634   5.256   7.953  0.1549 -0.0597  0.0881
  381loPI   C5A 6091  18.289   5.336   7.635 -0.0386 -0.0081 -0.1219
  381loPI   C6A 6092  18.190   5.559   7.305 -0.2539 -0.3091 -0.2328
  381loPI   C1B 6093  18.217   5.236   9.022  0.2179  0.1899  0.0119
  381loPI   C2B 6094  18.058   5.187   8.665  0.1280 -0.0130  0.0931
  381loPI   C3B 6095  17.992   5.253   8.276  0.0239  0.1165  0.1063
  381loPI   C4B 6096  18.229   5.563   8.066 -0.2747 -0.2640 -0.0961
  382loPI    C1 6097   2.113   4.963   9.804 -0.0866 -0.0567  0.0726
  382loPI    C2 6098   2.343   5.120   9.517 -0.2591 -0.0593 -0.0690
  382loPI    C3 6099   2.364   5.263   9.890 -0.0679 -0.0242 -0.0919
  382loPI   PO4 6100   2.074   4.738   9.713  0.3163 -0.1678 -0.1078
  382loPI   GL1 6101   2.138   4.475   9.341 -0.2184 -0.2771  0.0389
  382loPI   GL2 6102   2.414   4.710   9.257  0.1752  0.1233  0.1596
  382loPI   C1A 6103   2.216   4.273   9.023 -0.1512 -0.1021  0.0839
  382loPI   C2A 6104   2.339   4.517   8.652 -0.2299  0.1152 -0.4537
  382loPI   C3A 6105   2.360   4.583   8.321  0.0466 -0.1321 -0.0112
  382loPI   C4A 6106   2.306   4.620   7.974 -0.4267  0.3573  0.1275
  382loPI   C5A 6107   2.155   4.543   7.602 -0.1362  0.0705 -0.0911
  382loPI   C6A 6108   2.365   4.522   7.221 -0.0094 -0.5272  0.0103
  382loPI   C1B 6109   2.675   4.734   8.983  0.0315  0.1274  0.3129
  382loPI   C2B 6110   2.881   4.742   8.534  0.1515 -0.2067 -0.1068
  382loPI   C3B 6111   3.190   4.720   8.274 -0.1553  0.0597 -0.0949
  382loPI   C4B 6112   3.161   4.425   7.840  0.3131 -0.0476  0.1401
  383loPI    C1 6113   5.661  16.203   9.326  0.1795 -0.0446  0.0562
  383loPI    C2 6114   5.275  16.281   9.400  0.0850 -0.3299 -0.1196
  383loPI    C3 6115   5.473  16.493   9.125  0.0586 -0.1730 -0.0185
  383loPI   PO4 6116   5.619  15.953   9.310  0.1288  0.3421  0.2365
  383loPI   GL1 6117   5.286  15.645   9.030 -0.0670 -0.0730  0.3257
  383loPI   GL2 6118   5.253  15.940   8.981 -0.1256  0.1720 -0.6485
  383loPI   C1A 6119   5.268  15.517   8.659  0.0813 -0.2174  0.0247
  383loPI   C2A 6120   5.359  15.306   8.267 -0.1282 -0.1687  0.2386
  383loPI   C3A 6121   5.464  14.883   8.057  0.2493 -0.2649 -0.0957
  383loPI   C4A 6122   5.375  14.697   7.693 -0.2074 -0.1571 -0.1410
  383loPI   C5A 6123   5.105  14.700   7.438  0.0424 -0.6920  0.5562
  383loPI   C6A 6124   5.180  14.988   7.232  0.0169 -0.0655  0.0168
  383loPI   C1B 6125   5.124  15.944   8.487 -0.0034 -0.0709  0.0091
  383loPI   C2B 6126   5.121  15.844   8.073  0.0348 -0.0766  0.0607
  383loPI   C3B 6127   5.305  15.674   7.713 -0.0645 -0.2902  0.1307
  383loPI   C4B 6128   5.093  15.647   7.445 -0.1284 -0.0339 -0.0243
  384loPI    C1 6129   8.804   3.147   9.962 -0.0010 -0.0307 -0.0255
  384loPI    C2 6130   8.418   3.176  10.060  0.0069 -0.0148  0.0010
  384loPI    C3 6131   8.684   3.047  10.330  0.0182 -0.0382 -0.0213
  384loPI   PO4 6132   8.760   3.114   9.640  0.0188  0.0879  0.0957
  384loPI   GL1 6133   8.662   2.952   9.265  0.2587 -0.0606  0.0743
  384loPI   GL2 6134   8.489   3.310   9.133 -0.3644 -0.0518 -0.2118
  384loPI   C1A 6135   8.688   2.896   8.857  0.0815 -0.0371  0.3631
  384loPI   C2A 6136   8.626   3.032   8.373  0.1456 -0.0657 -0.2219
  384loPI   C3A 6137   8.491   3.103   8.019 -0.0376 -0.1584  0.0941
  384loPI   C4A 6138   8.470   3.028   7.564  0.1739  0.0216 -0.3439
  384loPI   C5A 6139   8.213   3.162   7.167 -0.0595  0.1024  0.0226
  384loPI   C6A 6140   8.061   3.360   6.792  0.1742 -0.0938 -0.0503
  384loPI   C1B 6141   8.430   3.394   8.759  0.2122  0.3707  0.3554
  384loPI   C2B 6142   8.733   3.540   8.398 -0.1674 -0.0350 -0.1434
  384loPI   C3B 6143   8.897   3.473   7.965 -0.1279 -0.4676 -0.0448
  384loPI   C4B 6144   8.894   3.308   7.509 -0.2687  0.0183  0.2229
  385loPI    C1 6145  16.178  14.386  10.202  0.0755 -0.2530  0.1644
  385loPI    C2 6146  16.024  14.143  10.480 -0.1567  0.2161  0.4585
  385loPI    C3 6147  15.877  14.512  10.433  0.2205  0.3238  0.0540
  385loPI   PO4 6148  16.229  14.121   9.997  0.1924 -0.5613  0.2834
  385loPI   GL1 6149  16.410  14.101   9.632 -0.2992  0.0190 -0.0642
  385loPI   GL2 6150  16.610  14.287   9.498 -0.1196  0.0855  0.2314
  385loPI   C1A 6151  16.197  14.214   9.231 -0.1134 -0.0714  0.1464
  385loPI   C2A 6152  16.245  14.296   8.898 -0.0779  0.0994  0.0592
  385loPI   C3A 6153  16.386  14.470   8.543  0.1570  0.1931 -0.1031
  385loPI   C4A 6154  16.414  14.648   8.186 -0.1072 -0.5079 -0.1155
  385loPI   C5A 6155  16.559  15.013   8.076 -0.3215  0.1557 -0.0727
  385loPI   C6A 6156  16.717  15.465   7.821  0.3280  0.2057  0.1019
  385loPI   C1B 6157  16.686  14.589   9.232  0.2624  0.1531  0.2160
  385loPI   C2B 6158  16.566  14.767   8.869 -0.0872 -0.1787 -0.0468
  385loPI   C3B 6159  16.462  15.048   8.565 -0.3242 -0.0463 -0.1429
  385loPI   C4B 6160  16.166  15.190   8.289 -0.3035  0.0944  0.2911
  386loPI    C1 6161   0.199  18.537  10.696 -0.1054 -0.0279 -0.1303
  386loPI    C2 6162   0.514  18.416  10.911 -0.1116  0.2032  0.0121
  386loPI    C3 6163   0.218  18.160  10.827  0.1278 -0.0246 -0.1511
  386loPI   PO4 6164   0.283  18.558  10.457 -0.0770  0.2218  0.0355
  386loPI   GL1 6165   0.471  18.508  10.108  0.0130 -0.3050  0.1934
  386loPI   GL2 6166   0.331  18.333   9.894  0.0366 -0.1298 -0.6096
  386loPI   C1A 6167   0.332  18.811   9.811 -0.0843 -0.1551 -0.2169
  386loPI   C2A 6168   0.479  18.865   9.485  0.0240  0.1331  0.1103
  386loPI   C3A 6169   0.578  18.913   9.028 -0.1137 -0.0555 -0.2212
  386loPI   C4A 6170   0.263  18.969   8.723  0.3054 -0.0962 -0.0183
  386loPI   C5A 6171   0.097  18.818   8.363  0.0744 -0.0341 -0.3463
  386loPI   C6A 6172   0.204  18.496   8.032 -0.1551 -0.2713 -0.2057
  386loPI   C1B 6173   0.329  18.398   9.401 -0.2001 -0.1260  0.1924
  386loPI   C2B 6174  -0.023  18.232   9.176  0.0944  0.1446 -0.0042
  386loPI   C3B 6175  -0.326  18.216   8.749 -0.4079  0.0534 -0.2658
  386loPI   C4B 6176  -0.315  18.392   8.407  0.3230 -0.1747  0.0358
  387loPI    C1 6177   6.441   4.349   9.580  0.0817 -0.1348 -0.0863
  387loPI    C2 6178   6.453   3.982   9.738 -0.0321 -0.0935  0.0197
  387loPI    C3 6179   6.439   4.302   9.977  0.1142 -0.0177 -0.0717
  387loPI   PO4 6180   6.622   4.383   9.420  0.0595 -0.0749 -0.0159
  387loPI   GL1 6181   6.758   4.428   8.949 -0.0826  0.1958  0.0042
  387loPI   GL2 6182   7.032   4.204   9.082  0.1555 -0.3072  0.1755
  387loPI   C1A 6183   6.723   4.446   8.462  0.3267  0.3705  0.2749
  387loPI   C2A 6184   6.732   4.453   8.039  0.1845  0.1507  0.1323
  387loPI   C3A 6185   6.619   4.442   7.541  0.0435  0.1687 -0.1630
  387loPI   C4A 6186   6.386   4.634   7.194  0.3046  0.2533  0.2883
  387loPI   C5A 6187   6.573   4.841   6.861 -0.0108 -0.0313  0.2312
  387loPI   C6A 6188   6.745   5.240   6.866 -0.2415  0.0465  0.2855
  387loPI   C1B 6189   7.203   4.509   8.747  0.4546 -0.1194  0.0648
  387loPI   C2B 6190   7.234   4.966   8.547 -0.0735  0.0322 -0.0182
  387loPI   C3B 6191   7.480   4.940   8.253 -0.1829 -0.1372  0.0939
  387loPI   C4B 6192   7.842   4.707   8.052 -0.1585 -0.0487 -0.1902
  388loPI    C1 6193   7.199   2.337   9.899 -0.1363  0.0046 -0.1373
  388loPI    C2 6194   7.105   2.717   9.979 -0.0111  0.0076 -0.0003
  388loPI    C3 6195   6.932   2.421  10.185  0.0158 -0.0022  0.0081
  388loPI   PO4 6196   7.140   2.300   9.612 -0.1567 -0.1873  0.0137
  388loPI   GL1 6197   7.017   2.235   9.229 -0.1934 -0.4232  0.1125
  388loPI   GL2 6198   6.754   2.393   9.218 -0.0330 -0.2968  0.2887
  388loPI   C1A 6199   7.253   2.407   8.840  0.3002 -0.0594 -0.0711
  388loPI   C2A 6200   7.250   2.690   8.537  0.1167 -0.1889 -0.2807
  388loPI   C3A 6201   7.327   2.677   8.052  0.1107  0.0603 -0.0975
  388loPI   C4A 6202   7.565   2.594   7.775 -0.0519  0.3257 -0.3950
  388loPI   C5A 6203   7.608   2.526   7.440  0.1363  0.1391 -0.0178
  388loPI   C6A 6204   7.573   2.029   7.251 -0.2316  0.0371 -0.1831
  388loPI   C1B 6205   6.735   2.713   8.840 -0.2982 -0.2761 -0.0793
  388loPI   C2B 6206   6.552   2.705   8.320 -0.1148  0.2008  0.2890
  388loPI   C3B 6207   6.486   2.769   7.949 -0.1098 -0.0923  0.1083
  388loPI   C4B 6208   6.613   2.532   7.457 -0.3614  0.1534  0.0061
  389loPI    C1 6209   9.084  17.447   9.574 -0.0159  0.1919  0.1667
  389loPI    C2 6210   9.342  17.243   9.802 -0.0115  0.0641  0.0484
  389loPI    C3 6211   8.949  17.173   9.833 -0.0121  0.0585  0.0287
  389loPI   PO4 6212   9.228  17.684   9.563  0.0078 -0.0610 -0.2918
  389loPI   GL1 6213   9.451  17.780   9.160 -0.2627 -0.0596  0.3421
  389loPI   GL2 6214   9.582  17.629   8.919 -0.0723  0.2765  0.1972
  389loPI   C1A 6215   9.180  17.950   8.836  0.2937 -0.1783  0.1892
  389loPI   C2A 6216   8.870  17.953   8.600  0.1142  0.3354  0.0749
  389loPI   C3A 6217   8.852  17.604   8.287  0.0996  0.2490 -0.2706
  389loPI   C4A 6218   8.850  17.520   7.815 -0.0968  0.3299 -0.1472
  389loPI   C5A 6219   8.796  17.583   7.427 -0.0236  0.2501  0.0449
  389loPI   C6A 6220   8.684  17.984   7.102  0.0230 -0.2624 -0.0361
  389loPI   C1B 6221   9.822  17.496   8.539  0.0194 -0.0289  0.0177
  389loPI   C2B 6222   9.813  17.428   8.099  0.3602 -0.1423  0.0695
  389loPI   C3B 6223   9.733  17.101   7.771 -0.2043  0.3557  0.1002
  389loPI   C4B 6224   9.938  16.874   7.474  0.0726  0.1470 -0.1793
  390loPI    C1 6225   6.141  14.401   9.721  0.1857  0.3198  0.0657
  390loPI    C2 6226   6.068  14.029   9.850 -0.0593  0.3153 -0.0800
  390loPI    C3 6227   6.247  14.293  10.092 -0.0493  0.1570  0.0875
  390loPI   PO4 6228   5.959  14.510   9.613 -0.0251 -0.1230 -0.3092
  390loPI   GL1 6229   6.017  14.637   9.225 -0.1994  0.4743  0.1920
  390loPI   GL2 6230   5.865  14.807   9.163 -0.1951 -0.0456 -0.2464
  390loPI   C1A 6231   5.788  14.231   9.076  0.1591  0.0487  0.0656
  390loPI   C2A 6232   5.704  14.033   8.683 -0.5682 -0.0417 -0.3984
  390loPI   C3A 6233   5.279  13.920   8.483  0.1694 -0.0832  0.2900
  390loPI   C4A 6234   4.953  13.964   8.084  0.1545 -0.0978 -0.0083
  390loPI   C5A 6235   4.881  14.105   7.665  0.1420  0.2760 -0.0426
  390loPI   C6A 6236   4.850  14.310   7.249 -0.2409  0.0012 -0.2148
  390loPI   C1B 6237   5.650  14.617   8.714 -0.1976  0.0378  0.1686
  390loPI   C2B 6238   5.608  14.352   8.381  0.1926  0.2301 -0.1734
  390loPI   C3B 6239   5.488  14.104   8.047  0.0469 -0.0862 -0.4175
  390loPI   C4B 6240   5.429  14.138   7.749  0.2507  0.1884 -0.1498
  391loPI    C1 6241   1.936  11.013  10.314  0.1118  0.0774  0.1259
  391loPI    C2 6242   1.860  11.169  10.674 -0.3207 -0.0888  0.1122
  391loPI    C3 6243   1.745  10.795  10.590 -0.0326 -0.1263 -0.1299
  391loPI   PO4 6244   1.903  11.268  10.165  0.0698 -0.0005 -0.0847
  391loPI   GL1 6245   2.057  11.257   9.699  0.1616  0.2537  0.3902
  391loPI   GL2 6246   2.099  10.971   9.478  0.2675  0.1120 -0.0437
  391loPI   C1A 6247   2.121  11.664   9.512 -0.0507  0.1637 -0.3424
  391loPI   C2A 6248   2.148  11.920   9.271  0.1218 -0.2689 -0.0348
  391loPI   C3A 6249   2.066  12.036   8.760 -0.2043 -0.0549 -0.0705
  391loPI   C4A 6250   2.095  12.120   8.313  0.1121  0.1886  0.2596
  391loPI   C5A 6251   2.209  12.349   7.981 -0.0627 -0.0850  0.1489
  391loPI   C6A 6252   2.016  12.271   7.532  0.2146  0.0110  0.0860
  391loPI   C1B 6253   2.243  11.178   9.165  0.0186  0.1663 -0.0440
  391loPI   C2B 6254   1.951  11.183   8.835 -0.0165 -0.0269  0.0544
  391loPI   C3B 6255   2.000  11.242   8.429 -0.0370  0.1200  0.0002
  391loPI   C4B 6256   1.944  11.014   8.040 -0.0274  0.0433 -0.3002
  392loPI    C1 6257   7.933  18.197   9.548 -0.0225 -0.0904 -0.1635
  392loPI    C2 6258   7.607  18.219   9.318 -0.0499  0.4053 -0.0874
  392loPI    C3 6259   7.570  18.185   9.715 -0.0056  0.1926 -0.1008
  392loPI   PO4 6260   8.099  18.402   9.556 -0.3287  0.2305  0.1115
  392loPI   GL1 6261   8.282  18.417   9.183 -0.1266 -0.0045 -0.0984
  392loPI   GL2 6262   8.082  18.109   9.112 -0.2899 -0.0885 -0.1244
  392loPI   C1A 6263   8.461  18.578   8.914  0.3135  0.2202 -0.0822
  392loPI   C2A 6264   8.528  18.680   8.543 -0.0590  0.0011 -0.1310
  392loPI   C3A 6265   8.678  18.627   8.168  0.0934 -0.0915 -0.0693
  392loPI   C4A 6266   8.451  18.427   7.822 -0.1118 -0.1694  0.0762
  392loPI   C5A 6267   8.415  18.133   7.533  0.3212  0.2000 -0.0001
  392loPI   C6A 6268   8.020  18.022   7.514 -0.3427  0.1271  0.0362
  392loPI   C1B 6269   8.228  18.146   8.716 -0.3914 -0.0558 -0.5230
  392loPI   C2B 6270   8.549  18.202   8.357  0.3021  0.1689  0.1204
  392loPI   C3B 6271   8.728  17.990   8.016 -0.2643 -0.2558  0.0733
  392loPI   C4B 6272   8.923  18.049   7.616 -0.2492  0.1089  0.0966
  393loPI    C1 6273  12.124  12.991  10.169  0.0655 -0.2596  0.2839
  393loPI    C2 6274  11.826  12.730  10.119 -0.0896  0.0172 -0.3288
  393loPI    C3 6275  11.804  13.004  10.409 -0.3222 -0.1103 -0.2228
  393loPI   PO4 6276  12.253  13.126   9.902  0.0501  0.1082  0.0445
  393loPI   GL1 6277  12.335  13.251   9.454  0.4527  0.1341  0.2614
  393loPI   GL2 6278  12.191  13.064   9.192 -0.0059  0.1046  0.1092
  393loPI   C1A 6279  12.540  13.482   9.159  0.0310  0.0471 -0.1677
  393loPI   C2A 6280  12.677  13.586   8.688  0.1720 -0.2510  0.1723
  393loPI   C3A 6281  12.640  13.645   8.210 -0.0719 -0.2133  0.2597
  393loPI   C4A 6282  12.585  13.698   7.745 -0.1786  0.3453 -0.0680
  393loPI   C5A 6283  12.293  13.707   7.443 -0.0869 -0.1333 -0.1937
  393loPI   C6A 6284  12.052  13.982   7.112  0.1220 -0.0614 -0.1886
  393loPI   C1B 6285  12.184  13.351   8.779  0.0097  0.1910 -0.2282
  393loPI   C2B 6286  12.192  13.432   8.434  0.0678  0.0059 -0.0088
  393loPI   C3B 6287  12.210  13.452   7.923  0.0688 -0.0174  0.3281
  393loPI   C4B 6288  12.402  13.240   7.545 -0.0698 -0.1601  0.0359
  394loPI    C1 6289   8.686   3.626  10.080 -0.1420 -0.2598 -0.0546
  394loPI    C2 6290   8.386   3.822  10.257 -0.0992 -0.2843  0.0452
  394loPI    C3 6291   8.578   3.531  10.453  0.0870 -0.1691  0.0368
  394loPI   PO4 6292   8.542   3.638   9.774  0.0809 -0.1112  0.0150
  394loPI   GL1 6293   8.589   3.803   9.353 -0.1374  0.1688 -0.0062
  394loPI   GL2 6294   8.258   3.705   9.282  0.3455  0.2536  0.3462
  394loPI   C1A 6295   8.852   3.706   9.110  0.0356  0.0559  0.0137
  394loPI   C2A 6296   9.152   3.721   8.665  0.0853  0.0755  0.2952
  394loPI   C3A 6297   9.131   3.827   8.218 -0.1539 -0.5936  0.1470
  394loPI   C4A 6298   9.006   4.111   7.782 -0.1284 -0.0127  0.6049
  394loPI   C5A 6299   8.941   4.288   7.375 -0.0726 -0.1291 -0.0975
  394loPI   C6A 6300   8.901   4.150   7.038  0.1259  0.0638 -0.1354
  394loPI   C1B 6301   8.296   3.894   8.882  0.1251 -0.0143 -0.1026
  394loPI   C2B 6302   8.297   3.788   8.333 -0.0764 -0.0453 -0.3118
  394loPI   C3B 6303   8.489   3.768   7.952 -0.2092 -0.3831 -0.3442
  394loPI   C4B 6304   8.660   3.929   7.507 -0.0838  0.0692  0.2958
  395loPI    C1 6305  18.928  11.420   9.945  0.0058 -0.1781  0.2566
  395loPI    C2 6306  18.826  11.788  10.065 -0.1034 -0.0703 -0.1508
  395loPI    C3 6307  18.791  11.479  10.317  0.1359  0.2167  0.2468
  395loPI   PO4 6308  18.922  11.492   9.611 -0.0105 -0.1067  0.1745
  395loPI   GL1 6309  19.039  11.319   9.160  0.0194 -0.1072 -0.1974
  395loPI   GL2 6310  18.784  11.247   9.189  0.1134 -0.1184 -0.1173
  395loPI   C1A 6311  19.202  11.322   8.711  0.0492 -0.0094 -0.0615
  395loPI   C2A 6312  19.298  11.275   8.293 -0.1088  0.3461  0.1536
  395loPI   C3A 6313  19.497  11.203   7.866  0.2839 -0.2001  0.0534
  395loPI   C4A 6314  19.339  11.278   7.399  0.1592 -0.2208 -0.0732
  395loPI   C5A 6315  19.506  11.369   6.997  0.2216  0.0595 -0.3647
  395loPI   C6A 6316  19.706  11.404   6.539 -0.4293  0.2005  0.0859
  395loPI   C1B 6317  18.713  11.264   8.760 -0.0066 -0.0681 -0.2668
  395loPI   C2B 6318  18.817  11.388   8.353 -0.1356  0.1322  0.1336
  395loPI   C3B 6319  18.607  11.606   7.988 -0.0446 -0.0524  0.0692
  395loPI   C4B 6320  18.603  11.752   7.531 -0.1834  0.0643 -0.1622
  396loPI    C1 6321   4.933   0.299   9.553 -0.0616  0.0315 -0.0203
  396loPI    C2 6322   5.169   0.014   9.706 -0.0011 -0.0254 -0.2164
  396loPI    C3 6323   4.789   0.047   9.828  0.0483 -0.0639 -0.0497
  396loPI   PO4 6324   4.956   0.364   9.343 -0.4541  0.2687  0.1816
  396loPI   GL1 6325   4.901   0.630   9.017 -0.4174  0.0969  0.0342
  396loPI   GL2 6326   4.663   0.558   8.987 -0.0897  0.1927  0.0308
  396loPI   C1A 6327   5.013   0.832   8.657  0.3130  0.0581  0.3003
  396loPI   C2A 6328   4.921   0.969   8.168 -0.5195  0.1049  0.0492
  396loPI   C3A 6329   5.059   0.894   7.745  0.3358  0.2117 -0.5039
  396loPI   C4A 6330   5.353   0.794   7.463  0.0203  0.0191  0.1492
  396loPI   C5A 6331   5.612   0.441   7.308 -0.2628 -0.1286  0.1379
  396loPI   C6A 6332   5.515  -0.033   7.031 -0.4181  0.2659 -0.3712
  396loPI   C1B 6333   4.533   0.647   8.616 -0.4112  0.3447 -0.0941
  396loPI   C2B 6334   4.264   0.489   8.265 -0.3184  0.1410 -0.0963
  396loPI   C3B 6335   4.024   0.222   7.945  0.0993 -0.3122  0.0729
  396loPI   C4B 6336   3.914   0.201   7.532  0.0409 -0.0204 -0.2042
  397loPI    C1 6337   1.758  17.255  10.597 -0.2507  0.0548  0.0596
  397loPI    C2 6338   2.149  17.209  10.664 -0.2421  0.1431  0.0721
  397loPI    C3 6339   1.899  17.267  10.971 -0.3148 -0.2692  0.0967
  397loPI   PO4 6340   1.767  17.458  10.354 -0.1115  0.1849 -0.4531
  397loPI   GL1 6341   1.470  17.685   9.948  0.1182 -0.2597 -0.0202
  397loPI   GL2 6342   1.158  17.748  10.084 -0.0503  0.1321  0.2080
  397loPI   C1A 6343   1.328  17.451   9.732 -0.3668 -0.3247 -0.6132
  397loPI   C2A 6344   1.329  17.541   9.256 -0.1058  0.3073 -0.2477
  397loPI   C3A 6345   1.483  17.743   8.961  0.0233  0.0985 -0.0215
  397loPI   C4A 6346   1.270  17.731   8.505 -0.1275 -0.2398  0.1468
  397loPI   C5A 6347   1.231  17.798   8.118 -0.0264  0.0478  0.0594
  397loPI   C6A 6348   0.928  17.890   7.690  0.0377 -0.2206  0.0098
  397loPI   C1B 6349   1.135  17.884   9.618 -0.2931  0.0053 -0.1011
  397loPI   C2B 6350   1.179  18.129   9.224  0.3274 -0.2342 -0.0630
  397loPI   C3B 6351   1.427  18.276   8.973 -0.2368 -0.1467  0.0878
  397loPI   C4B 6352   1.553  18.650   8.724 -0.2417  0.0398 -0.0899
  398loPI    C1 6353  12.696  18.557  10.140 -0.3905 -0.1030 -0.0346
  398loPI    C2 6354  12.522  18.839  10.363 -0.1964 -0.1441  0.1725
  398loPI    C3 6355  12.614  18.485  10.524  0.0217 -0.1442  0.0501
  398loPI   PO4 6356  12.832  18.724   9.961 -0.0360  0.0348 -0.1394
  398loPI   GL1 6357  12.963  18.677   9.538  0.2469 -0.0742  0.3001
  398loPI   GL2 6358  13.240  18.587   9.539  0.1565 -0.3295  0.1508
  398loPI   C1A 6359  12.777  18.893   9.235 -0.0850  0.0064  0.5063
  398loPI   C2A 6360  12.706  19.120   8.846  0.2023 -0.3186 -0.3809
  398loPI   C3A 6361  12.822  18.959   8.495 -0.0488  0.1499  0.2603
  398loPI   C4A 6362  13.109  19.068   8.143  0.0116  0.0365  0.2559
  398loPI   C5A 6363  13.179  19.178   7.772 -0.1041  0.1839  0.1650
  398loPI   C6A 6364  13.254  19.214   7.353 -0.3760  0.4290  0.0189
  398loPI   C1B 6365  13.381  18.310   9.146  0.0439  0.4652  0.0691
  398loPI   C2B 6366  13.527  18.351   8.769 -0.0321 -0.0462 -0.0525
  398loPI   C3B 6367  13.705  18.127   8.427  0.1961 -0.3230 -0.0557
  398loPI   C4B 6368  13.539  17.845   8.000  0.2452  0.0550 -0.2242
  399loPI    C1 6369   5.567   9.091   9.807  0.0394 -0.0064 -0.1943
  399loPI    C2 6370   5.249   9.195  10.027 -0.1503 -0.2962 -0.3249
  399loPI    C3 6371   5.472   9.477   9.851 -0.2739 -0.0859 -0.1496
  399loPI   PO4 6372   5.509   8.870   9.654 -0.2080 -0.1237 -0.0886
  399loPI   GL1 6373   5.176   8.899   9.231  0.1671  0.1492 -0.2845
  399loPI   GL2 6374   5.489   8.770   9.133 -0.2366  0.0757  0.0679
  399loPI   C1A 6375   5.065   8.822   8.814 -0.0032  0.0875 -0.0419
  399loPI   C2A 6376   4.921   8.631   8.440 -0.2345  0.0203  0.3082
  399loPI   C3A 6377   4.490   8.507   8.421 -0.0707  0.4633 -0.0650
  399loPI   C4A 6378   4.148   8.535   8.186  0.4359  0.1085 -0.1299
  399loPI   C5A 6379   3.911   8.865   7.995 -0.1770  0.2815  0.1175
  399loPI   C6A 6380   3.625   8.882   7.682  0.1272 -0.1291  0.0986
  399loPI   C1B 6381   5.901   8.887   8.897  0.1768 -0.3226  0.2493
  399loPI   C2B 6382   5.881   8.880   8.398  0.0019 -0.0824  0.1716
  399loPI   C3B 6383   5.781   8.945   7.971 -0.0179 -0.0254  0.0197
  399loPI   C4B 6384   5.680   8.991   7.583 -0.2277  0.2376 -0.1665
  400loPI    C1 6385  14.054   9.837  10.270 -0.0157  0.0054  0.2305
  400loPI    C2 6386  14.320   9.563  10.389  0.0814  0.0533  0.1253
  400loPI    C3 6387  14.023   9.671  10.633 -0.0908 -0.3100  0.0835
  400loPI   PO4 6388  14.042   9.731  10.005  0.2143 -0.2900 -0.2319
  400loPI   GL1 6389  14.023   9.716   9.614 -0.0634  0.0337  0.1589
  400loPI   GL2 6390  14.210   9.552   9.442  0.1441 -0.2673 -0.0919
  400loPI   C1A 6391  14.102   9.994   9.200  0.1501 -0.1559  0.3420
  400loPI   C2A 6392  14.484  10.165   9.043 -0.1412 -0.0253 -0.1541
  400loPI   C3A 6393  14.608  10.114   8.625 -0.2171  0.3496  0.2403
  400loPI   C4A 6394  14.504  10.172   8.273  0.1704 -0.1706 -0.5563
  400loPI   C5A 6395  14.224  10.150   8.049 -0.0112  0.1621 -0.0791
  400loPI   C6A 6396  13.780  10.144   8.006 -0.3136 -0.0109  0.1926
  400loPI   C1B 6397  13.864   9.269   9.243  0.2123  0.0266  0.3827
  400loPI   C2B 6398  13.715   9.041   8.929 -0.4176 -0.1723  0.0903
  400loPI   C3B 6399  13.736   8.961   8.543 -0.3090 -0.1935 -0.0538
  400loPI   C4B 6400  13.847   8.901   8.261  0.1633  0.3589  0.0734
  401loPI    C1 6401  13.900   3.456  10.669  0.1175 -0.1280  0.0811
  401loPI    C2 6402  14.242   3.517  10.866 -0.0156  0.1088  0.2439
  401loPI    C3 6403  14.020   3.194  10.946  0.1908 -0.0713  0.1032
  401loPI   PO4 6404  14.002   3.564  10.402 -0.0595  0.1609 -0.1494
  401loPI   GL1 6405  14.019   3.451   9.969  0.0610 -0.0594  0.1294
  401loPI   GL2 6406  13.675   3.285   9.870 -0.1559  0.1266 -0.0630
  401loPI   C1A 6407  14.277   3.457   9.477  0.0797  0.0223 -0.3745
  401loPI   C2A 6408  14.517   3.623   9.123 -0.0249 -0.0343  0.0937
  401loPI   C3A 6409  14.767   3.723   8.792 -0.0724 -0.1067 -0.2438
  401loPI   C4A 6410  14.878   4.036   8.422  0.1943  0.0653  0.0618
  401loPI   C5A 6411  15.160   4.276   8.142 -0.1501 -0.0855  0.1036
  401loPI   C6A 6412  15.034   4.675   7.880 -0.0158 -0.0924 -0.2089
  401loPI   C1B 6413  13.765   3.465   9.457 -0.2015  0.0761 -0.0317
  401loPI   C2B 6414  13.916   3.418   8.999 -0.2775 -0.1811  0.2735
  401loPI   C3B 6415  14.086   3.509   8.569 -0.2058 -0.2851  0.1822
  401loPI   C4B 6416  14.042   3.558   8.179  0.1847 -0.1651  0.1223
  402loPI    C1 6417  18.801  17.073  10.262  0.2076  0.0839  0.3151
  402loPI    C2 6418  18.449  17.263  10.263  0.1716  0.0251 -0.0332
  402loPI    C3 6419  18.720  17.342  10.547 -0.1130  0.0839  0.2276
  402loPI   PO4 6420  18.687  16.814  10.157  0.0281 -0.0366 -0.1121
  402loPI   GL1 6421  18.477  16.734   9.700  0.1241 -0.2364  0.2413
  402loPI   GL2 6422  18.813  16.524   9.755  0.0472 -0.1116 -0.1061
  402loPI   C1A 6423  18.747  17.127   9.471 -0.1611  0.0587 -0.1027
  402loPI   C2A 6424  18.841  17.326   9.186  0.0061  0.1391  0.1886
  402loPI   C3A 6425  18.818  17.613   8.908 -0.0989  0.1605 -0.1094
  402loPI   C4A 6426  18.618  17.830   8.664 -0.0103  0.0058  0.1445
  402loPI   C5A 6427  18.392  18.033   8.370  0.1340 -0.2490 -0.0042
  402loPI   C6A 6428  18.061  18.011   8.141 -0.3430 -0.1645 -0.1603
  402loPI   C1B 6429  18.728  16.667   9.295 -0.2516  0.3488 -0.0295
  402loPI   C2B 6430  18.712  16.629   8.769  0.2081 -0.3909 -0.0669
  402loPI   C3B 6431  18.714  16.597   8.305 -0.2185 -0.1691 -0.1782
  402loPI   C4B 6432  18.751  16.850   7.896  0.4017  0.0963  0.2434
  403loPI    C1 6433   6.467   9.543   9.835  0.2741  0.0867  0.0557
  403loPI    C2 6434   6.414   9.266  10.119  0.0986  0.0836  0.0212
  403loPI    C3 6435   6.711   9.531  10.152  0.1356  0.0259  0.1615
  403loPI   PO4 6436   6.378   9.308   9.507  0.1348 -0.0399  0.0137
  403loPI   GL1 6437   6.042   9.519   9.174 -0.0640  0.4480  0.1606
  403loPI   GL2 6438   6.230   9.249   8.924  0.1527  0.2958  0.1959
  403loPI   C1A 6439   5.723   9.417   8.816  0.0129 -0.2890 -0.2167
  403loPI   C2A 6440   5.408   9.164   8.600 -0.1911  0.1118  0.0187
  403loPI   C3A 6441   5.337   8.936   8.246 -0.0250 -0.3652 -0.3087
  403loPI   C4A 6442   5.271   9.098   7.832  0.1088 -0.2775 -0.2339
  403loPI   C5A 6443   5.361   9.366   7.400  0.0883  0.1538 -0.1492
  403loPI   C6A 6444   5.270   9.800   7.348  0.1506  0.1085 -0.0814
  403loPI   C1B 6445   6.189   9.269   8.454 -0.2848 -0.0303  0.1338
  403loPI   C2B 6446   6.002   9.446   8.060 -0.1208  0.0417  0.0795
  403loPI   C3B 6447   6.051   9.389   7.513 -0.0746  0.3104  0.0833
  403loPI   C4B 6448   6.111   9.090   7.062  0.1547 -0.1866  0.0476
  404loPI    C1 6449   7.004  12.530   9.980  0.0712 -0.0786 -0.2084
  404loPI    C2 6450   7.364  12.687  10.057  0.1316 -0.1168 -0.4063
  404loPI    C3 6451   7.032  12.883  10.167  0.2121 -0.1289 -0.1339
  404loPI   PO4 6452   6.986  12.472   9.706 -0.1495 -0.0926 -0.0354
  404loPI   GL1 6453   6.850  12.540   9.357  0.3605 -0.0137  0.1074
  404loPI   GL2 6454   6.952  12.928   9.415 -0.1825  0.4864  0.0379
  404loPI   C1A 6455   6.702  12.710   8.946 -0.0505  0.0670 -0.0168
  404loPI   C2A 6456   6.619  12.623   8.540  0.2110 -0.0714  0.5307
  404loPI   C3A 6457   6.480  12.562   8.145 -0.1152 -0.0712  0.3602
  404loPI   C4A 6458   6.172  12.528   7.911 -0.1622  0.0444  0.2307
  404loPI   C5A 6459   6.074  12.348   7.614 -0.1003  0.0384 -0.0576
  404loPI   C6A 6460   6.148  12.103   7.211  0.2976  0.1008 -0.0996
  404loPI   C1B 6461   6.909  13.161   9.072  0.1660 -0.1633 -0.1750
  404loPI   C2B 6462   6.802  13.062   8.632 -0.3346  0.2339 -0.2814
  404loPI   C3B 6463   6.631  13.098   8.224  0.0143  0.1080 -0.5992
  404loPI   C4B 6464   6.626  12.867   7.772 -0.1550 -0.0130  0.1746
  405loPI    C1 6465   9.358   5.044  10.356 -0.0510  0.0703 -0.1364
  405loPI    C2 6466   9.618   5.037  10.660 -0.2072 -0.2214 -0.0047
  405loPI    C3 6467   9.237   5.140  10.726 -0.2490 -0.3164 -0.0957
  405loPI   PO4 6468   9.418   5.224  10.104  0.3382  0.0723 -0.0554
  405loPI   GL1 6469   9.340   5.315   9.693  0.1089  0.1885 -0.3252
  405loPI   GL2 6470   9.275   5.574   9.525  0.1895 -0.1843  0.0827
  405loPI   C1A 6471   9.546   5.185   9.313  0.2059 -0.2082 -0.1100
  405loPI   C2A 6472   9.860   5.289   8.983  0.2712  0.3673  0.1562
  405loPI   C3A 6473   9.828   5.456   8.658 -0.0419  0.0323  0.2360
  405loPI   C4A 6474   9.769   5.619   8.233  0.0947 -0.1696  0.1570
  405loPI   C5A 6475   9.849   5.415   7.795 -0.1674 -0.1040  0.1277
  405loPI   C6A 6476  10.271   5.341   7.865 -0.0257 -0.1662  0.1776
  405loPI   C1B 6477   9.143   5.452   9.092  0.1327  0.3055  0.1376
  405loPI   C2B 6478   9.240   5.207   8.894 -0.2220 -0.0132  0.3676
  405loPI   C3B 6479   9.299   5.343   8.394  0.0347 -0.1843  0.0607
  405loPI   C4B 6480   9.281   5.431   7.933  0.1341  0.0282 -0.0000
  406loPI    C1 6481  10.546  13.321   9.640 -0.1433 -0.1603 -0.0992
  406loPI    C2 6482  10.673  13.371  10.015  0.2090 -0.2353 -0.2053
  406loPI    C3 6483  10.295  13.263   9.946  0.1046 -0.0929  0.1205
  406loPI   PO4 6484  10.725  13.148   9.572  0.1839 -0.0565  0.1323
  406loPI   GL1 6485  10.948  13.067   9.281  0.3943 -0.0298  0.0884
  406loPI   GL2 6486  10.997  12.986   9.016 -0.0213  0.3187  0.0651
  406loPI   C1A 6487  10.816  13.468   8.991 -0.0139 -0.1586  0.1823
  406loPI   C2A 6488  10.684  13.667   8.501 -0.1037 -0.2289 -0.2063
  406loPI   C3A 6489  10.377  13.859   8.285  0.0762 -0.2978  0.1069
  406loPI   C4A 6490  10.485  14.172   7.929  0.1377  0.0396 -0.1390
  406loPI   C5A 6491  10.426  14.330   7.482  0.0815 -0.3604 -0.0658
  406loPI   C6A 6492  10.306  14.255   7.087  0.0388 -0.1088 -0.2971
  406loPI   C1B 6493  10.855  13.097   8.621  0.0127 -0.0123  0.0250
  406loPI   C2B 6494  10.844  13.255   8.183  0.4067  0.0579 -0.1831
  406loPI   C3B 6495  10.861  13.112   7.748 -0.1175  0.3251 -0.0893
  406loPI   C4B 6496  10.848  12.758   7.491  0.0652 -0.3780  0.0002
  407loPI    C1 6497   0.019   0.709  10.605 -0.1440 -0.1206  0.0438
  407loPI    C2 6498   0.277   0.405  10.634  0.1355  0.1126  0.0425
  407loPI    C3 6499   0.275   0.693  10.912 -0.0983  0.1331  0.0213
  407loPI   PO4 6500   0.013   0.758  10.256  0.0841  0.1944 -0.0696
  407loPI   GL1 6501  -0.071   0.528   9.819 -0.2708  0.1675 -0.2862
  407loPI   GL2 6502  -0.122   0.164   9.828 -0.0087  0.0062  0.1071
  407loPI   C1A 6503  -0.042   0.512   9.397 -0.4539  0.1749  0.0090
  407loPI   C2A 6504  -0.035   0.330   9.076  0.0773 -0.2857 -0.1280
  407loPI   C3A 6505  -0.168   0.081   8.718 -0.0123 -0.1510 -0.2453
  407loPI   C4A 6506  -0.352  -0.038   8.346  0.3678 -0.0647  0.1427
  407loPI   C5A 6507  -0.376  -0.333   8.152 -0.2862  0.2336  0.0670
  407loPI   C6A 6508  -0.422  -0.390   7.791  0.1113 -0.2119 -0.2033
  407loPI   C1B 6509   0.258   0.139   9.564  0.5558 -0.0591 -0.3388
  407loPI   C2B 6510   0.451   0.210   9.222  0.0639  0.1096  0.0323
  407loPI   C3B 6511   0.459   0.294   8.796  0.0219 -0.2446 -0.3023
  407loPI   C4B 6512   0.220   0.229   8.369 -0.0713  0.1302 -0.1538
  408loPI    C1 6513   5.068   3.860   9.544 -0.1949 -0.3208  0.0232
  408loPI    C2 6514   4.825   3.931   9.854  0.0329  0.1628  0.0991
  408loPI    C3 6515   5.081   3.624   9.866 -0.3582 -0.1697  0.1422
  408loPI   PO4 6516   5.143   4.019   9.438  0.0294  0.1559 -0.0910
  408loPI   GL1 6517   5.288   4.130   9.044  0.2966  0.1024  0.1614
  408loPI   GL2 6518   5.018   3.865   8.977  0.1151 -0.1604 -0.3965
  408loPI   C1A 6519   5.226   4.477   8.648  0.2446  0.2747 -0.1006
  408loPI   C2A 6520   5.234   4.575   8.217 -0.0298  0.2502  0.1038
  408loPI   C3A 6521   5.011   4.516   7.783 -0.0184  0.0993 -0.2763
  408loPI   C4A 6522   4.981   4.893   7.614 -0.0433  0.1341 -0.0324
  408loPI   C5A 6523   4.977   5.264   7.518 -0.2263 -0.3498  0.3844
  408loPI   C6A 6524   5.046   5.670   7.382 -0.0627  0.0330  0.0117
  408loPI   C1B 6525   5.216   3.982   8.564 -0.0423  0.0346 -0.1192
  408loPI   C2B 6526   5.144   4.049   8.175  0.3591 -0.2041 -0.0581
  408loPI   C3B 6527   5.322   4.045   7.709 -0.3341 -0.0713  0.1695
  408loPI   C4B 6528   5.680   4.180   7.349 -0.1642 -0.3702 -0.1346
  409loPI    C1 6529   5.822   0.008   9.371  0.1202 -0.0873  0.0213
  409loPI    C2 6530   5.838   0.232   9.702  0.1914  0.0403 -0.0676
  409loPI    C3 6531   5.842  -0.167   9.730  0.1537  0.0501  0.0872
  409loPI   PO4 6532   6.006   0.129   9.158  0.0559  0.0094  0.0561
  409loPI   GL1 6533   6.098   0.246   8.810  0.1992  0.1391 -0.2719
  409loPI   GL2 6534   6.326   0.428   8.869  0.0802  0.0068 -0.3205
  409loPI   C1A 6535   6.184   0.112   8.446  0.2100 -0.4412 -0.0156
  409loPI   C2A 6536   6.238   0.214   7.993 -0.1019  0.3808  0.1276
  409loPI   C3A 6537   6.217   0.499   7.567  0.2058 -0.0188  0.0077
  409loPI   C4A 6538   6.072   0.501   7.131  0.1340 -0.2232 -0.1350
  409loPI   C5A 6539   5.988   0.472   6.751  0.4282  0.3031 -0.2324
  409loPI   C6A 6540   5.785   0.115   6.530  0.0425  0.0070 -0.2118
  409loPI   C1B 6541   6.411   0.578   8.509  0.1186 -0.0041 -0.1212
  409loPI   C2B 6542   6.478   0.674   8.015 -0.1408  0.1521  0.4124
  409loPI   C3B 6543   6.741   0.667   7.656 -0.0737 -0.0679  0.0965
  409loPI   C4B 6544   6.955   0.774   7.212 -0.0282 -0.0076 -0.3279
  410loPI    C1 6545   6.721  14.228   9.635  0.1078 -0.2042  0.1651
  410loPI    C2 6546   7.040  14.299   9.865  0.1280  0.3497 -0.0209
  410loPI    C3 6547   6.689  14.472   9.950 -0.0412  0.0110 -0.0135
  410loPI   PO4 6548   6.767  14.083   9.395 -0.0858 -0.2841  0.1435
  410loPI   GL1 6549   6.302  13.913   9.152 -0.0758  0.0224 -0.0962
  410loPI   GL2 6550   6.320  14.233   9.294  0.2065 -0.2559  0.0618
  410loPI   C1A 6551   6.011  13.731   8.968 -0.2712  0.3321 -0.1278
  410loPI   C2A 6552   5.890  13.550   8.601 -0.1954  0.0693 -0.1404
  410loPI   C3A 6553   5.875  13.255   8.324  0.0195  0.1330 -0.0738
  410loPI   C4A 6554   5.580  13.159   7.955 -0.2474 -0.1854 -0.1084
  410loPI   C5A 6555   5.609  13.239   7.511  0.3185 -0.3019  0.1678
  410loPI   C6A 6556   5.782  13.112   7.171 -0.1048  0.2730 -0.1126
  410loPI   C1B 6557   6.305  14.362   8.900  0.1265 -0.2274 -0.1762
  410loPI   C2B 6558   6.118  14.430   8.547 -0.0065 -0.2381  0.2628
  410loPI   C3B 6559   6.231  14.313   8.156 -0.0368 -0.0840 -0.0546
  410loPI   C4B 6560   6.232  14.338   7.752 -0.1998 -0.0575 -0.2321
  411loPI    C1 6561   6.155  16.107   9.625 -0.0646 -0.0243  0.2443
  411loPI    C2 6562   6.058  16.468   9.482  0.1115 -0.0145  0.1462
  411loPI    C3 6563   6.152  16.424   9.869  0.1796  0.0620  0.1386
  411loPI   PO4 6564   6.372  16.040   9.373 -0.1563  0.1290  0.1270
  411loPI   GL1 6565   6.294  15.971   9.066  0.4651  0.4714  0.1624
  411loPI   GL2 6566   6.028  16.115   8.980  0.1896 -0.1850 -0.1804
  411loPI   C1A 6567   6.296  15.891   8.599  0.0608 -0.2265  0.1681
  411loPI   C2A 6568   6.033  15.743   8.233 -0.0055 -0.0407  0.0715
  411loPI   C3A 6569   6.185  15.632   7.932 -0.0209 -0.1312 -0.2409
  411loPI   C4A 6570   6.349  15.491   7.563  0.1094 -0.3230  0.2101
  411loPI   C5A 6571   6.606  15.188   7.318  0.0942  0.0346  0.0778
  411loPI   C6A 6572   6.808  14.756   7.032  0.0728  0.2200 -0.2280
  411loPI   C1B 6573   5.626  15.981   8.640  0.2029  0.0735  0.3532
  411loPI   C2B 6574   5.575  15.757   8.328  0.0231  0.4034  0.2071
  411loPI   C3B 6575   5.664  15.501   7.955 -0.0022 -0.0252 -0.3226
  411loPI   C4B 6576   5.940  15.165   7.825 -0.1410  0.1327 -0.0332
  412loPI    C1 6577  10.267   2.711  10.047 -0.3169 -0.1825  0.1397
  412loPI    C2 6578  10.301   2.926  10.382  0.1743  0.1202 -0.0936
  412loPI    C3 6579  10.498   2.580  10.346 -0.0153  0.0020 -0.0074
  412loPI   PO4 6580  10.281   2.847   9.795 -0.0973  0.0090 -0.3182
  412loPI   GL1 6581   9.979   2.598   9.544  0.2997  0.1014  0.2767
  412loPI   GL2 6582  10.282   2.481   9.448 -0.2513 -0.0714  0.4039
  412loPI   C1A 6583   9.882   2.493   9.076  0.0007 -0.1138 -0.2639
  412loPI   C2A 6584  10.005   2.703   8.655  0.0646  0.4474  0.2226
  412loPI   C3A 6585  10.003   3.023   8.356 -0.0418 -0.2214  0.0236
  412loPI   C4A 6586  10.319   3.268   8.086 -0.0369  0.0561  0.2109
  412loPI   C5A 6587  10.700   3.217   7.867  0.1817  0.0484  0.0034
  412loPI   C6A 6588  11.070   3.084   7.525  0.1083 -0.0075 -0.1709
  412loPI   C1B 6589  10.403   2.730   9.076  0.2766  0.1190  0.0443
  412loPI   C2B 6590  10.527   3.044   8.704  0.2487 -0.2361  0.0598
  412loPI   C3B 6591  10.735   3.084   8.338  0.2027 -0.3496  0.0191
  412loPI   C4B 6592  11.119   3.001   8.031 -0.3163  0.1122  0.0888
  413loPI    C1 6593  10.960   9.690   9.730  0.0541  0.0443 -0.1674
  413loPI    C2 6594  11.319   9.624   9.894 -0.0793 -0.0200  0.1054
  413loPI    C3 6595  11.056   9.862  10.079 -0.3016 -0.2410  0.0786
  413loPI   PO4 6596  11.055   9.726   9.477 -0.0723  0.0889  0.3678
  413loPI   GL1 6597  11.064   9.677   9.108 -0.0272  0.0099  0.4415
  413loPI   GL2 6598  10.692   9.548   9.074  0.0467 -0.1265  0.3145
  413loPI   C1A 6599  11.047   9.609   8.624 -0.1053 -0.0179 -0.0080
  413loPI   C2A 6600  11.094   9.523   8.178  0.0864  0.4592 -0.2181
  413loPI   C3A 6601  11.175   9.737   7.815 -0.1236  0.0763  0.0787
  413loPI   C4A 6602  11.450   9.969   7.452 -0.0022  0.0692 -0.2375
  413loPI   C5A 6603  11.867  10.061   7.230  0.0107  0.3779 -0.1157
  413loPI   C6A 6604  12.151   9.851   7.074 -0.3068  0.0676 -0.4563
  413loPI   C1B 6605  10.552   9.356   8.721 -0.0906  0.0052 -0.2077
  413loPI   C2B 6606  10.539   9.312   8.209 -0.2103 -0.0610  0.1921
  413loPI   C3B 6607  10.360   9.462   7.898 -0.0826 -0.0751  0.1181
  413loPI   C4B 6608  10.301   9.331   7.554 -0.3028  0.0080 -0.1692
  414loPI    C1 6609  13.364  12.787   9.662 -0.0088  0.1183 -0.0455
  414loPI    C2 6610  13.550  12.747  10.014 -0.1155  0.1284  0.0124
  414loPI    C3 6611  13.760  12.835   9.686  0.0403 -0.2805 -0.0029
  414loPI   PO4 6612  13.096  13.029   9.651  0.5655 -0.0468  0.0169
  414loPI   GL1 6613  12.912  13.240   9.350 -0.0612  0.2381  0.4944
  414loPI   GL2 6614  12.742  13.039   9.299 -0.0950  0.1229 -0.3711
  414loPI   C1A 6615  13.107  13.443   8.893  0.0474 -0.2483 -0.1649
  414loPI   C2A 6616  13.071  13.147   8.532  0.1639  0.0408 -0.2589
  414loPI   C3A 6617  13.003  13.292   8.103  0.0760 -0.0432  0.2180
  414loPI   C4A 6618  12.912  13.234   7.721 -0.1683 -0.0524  0.0677
  414loPI   C5A 6619  13.194  13.222   7.360  0.0722 -0.0249 -0.0809
  414loPI   C6A 6620  13.378  12.873   7.209 -0.2644  0.2578  0.1012
  414loPI   C1B 6621  12.647  13.109   8.867  0.1220  0.1269  0.1383
  414loPI   C2B 6622  12.579  13.184   8.425  0.0505  0.0541 -0.0361
  414loPI   C3B 6623  12.582  13.063   8.047 -0.0009 -0.2695  0.1014
  414loPI   C4B 6624  12.659  12.800   7.724 -0.2106 -0.5115  0.0147
  415loPI    C1 6625  12.923  10.671  10.346  0.0660  0.1447  0.1252
  415loPI    C2 6626  12.613  10.922  10.326  0.0007  0.0706  0.1997
  415loPI    C3 6627  12.555  10.529  10.284  0.1427  0.0894 -0.2251
  415loPI   PO4 6628  13.090  10.809  10.103  0.1923  0.0093 -0.1437
  415loPI   GL1 6629  13.277  10.942   9.688 -0.2822 -0.0159 -0.0749
  415loPI   GL2 6630  13.080  10.686   9.469  0.0365 -0.1710  0.2043
  415loPI   C1A 6631  13.270  11.035   9.124 -0.1576  0.0859  0.4695
  415loPI   C2A 6632  13.167  11.161   8.769  0.1182 -0.1840  0.1168
  415loPI   C3A 6633  13.210  11.286   8.348 -0.3560  0.0598 -0.1899
  415loPI   C4A 6634  13.276  10.870   7.972  0.1361  0.0961  0.2551
  415loPI   C5A 6635  13.465  10.764   7.586 -0.1082  0.5050  0.1365
  415loPI   C6A 6636  13.890  10.880   7.396 -0.0097 -0.0592 -0.0788
  415loPI   C1B 6637  12.740  10.856   9.083  0.1635 -0.0291 -0.0449
  415loPI   C2B 6638  12.726  10.990   8.623 -0.1364 -0.1373 -0.0595
  415loPI   C3B 6639  12.767  10.844   8.163  0.3927  0.1898 -0.0744
  415loPI   C4B 6640  12.934  10.519   7.981  0.1254  0.0467  0.0173
  416loPI    C1 6641  11.335  14.549   9.795 -0.0034  0.2581 -0.2628
  416loPI    C2 6642  11.715  14.673   9.793  0.0275  0.1634 -0.2760
  416loPI    C3 6643  11.631  14.284   9.836 -0.0808  0.2296  0.1606
  416loPI   PO4 6644  11.222  14.742   9.551  0.2159  0.0916 -0.3080
  416loPI   GL1 6645  11.338  14.807   9.145 -0.0639  0.0128 -0.2489
  416loPI   GL2 6646  11.672  14.847   9.172 -0.1321 -0.1523  0.0580
  416loPI   C1A 6647  11.155  14.438   8.944  0.1286  0.1043 -0.2194
  416loPI   C2A 6648  11.205  14.435   8.560 -0.0102  0.1032 -0.0740
  416loPI   C3A 6649  10.957  14.559   8.269  0.2321 -0.2521  0.0810
  416loPI   C4A 6650  10.557  14.675   7.902  0.3018  0.0676  0.4496
  416loPI   C5A 6651  10.691  14.747   7.422  0.2139 -0.1722  0.1332
  416loPI   C6A 6652  10.892  14.744   7.068 -0.0725 -0.2980 -0.3059
  416loPI   C1B 6653  11.703  14.677   8.783  0.0662 -0.2804  0.2282
  416loPI   C2B 6654  11.564  14.657   8.361 -0.2037  0.1634 -0.1330
  416loPI   C3B 6655  11.334  14.538   7.916  0.3147  0.2784 -0.1003
  416loPI   C4B 6656  10.886  14.379   7.718  0.0607 -0.2748 -0.1149
  417loPI    C1 6657  16.627   7.681  10.495  0.1908 -0.0986  0.1901
  417loPI    C2 6658  16.619   7.306  10.635  0.0971 -0.1420  0.0706
  417loPI    C3 6659  16.308   7.549  10.697  0.2342 -0.0235  0.3093
  417loPI   PO4 6660  16.836   7.716  10.313  0.1944 -0.0919  0.1608
  417loPI   GL1 6661  16.638   7.665   9.882 -0.0746 -0.4595 -0.0209
  417loPI   GL2 6662  16.812   7.953   9.790 -0.0898 -0.0845  0.1692
  417loPI   C1A 6663  16.443   7.609   9.682  0.0035  0.0856 -0.1949
  417loPI   C2A 6664  16.232   7.497   9.287  0.0016  0.2877 -0.0988
  417loPI   C3A 6665  16.230   7.276   8.901  0.0011  0.1837  0.4027
  417loPI   C4A 6666  15.979   7.151   8.515  0.0905  0.1532 -0.2026
  417loPI   C5A 6667  16.084   7.073   8.104  0.2757 -0.1533  0.2514
  417loPI   C6A 6668  16.069   6.811   7.797 -0.0996  0.0481 -0.3711
  417loPI   C1B 6669  16.911   7.979   9.359 -0.2521 -0.0045  0.2224
  417loPI   C2B 6670  16.890   7.994   8.974 -0.0047  0.0238  0.0908
  417loPI   C3B 6671  16.669   8.066   8.613 -0.1703  0.0596 -0.0780
  417loPI   C4B 6672  16.324   7.995   8.275 -0.2343 -0.4304  0.1761
  418loPI    C1 6673  10.312   5.314  10.442 -0.0255 -0.1961 -0.0385
  418loPI    C2 6674   9.920   5.393  10.456 -0.0066 -0.0816 -0.1335
  418loPI    C3 6675  10.097   5.203  10.760 -0.1233 -0.0765 -0.0617
  418loPI   PO4 6676  10.273   5.221  10.129  0.0664 -0.2514  0.0469
  418loPI   GL1 6677  10.209   5.369   9.694  0.0066  0.2554  0.0358
  418loPI   GL2 6678  10.428   5.591   9.743 -0.0661  0.3381 -0.1059
  418loPI   C1A 6679  10.245   5.335   9.269 -0.0033 -0.1682  0.2643
  418loPI   C2A 6680  10.359   5.412   8.877  0.1602 -0.0701 -0.1204
  418loPI   C3A 6681  10.616   5.634   8.541  0.2618 -0.2745  0.1483
  418loPI   C4A 6682  10.557   5.552   8.179  0.0161 -0.1246 -0.1402
  418loPI   C5A 6683  10.535   5.787   7.772  0.0421  0.0380  0.3335
  418loPI   C6A 6684  10.609   5.834   7.327 -0.1518 -0.0690 -0.1058
  418loPI   C1B 6685  10.488   5.754   9.355  0.0052  0.0017  0.1006
  418loPI   C2B 6686  10.567   5.987   8.946 -0.1028 -0.0040  0.4688
  418loPI   C3B 6687  10.643   6.136   8.611  0.1366  0.2363  0.2757
  418loPI   C4B 6688  10.754   6.366   8.243 -0.0085 -0.1495 -0.1947
  419loPI    C1 6689   7.312  10.967   9.776 -0.0428 -0.0593 -0.2861
  419loPI    C2 6690   7.040  11.243   9.876 -0.1220 -0.1590 -0.2246
  419loPI    C3 6691   7.084  10.915  10.101 -0.0162 -0.1885 -0.2876
  419loPI   PO4 6692   7.272  10.995   9.511  0.1129  0.2589 -0.0250
  419loPI   GL1 6693   6.941  11.018   9.203  0.0366  0.3814  0.0331
  419loPI   GL2 6694   6.749  10.728   9.193  0.0900  0.2447 -0.1932
  419loPI   C1A 6695   6.999  11.291   8.893  0.1527 -0.1160 -0.1051
  419loPI   C2A 6696   7.159  11.270   8.441 -0.0209 -0.1214 -0.2327
  419loPI   C3A 6697   7.402  11.285   8.014  0.4090 -0.3016 -0.1049
  419loPI   C4A 6698   7.227  11.423   7.627  0.3522  0.4337 -0.1383
  419loPI   C5A 6699   6.803  11.501   7.467  0.1753  0.0701  0.0330
  419loPI   C6A 6700   6.380  11.492   7.291  0.1076  0.0652 -0.1643
  419loPI   C1B 6701   6.774  10.875   8.744 -0.1085  0.0937 -0.1150
  419loPI   C2B 6702   6.822  10.848   8.285  0.2439  0.1847 -0.2590
  419loPI   C3B 6703   6.983  10.980   7.925 -0.1795 -0.2754  0.3694
  419loPI   C4B 6704   6.636  11.051   7.581 -0.2369 -0.3496 -0.0457
  420loPI    C1 6705  13.330  12.257   9.876  0.0656 -0.1403  0.1144
  420loPI    C2 6706  13.094  12.086  10.150 -0.1991  0.1131  0.0497
  420loPI    C3 6707  13.371  12.352  10.262  0.0154 -0.1348  0.1184
  420loPI   PO4 6708  13.428  12.013   9.737 -0.2067  0.0204 -0.2064
  420loPI   GL1 6709  13.540  11.761   9.386  0.0662  0.0257  0.3621
  420loPI   GL2 6710  13.680  11.913   9.162 -0.2071  0.0183 -0.3494
  420loPI   C1A 6711  13.521  11.460   8.982 -0.1131 -0.0916  0.1553
  420loPI   C2A 6712  13.572  11.441   8.652 -0.2308 -0.0810 -0.3141
  420loPI   C3A 6713  13.901  11.472   8.302  0.0243 -0.0443  0.0125
  420loPI   C4A 6714  14.009  11.862   8.009 -0.1729  0.0953  0.4197
  420loPI   C5A 6715  14.313  11.966   7.806 -0.1580  0.1024 -0.2234
  420loPI   C6A 6716  14.274  12.297   7.586  0.2168 -0.1536 -0.0135
  420loPI   C1B 6717  13.635  12.358   9.032 -0.0010  0.0570  0.0199
  420loPI   C2B 6718  13.663  12.693   8.703 -0.0017 -0.1180 -0.0705
  420loPI   C3B 6719  13.410  12.770   8.390  0.1775  0.1527 -0.0419
  420loPI   C4B 6720  13.012  12.775   8.075 -0.1395 -0.1253 -0.3508
  421loPI    C1 6721   2.659   3.267   9.910  0.0263  0.1090 -0.0273
  421loPI    C2 6722   2.609   3.567  10.170  0.1229 -0.1051  0.2431
  421loPI    C3 6723   2.803   3.236  10.281 -0.0669 -0.3102 -0.0214
  421loPI   PO4 6724   2.640   3.338   9.670 -0.4119  0.4422  0.1312
  421loPI   GL1 6725   2.670   3.646   9.407  0.0843 -0.0716 -0.1045
  421loPI   GL2 6726   2.516   3.391   9.140 -0.0740  0.1067 -0.4710
  421loPI   C1A 6727   2.498   3.838   9.033  0.3668 -0.0811 -0.2443
  421loPI   C2A 6728   2.349   3.976   8.650 -0.0393 -0.1584 -0.0414
  421loPI   C3A 6729   2.211   4.026   8.346  0.1781  0.0054  0.0189
  421loPI   C4A 6730   2.039   4.039   7.952  0.1887  0.2095 -0.1487
  421loPI   C5A 6731   2.129   3.967   7.566  0.0121  0.0729  0.3591
  421loPI   C6A 6732   1.939   4.069   7.208  0.1373  0.1631 -0.2059
  421loPI   C1B 6733   2.502   3.479   8.752  0.0650 -0.1162 -0.5220
  421loPI   C2B 6734   2.579   3.632   8.363 -0.1001 -0.2933 -0.3555
  421loPI   C3B 6735   2.512   3.738   7.982  0.4496 -0.2045  0.3188
  421loPI   C4B 6736   2.213   3.458   7.752 -0.0659 -0.3567  0.0196
  422loPI    C1 6737   3.459  11.799  10.192 -0.0329 -0.0207 -0.0539
  422loPI    C2 6738   3.597  12.134  10.362 -0.1258 -0.0123  0.0055
  422loPI    C3 6739   3.827  11.807  10.350 -0.0162  0.0674 -0.0965
  422loPI   PO4 6740   3.371  11.856   9.930  0.1820  0.2218  0.1287
  422loPI   GL1 6741   3.393  11.987   9.539 -0.1955 -0.2191  0.3027
  422loPI   GL2 6742   3.438  12.256   9.447 -0.1424 -0.1427  0.0331
  422loPI   C1A 6743   3.131  11.796   9.258 -0.0244 -0.1121  0.3787
  422loPI   C2A 6744   3.000  11.741   8.906 -0.2377  0.0783 -0.1883
  422loPI   C3A 6745   3.001  11.650   8.546 -0.0930 -0.2421  0.0987
  422loPI   C4A 6746   3.063  11.357   8.166  0.0912 -0.1775 -0.0575
  422loPI   C5A 6747   3.215  11.076   7.961 -0.0538  0.3947 -0.1966
  422loPI   C6A 6748   3.341  10.871   7.580  0.0680  0.3118 -0.0274
  422loPI   C1B 6749   3.599  12.152   9.080 -0.2327 -0.0910 -0.2037
  422loPI   C2B 6750   3.727  12.154   8.662  0.2349 -0.2334 -0.1812
  422loPI   C3B 6751   3.728  11.969   8.156  0.2417 -0.1537 -0.0801
  422loPI   C4B 6752   3.608  12.023   7.801  0.1531  0.1141 -0.0849
  423loPI    C1 6753   9.214   6.268  10.124 -0.0272  0.1455 -0.1592
  423loPI    C2 6754   8.918   6.390  10.365 -0.0096  0.0091 -0.0672
  423loPI    C3 6755   9.002   6.000  10.333  0.2290  0.0544 -0.0114
  423loPI   PO4 6756   9.222   6.485   9.866 -0.4094  0.0742 -0.0618
  423loPI   GL1 6757   9.010   6.575   9.576 -0.0615 -0.0485  0.3448
  423loPI   GL2 6758   8.852   6.571   9.385 -0.0055 -0.1976  0.0891
  423loPI   C1A 6759   9.401   6.603   9.232  0.1665  0.0970  0.2660
  423loPI   C2A 6760   9.691   6.617   8.826 -0.0724 -0.0437 -0.2461
  423loPI   C3A 6761   9.812   6.616   8.407  0.0548  0.2071  0.0305
  423loPI   C4A 6762  10.015   6.668   7.948 -0.2988 -0.1521  0.0902
  423loPI   C5A 6763  10.003   6.650   7.461  0.1600 -0.1008 -0.2207
  423loPI   C6A 6764   9.812   6.275   7.086  0.1766  0.3281  0.0067
  423loPI   C1B 6765   9.055   6.309   9.094 -0.0115  0.3270 -0.0596
  423loPI   C2B 6766   9.421   6.201   8.835 -0.1487  0.0670  0.1902
  423loPI   C3B 6767   9.765   6.096   8.561  0.0314  0.1348  0.0579
  423loPI   C4B 6768   9.848   6.116   8.089  0.3307 -0.1210 -0.1218
  424loPI    C1 6769  14.305  14.993   9.824  0.0740  0.0942 -0.2031
  424loPI    C2 6770  14.274  15.338  10.024  0.1545 -0.0255  0.0191
  424loPI    C3 6771  14.027  15.035  10.107 -0.0786  0.0577 -0.3460
  424loPI   PO4 6772  14.363  15.118   9.536  0.5561  0.0852 -0.2545
  424loPI   GL1 6773  14.507  15.137   9.177  0.0076  0.0759 -0.1332
  424loPI   GL2 6774  14.241  15.349   9.061  0.0615 -0.3980 -0.0383
  424loPI   C1A 6775  14.478  15.150   8.680  0.1238  0.0047 -0.2946
  424loPI   C2A 6776  14.482  15.061   8.213 -0.1637 -0.2517 -0.1397
  424loPI   C3A 6777  14.455  15.149   7.721  0.1968 -0.2319  0.0990
  424loPI   C4A 6778  14.187  15.486   7.467  0.0672  0.2560 -0.3062
  424loPI   C5A 6779  14.028  15.939   7.379 -0.3122  0.0060 -0.0452
  424loPI   C6A 6780  13.946  16.087   6.991  0.3739  0.5145  0.2669
  424loPI   C1B 6781  14.124  15.730   8.844 -0.3502  0.2075  0.3687
  424loPI   C2B 6782  14.050  15.740   8.373 -0.0448 -0.0902 -0.0707
  424loPI   C3B 6783  14.146  15.901   7.878 -0.0269  0.0612 -0.0504
  424loPI   C4B 6784  14.299  16.202   7.668  0.0567  0.1964 -0.1592
  425loPI    C1 6785   8.617  13.102   9.672 -0.1383 -0.1142 -0.1406
  425loPI    C2 6786   8.382  13.160   9.990 -0.0303 -0.1806 -0.0480
  425loPI    C3 6787   8.243  12.961   9.672 -0.0887 -0.2488  0.0199
  425loPI   PO4 6788   8.826  13.247   9.704  0.3439  0.3122 -0.0491
  425loPI   GL1 6789   9.119  13.233   9.362  0.1667  0.2447 -0.0033
  425loPI   GL2 6790   8.896  12.999   9.235  0.0352 -0.2690  0.0123
  425loPI   C1A 6791   9.091  13.438   8.936  0.1446  0.1522  0.0738
  425loPI   C2A 6792   9.080  13.917   8.744 -0.1269  0.0564 -0.0631
  425loPI   C3A 6793   9.172  14.100   8.374  0.0512 -0.0697  0.2633
  425loPI   C4A 6794   9.150  14.332   7.928 -0.3291 -0.4131  0.1204
  425loPI   C5A 6795   9.052  14.558   7.489  0.0938 -0.0433  0.3563
  425loPI   C6A 6796   8.883  14.926   7.262  0.3105  0.1557  0.0310
  425loPI   C1B 6797   8.775  13.098   8.861 -0.1982  0.3235  0.2052
  425loPI   C2B 6798   8.767  13.196   8.437  0.2321 -0.2006  0.1234
  425loPI   C3B 6799   8.707  13.286   8.024 -0.3239  0.1400 -0.4092
  425loPI   C4B 6800   8.512  13.402   7.617 -0.0587  0.0490 -0.1332
  426loPI    C1 6801   2.564   9.327   9.935  0.0716  0.1054 -0.0853
  426loPI    C2 6802   2.604   8.942   9.835  0.2421  0.1141 -0.0538
  426loPI    C3 6803   2.525   9.043  10.214  0.2265  0.1120 -0.0564
  426loPI   PO4 6804   2.496   9.386   9.618 -0.0968  0.0206 -0.0600
  426loPI   GL1 6805   2.730   9.402   9.276  0.0733  0.2008  0.3789
  426loPI   GL2 6806   2.944   9.309   8.958 -0.0011 -0.0635 -0.3994
  426loPI   C1A 6807   2.457   9.695   8.993  0.0003  0.1824  0.2435
  426loPI   C2A 6808   2.468   9.540   8.635 -0.2356  0.3277 -0.4193
  426loPI   C3A 6809   2.568   9.690   8.205 -0.0133 -0.0266 -0.2435
  426loPI   C4A 6810   2.558   9.807   7.690 -0.2693 -0.0371 -0.1900
  426loPI   C5A 6811   2.715   9.656   7.251  0.1896  0.0171 -0.0668
  426loPI   C6A 6812   2.916   9.222   7.149 -0.2567  0.1961  0.6046
  426loPI   C1B 6813   3.083   8.982   8.737 -0.0320 -0.3432 -0.3741
  426loPI   C2B 6814   3.226   8.915   8.362 -0.3163 -0.1338  0.2339
  426loPI   C3B 6815   3.351   8.610   7.949 -0.1072  0.2032  0.0872
  426loPI   C4B 6816   3.722   8.428   7.878 -0.0413 -0.0653 -0.2514
  427loPI    C1 6817  12.177   9.336   9.707 -0.0243 -0.1234 -0.2659
  427loPI    C2 6818  12.309   9.686   9.565 -0.1042  0.0496  0.0766
  427loPI    C3 6819  12.457   9.540   9.906 -0.2148 -0.1538  0.0393
  427loPI   PO4 6820  12.198   9.020   9.612  0.2179  0.1935  0.6101
  427loPI   GL1 6821  12.121   8.904   9.212  0.0514  0.2417 -0.4952
  427loPI   GL2 6822  12.402   8.861   9.062  0.2279 -0.2998 -0.2816
  427loPI   C1A 6823  11.954   9.071   8.859  0.2351 -0.0132 -0.0673
  427loPI   C2A 6824  11.870   9.036   8.441 -0.0462 -0.2081 -0.4247
  427loPI   C3A 6825  11.852   8.664   8.268 -0.1835  0.0110 -0.0530
  427loPI   C4A 6826  11.885   8.461   7.912  0.0641  0.2151 -0.0312
  427loPI   C5A 6827  11.813   8.108   7.664  0.1249  0.0693 -0.1336
  427loPI   C6A 6828  12.134   7.745   7.466  0.1114 -0.1234 -0.2076
  427loPI   C1B 6829  12.645   8.813   8.716 -0.2059  0.0999  0.2105
  427loPI   C2B 6830  12.804   9.142   8.325  0.0227 -0.0977  0.0051
  427loPI   C3B 6831  12.958   9.296   8.025  0.1026 -0.0983 -0.1170
  427loPI   C4B 6832  13.019   9.492   7.654 -0.1050  0.2495 -0.1449
  428loPI    C1 6833   3.035  12.899  10.278  0.0501  0.0306  0.2953
  428loPI    C2 6834   3.304  12.609  10.225  0.0167  0.0520 -0.0096
  428loPI    C3 6835   3.193  12.714  10.594  0.2535 -0.1145  0.1114
  428loPI   PO4 6836   2.939  12.856   9.957  0.2343  0.0037  0.0256
  428loPI   GL1 6837   2.743  12.666   9.596  0.0765  0.2219 -0.1814
  428loPI   GL2 6838   3.099  12.639   9.478 -0.1635  0.0241 -0.0607
  428loPI   C1A 6839   2.803  12.870   9.222  0.0273 -0.3777 -0.3667
  428loPI   C2A 6840   2.968  12.975   8.801 -0.1621 -0.0207  0.0765
  428loPI   C3A 6841   3.310  13.149   8.512  0.3224 -0.1757 -0.1756
  428loPI   C4A 6842   3.399  13.390   8.286 -0.1410  0.0489  0.0764
  428loPI   C5A 6843   3.440  13.572   7.880  0.2654 -0.0829  0.1782
  428loPI   C6A 6844   3.418  13.755   7.398  0.2615 -0.2259  0.1206
  428loPI   C1B 6845   3.340  12.727   9.177  0.1756  0.0595 -0.1202
  428loPI   C2B 6846   3.348  12.604   8.690 -0.0166 -0.1049  0.0409
  428loPI   C3B 6847   3.520  12.434   8.344 -0.0800  0.0579  0.1301
  428loPI   C4B 6848   3.855  12.525   8.120 -0.0592  0.1269  0.0431
  429loPI    C1 6849  12.649   7.714  10.241  0.0426 -0.5391  0.0086
  429loPI    C2 6850  12.980   7.937  10.218 -0.1265 -0.2804  0.0405
  429loPI    C3 6851  12.904   7.725  10.549 -0.3079  0.1706  0.2975
  429loPI   PO4 6852  12.622   7.612   9.988  0.0713  0.0725  0.1639
  429loPI   GL1 6853  12.550   7.565   9.549 -0.0355  0.0898 -0.0974
  429loPI   GL2 6854  12.371   7.849   9.541  0.3304 -0.0179  0.3331
  429loPI   C1A 6855  12.639   7.317   9.239  0.0584  0.2106  0.1578
  429loPI   C2A 6856  12.682   7.353   8.839 -0.2550  0.2196 -0.0271
  429loPI   C3A 6857  12.655   7.229   8.445 -0.2669 -0.3413 -0.1326
  429loPI   C4A 6858  12.744   7.099   8.120 -0.5692 -0.1793 -0.1960
  429loPI   C5A 6859  12.656   7.336   7.739 -0.0107  0.0561 -0.2910
  429loPI   C6A 6860  12.619   7.641   7.493  0.1856  0.1067 -0.0074
  429loPI   C1B 6861  12.255   7.938   9.170  0.2644 -0.0974  0.1332
  429loPI   C2B 6862  12.148   8.054   8.735 -0.0840 -0.2647 -0.0778
  429loPI   C3B 6863  12.128   8.213   8.346 -0.1409 -0.0733 -0.2316
  429loPI   C4B 6864  12.215   7.927   7.986 -0.3720 -0.0046 -0.2545
  430loPI    C1 6865  15.432  11.832   9.951 -0.0324  0.0563  0.3093
  430loPI    C2 6866  15.723  11.705  10.195  0.1872 -0.0681 -0.0098
  430loPI    C3 6867  15.530  11.444   9.961 -0.0155  0.0505  0.0227
  430loPI   PO4 6868  15.493  12.006   9.827 -0.3539  0.3389  0.1872
  430loPI   GL1 6869  15.556  12.137   9.479  0.2248  0.0734 -0.0446
  430loPI   GL2 6870  15.792  12.068   9.310 -0.0229  0.1023 -0.1461
  430loPI   C1A 6871  15.319  12.247   9.150 -0.3738  0.1292 -0.0800
  430loPI   C2A 6872  15.184  12.440   8.742  0.1177  0.0332  0.3404
  430loPI   C3A 6873  15.141  12.283   8.296 -0.1511 -0.1153 -0.1444
  430loPI   C4A 6874  15.207  11.882   8.219 -0.1270 -0.0355  0.2949
  430loPI   C5A 6875  15.431  11.618   7.999 -0.2403 -0.2397  0.2620
  430loPI   C6A 6876  15.779  11.621   7.992  0.0847  0.2307  0.1462
  430loPI   C1B 6877  15.768  12.190   8.908  0.1033  0.0277 -0.1257
  430loPI   C2B 6878  15.942  12.295   8.510 -0.5748  0.0010 -0.2866
  430loPI   C3B 6879  15.971  12.436   8.020  0.0946 -0.1355  0.2891
  430loPI   C4B 6880  15.820  12.459   7.581 -0.0862 -0.0847 -0.2717
  431loPI    C1 6881   2.903   5.625   9.840 -0.3280  0.3259 -0.1767
  431loPI    C2 6882   3.194   5.875   9.953  0.1028 -0.1261 -0.2506
  431loPI    C3 6883   3.025   5.631  10.221  0.0081 -0.0817 -0.2696
  431loPI   PO4 6884   2.992   5.611   9.565 -0.0199  0.1651 -0.0011
  431loPI   GL1 6885   3.211   5.721   9.165  0.1770  0.2663 -0.4203
  431loPI   GL2 6886   3.468   5.884   9.130 -0.0838 -0.0686  0.1411
  431loPI   C1A 6887   3.003   5.590   8.805  0.0682 -0.2477  0.1827
  431loPI   C2A 6888   3.032   5.305   8.524  0.1406 -0.0774  0.0731
  431loPI   C3A 6889   3.223   5.201   8.123  0.0988  0.2337 -0.0274
  431loPI   C4A 6890   3.231   4.978   7.820 -0.0181  0.0809 -0.1591
  431loPI   C5A 6891   3.157   4.839   7.437  0.0894 -0.3253 -0.2854
  431loPI   C6A 6892   3.514   4.993   7.181  0.0607 -0.2255  0.1077
  431loPI   C1B 6893   3.395   5.885   8.647  0.0900 -0.2129 -0.0753
  431loPI   C2B 6894   3.171   5.745   8.339  0.1493  0.0036 -0.0759
  431loPI   C3B 6895   3.129   5.731   7.812 -0.3354 -0.0533 -0.4737
  431loPI   C4B 6896   3.267   5.750   7.414  0.1919 -0.3598  0.1783
  432loPI    C1 6897  14.063   0.189  10.219 -0.2119 -0.0475 -0.0546
  432loPI    C2 6898  14.411   0.125  10.404 -0.1914 -0.1128 -0.1152
  432loPI    C3 6899  14.100   0.271  10.609 -0.1658 -0.1740 -0.0319
  432loPI   PO4 6900  14.078   0.245   9.967  0.1964  0.1347 -0.3566
  432loPI   GL1 6901  14.191   0.169   9.592 -0.2952  0.0188  0.1406
  432loPI   GL2 6902  14.007  -0.085   9.528 -0.1504 -0.3129 -0.0543
  432loPI   C1A 6903  14.372   0.172   9.201  0.0532  0.1544 -0.1514
  432loPI   C2A 6904  14.320   0.270   8.825  0.2215  0.0976  0.0228
  432loPI   C3A 6905  14.273  -0.037   8.532 -0.0925  0.1522 -0.0309
  432loPI   C4A 6906  14.012  -0.066   8.191  0.0061  0.3514 -0.0831
  432loPI   C5A 6907  13.972   0.040   7.797 -0.0217 -0.0517 -0.0891
  432loPI   C6A 6908  13.766  -0.104   7.488  0.0680 -0.0349  0.1880
  432loPI   C1B 6909  14.000  -0.248   9.193  0.1167  0.0132  0.1469
  432loPI   C2B 6910  13.879  -0.502   8.767 -0.0951 -0.0553 -0.0623
  432loPI   C3B 6911  13.860  -0.491   8.356 -0.0532 -0.2556 -0.0423
  432loPI   C4B 6912  14.037  -0.492   7.875  0.0284  0.0569  0.0488
  433loPI    C1 6913   5.796  12.910  10.272 -0.1278  0.2256  0.0704
  433loPI    C2 6914   5.914  13.070  10.619 -0.2502  0.3039  0.0767
  433loPI    C3 6915   5.661  12.760  10.617  0.1673 -0.0471  0.0719
  433loPI   PO4 6916   5.748  13.146  10.098 -0.1580 -0.0444 -0.0646
  433loPI   GL1 6917   5.639  13.217   9.621  0.1702  0.1810 -0.1848
  433loPI   GL2 6918   5.356  13.228   9.777 -0.1218  0.0336  0.0099
  433loPI   C1A 6919   5.376  13.158   9.265 -0.1090 -0.3519  0.1460
  433loPI   C2A 6920   5.164  12.907   8.988 -0.1049  0.1277  0.3284
  433loPI   C3A 6921   5.175  12.769   8.606 -0.0382 -0.0118 -0.1528
  433loPI   C4A 6922   4.804  12.451   8.457  0.0529 -0.2128 -0.4972
  433loPI   C5A 6923   4.591  12.248   8.126 -0.0295 -0.0277 -0.0688
  433loPI   C6A 6924   4.546  12.282   7.662 -0.3149 -0.2100  0.1608
  433loPI   C1B 6925   5.136  13.554   9.677  0.2586  0.2209  0.4376
  433loPI   C2B 6926   4.927  13.933   9.442 -0.0850  0.0602  0.3577
  433loPI   C3B 6927   4.743  14.182   9.129 -0.1710 -0.3392  0.1674
  433loPI   C4B 6928   4.724  14.116   8.703 -0.2029  0.1100  0.1519
  434loPI    C1 6929  14.315   6.778  10.191  0.1032 -0.2899  0.0234
  434loPI    C2 6930  14.290   6.663  10.574  0.3240  0.1088  0.1635
  434loPI    C3 6931  14.359   7.047  10.484  0.1463  0.0430 -0.2817
  434loPI   PO4 6932  14.033   6.608  10.077 -0.1563  0.1678  0.1341
  434loPI   GL1 6933  13.883   6.563   9.656 -0.0773 -0.1479 -0.0683
  434loPI   GL2 6934  13.695   6.269   9.654 -0.0930 -0.0227 -0.2539
  434loPI   C1A 6935  13.847   6.718   9.257 -0.0249 -0.2571 -0.2497
  434loPI   C2A 6936  13.763   6.834   8.851 -0.4231 -0.1983  0.1084
  434loPI   C3A 6937  13.689   6.968   8.468  0.1180 -0.1631 -0.1451
  434loPI   C4A 6938  13.863   7.064   8.055  0.0624 -0.0612 -0.1237
  434loPI   C5A 6939  14.101   6.712   7.918 -0.2032  0.1888  0.0723
  434loPI   C6A 6940  14.328   6.570   7.666  0.1192  0.1964 -0.3518
  434loPI   C1B 6941  13.664   6.305   9.260  0.2746 -0.2566 -0.3136
  434loPI   C2B 6942  13.865   6.306   8.813  0.2016 -0.1978  0.0018
  434loPI   C3B 6943  13.848   6.491   8.346 -0.2280 -0.0446  0.0122
  434loPI   C4B 6944  13.560   6.664   8.033 -0.1178 -0.1508 -0.1084
  435loPI    C1 6945  18.471   5.593  10.194  0.0534  0.0178  0.2263
  435loPI    C2 6946  18.381   5.955  10.339  0.2852  0.1921 -0.0537
  435loPI    C3 6947  18.733   5.786  10.427  0.2896  0.1544 -0.1423
  435loPI   PO4 6948  18.477   5.627   9.923  0.1604  0.1322 -0.0280
  435loPI   GL1 6949  18.756   5.711   9.544 -0.0204  0.1467  0.0144
  435loPI   GL2 6950  18.701   5.987   9.468 -0.0939 -0.0461  0.0603
  435loPI   C1A 6951  18.885   5.698   9.096  0.0182  0.0254 -0.3790
  435loPI   C2A 6952  18.933   5.581   8.692  0.3011 -0.2706  0.3110
  435loPI   C3A 6953  18.932   5.548   8.251  0.1367  0.2872 -0.1527
  435loPI   C4A 6954  19.149   5.597   7.782 -0.1207 -0.0275  0.1969
  435loPI   C5A 6955  19.488   5.439   7.438 -0.0638 -0.0828 -0.1130
  435loPI   C6A 6956  19.545   5.265   7.006 -0.1050  0.1578  0.3014
  435loPI   C1B 6957  18.756   6.207   9.057  0.0527  0.0013  0.3947
  435loPI   C2B 6958  18.805   6.132   8.685  0.0798 -0.3329 -0.1826
  435loPI   C3B 6959  18.871   6.152   8.263 -0.1362 -0.2937 -0.1286
  435loPI   C4B 6960  19.186   6.155   7.960 -0.1766 -0.0121  0.0415
  436loPI    C1 6961   3.213   2.542  10.005  0.2478  0.0844  0.0760
  436loPI    C2 6962   3.097   2.823  10.265 -0.1667  0.0128 -0.0244
  436loPI    C3 6963   2.974   2.446  10.311 -0.1836 -0.0150 -0.2826
  436loPI   PO4 6964   3.443   2.726   9.774  0.1190 -0.2718 -0.0074
  436loPI   GL1 6965   3.374   2.956   9.377  0.2627 -0.2842 -0.0969
  436loPI   GL2 6966   3.663   2.835   9.309 -0.1631  0.1306  0.0804
  436loPI   C1A 6967   3.327   3.067   9.004 -0.3625 -0.0845  0.0414
  436loPI   C2A 6968   3.613   3.015   8.652  0.1101  0.2368 -0.1345
  436loPI   C3A 6969   3.451   2.935   8.402 -0.0055 -0.0446  0.2151
  436loPI   C4A 6970   3.317   2.668   8.153  0.1149  0.0199 -0.3362
  436loPI   C5A 6971   3.195   2.324   8.027 -0.0261  0.1345  0.1227
  436loPI   C6A 6972   3.280   2.005   7.755 -0.1859  0.1796  0.1456
  436loPI   C1B 6973   3.386   2.509   8.988  0.1403  0.2547  0.1287
  436loPI   C2B 6974   3.562   2.399   8.437  0.0270  0.0026 -0.4163
  436loPI   C3B 6975   3.674   2.352   7.910  0.2854 -0.2150 -0.0467
  436loPI   C4B 6976   3.779   2.517   7.509 -0.0925  0.3719  0.1665
  437loPI    C1 6977  17.902   5.652  10.124 -0.2000 -0.1673 -0.1544
  437loPI    C2 6978  17.557   5.682  10.325 -0.0650  0.0758  0.0472
  437loPI    C3 6979  17.873   5.506  10.495 -0.0127  0.0892 -0.0354
  437loPI   PO4 6980  17.860   5.644   9.892 -0.0572  0.4502  0.0726
  437loPI   GL1 6981  17.923   5.694   9.463 -0.0950 -0.1665  0.2140
  437loPI   GL2 6982  18.233   5.814   9.532  0.0765 -0.2097 -0.2009
  437loPI   C1A 6983  17.917   6.083   9.059 -0.0047  0.0429  0.0527
  437loPI   C2A 6984  18.274   6.193   8.803 -0.1386  0.5052  0.1410
  437loPI   C3A 6985  18.343   6.257   8.412 -0.1660 -0.1973 -0.0608
  437loPI   C4A 6986  18.375   6.282   7.967  0.1202 -0.1752  0.1808
  437loPI   C5A 6987  18.759   6.235   7.721  0.0790 -0.0686 -0.3033
  437loPI   C6A 6988  18.924   5.948   7.465  0.0113  0.2765 -0.0280
  437loPI   C1B 6989  18.322   5.724   9.139 -0.1064 -0.0916 -0.0338
  437loPI   C2B 6990  18.452   5.553   8.732 -0.3943 -0.1502 -0.3132
  437loPI   C3B 6991  18.468   5.835   8.396  0.1702  0.1314  0.4476
  437loPI   C4B 6992  18.651   5.812   7.947  0.0024 -0.2484 -0.0041
  438loPI    C1 6993  18.327   6.589  10.128  0.1498 -0.0884  0.1014
  438loPI    C2 6994  18.036   6.468  10.375 -0.1649  0.4399  0.0045
  438loPI    C3 6995  18.385   6.596  10.524 -0.0389 -0.0279  0.1290
  438loPI   PO4 6996  18.204   6.609   9.923 -0.3833 -0.0253  0.3235
  438loPI   GL1 6997  18.114   6.487   9.550 -0.0967 -0.0519  0.0814
  438loPI   GL2 6998  18.289   6.267   9.328 -0.0440 -0.0504  0.2799
  438loPI   C1A 6999  17.831   6.869   9.265  0.1874 -0.3197  0.0360
  438loPI   C2A 7000  17.868   7.054   8.795  0.2195 -0.1045  0.2277
  438loPI   C3A 7001  17.912   7.100   8.364 -0.2561  0.0111  0.0429
  438loPI   C4A 7002  17.867   7.106   7.948 -0.1968 -0.1200  0.0399
  438loPI   C5A 7003  18.028   6.972   7.587 -0.0146 -0.0240  0.0685
  438loPI   C6A 7004  18.168   6.988   7.205 -0.3681  0.3347  0.0068
  438loPI   C1B 7005  18.238   6.567   9.070 -0.1561  0.1240  0.1668
  438loPI   C2B 7006  18.022   6.606   8.668 -0.0743 -0.2175 -0.4036
  438loPI   C3B 7007  17.682   6.265   8.621 -0.0689 -0.0243 -0.0751
  438loPI   C4B 7008  17.240   6.296   8.791  0.1812 -0.0392  0.2369
  439loPI    C1 7009  10.936   8.302   9.739  0.2870  0.0245  0.0829
  439loPI    C2 7010  10.739   8.448  10.055  0.0040  0.0034 -0.0808
  439loPI    C3 7011  11.036   8.185  10.108 -0.0053  0.0411  0.1696
  439loPI   PO4 7012  10.811   8.258   9.549 -0.1279 -0.0785 -0.0738
  439loPI   GL1 7013  10.676   7.920   9.281  0.2225 -0.0999  0.0025
  439loPI   GL2 7014  10.393   8.027   9.219 -0.3918  0.0819 -0.1041
  439loPI   C1A 7015  10.666   7.733   8.791  0.3679 -0.1671  0.0994
  439loPI   C2A 7016  10.684   7.848   8.312  0.3429  0.1010  0.1846
  439loPI   C3A 7017  10.919   8.075   8.035  0.1169 -0.3345 -0.0749
  439loPI   C4A 7018  11.204   8.009   7.635 -0.0557 -0.0101 -0.1059
  439loPI   C5A 7019  11.458   8.399   7.391 -0.2292  0.1403  0.0852
  439loPI   C6A 7020  11.602   8.687   7.027 -0.0331 -0.3793 -0.0776
  439loPI   C1B 7021  10.219   8.060   8.820 -0.1454  0.1228  0.1668
  439loPI   C2B 7022  10.105   7.923   8.428 -0.2688  0.3463 -0.0795
  439loPI   C3B 7023   9.986   8.139   8.172 -0.3234 -0.1920  0.0265
  439loPI   C4B 7024  10.031   8.335   7.859 -0.2713  0.0586 -0.1075
  440loPI    C1 7025   3.556   5.073   9.912  0.1860  0.1019  0.1365
  440loPI    C2 7026   3.210   5.213  10.056 -0.1467 -0.1872 -0.3553
  440loPI    C3 7027   3.492   5.468   9.933 -0.1701  0.0514  0.0660
  440loPI   PO4 7028   3.541   4.896   9.754  0.4914 -0.2935  0.3040
  440loPI   GL1 7029   3.717   4.709   9.459  0.3126 -0.1786  0.1921
  440loPI   GL2 7030   3.992   4.468   9.338  0.0855  0.0497 -0.1297
  440loPI   C1A 7031   3.759   4.743   8.958  0.0761 -0.0325  0.1091
  440loPI   C2A 7032   3.808   4.602   8.593 -0.0879  0.1311 -0.1773
  440loPI   C3A 7033   3.710   4.486   8.157 -0.1090 -0.3639  0.2630
  440loPI   C4A 7034   3.583   4.598   7.731  0.2483 -0.2028  0.2196
  440loPI   C5A 7035   3.574   4.503   7.373  0.2103  0.4926 -0.1176
  440loPI   C6A 7036   3.244   4.416   7.047  0.0661 -0.1258 -0.0953
  440loPI   C1B 7037   4.105   4.340   8.987  0.1004 -0.0066  0.2302
  440loPI   C2B 7038   4.160   4.265   8.482  0.0997 -0.2169 -0.2109
  440loPI   C3B 7039   4.212   4.260   8.066 -0.0990 -0.4584  0.1161
  440loPI   C4B 7040   3.923   4.138   7.769 -0.2257  0.1375  0.2854
  441loPI    C1 7041   0.619  10.036   9.514  0.1287 -0.1028  0.2198
  441loPI    C2 7042   0.532   9.834   9.848 -0.2928 -0.2598  0.0219
  441loPI    C3 7043   0.725   9.651   9.549 -0.0290 -0.1555  0.1255
  441loPI   PO4 7044   0.411  10.103   9.450  0.1805 -0.1451  0.2013
  441loPI   GL1 7045   0.238  10.213   9.050  0.0991 -0.0564  0.1667
  441loPI   GL2 7046   0.256  10.533   9.207 -0.0299 -0.2108 -0.1665
  441loPI   C1A 7047   0.174  10.112   8.633 -0.2101  0.0289 -0.1635
  441loPI   C2A 7048   0.080  10.092   8.176  0.0280 -0.0491 -0.2754
  441loPI   C3A 7049   0.239  10.161   7.774 -0.1490  0.3352 -0.1106
  441loPI   C4A 7050   0.539  10.381   7.626 -0.1743 -0.1161 -0.0955
  441loPI   C5A 7051   0.975  10.264   7.695  0.1272 -0.2676  0.1831
  441loPI   C6A 7052   1.315  10.186   8.025  0.3690 -0.1061 -0.1534
  441loPI   C1B 7053   0.108  10.642   8.800  0.1233  0.0941  0.2133
  441loPI   C2B 7054   0.094  10.551   8.348  0.0361 -0.0730  0.2668
  441loPI   C3B 7055   0.043  10.611   7.948  0.0314 -0.1844 -0.1223
  441loPI   C4B 7056   0.058  10.774   7.479  0.2024 -0.1925 -0.3115
  442loPI    C1 7057   4.907   7.463   9.657  0.0323  0.0479 -0.1982
  442loPI    C2 7058   5.043   7.823   9.546  0.1486  0.0843  0.0541
  442loPI    C3 7059   5.134   7.677   9.907 -0.0467 -0.1224  0.0228
  442loPI   PO4 7060   4.953   7.354   9.383  0.0189  0.3547 -0.1770
  442loPI   GL1 7061   5.302   7.277   9.044  0.1544 -0.3350  0.2754
  442loPI   GL2 7062   5.477   7.592   9.026 -0.0490 -0.1061  0.2467
  442loPI   C1A 7063   5.316   7.028   8.727  0.2064 -0.3089 -0.0009
  442loPI   C2A 7064   5.092   7.111   8.432  0.3528  0.1285  0.0693
  442loPI   C3A 7065   4.917   6.917   8.061 -0.0915 -0.1571  0.0005
  442loPI   C4A 7066   4.847   6.918   7.652 -0.1493  0.0860  0.1218
  442loPI   C5A 7067   4.877   6.556   7.359  0.2970  0.0026 -0.4805
  442loPI   C6A 7068   4.814   6.097   7.379 -0.2856 -0.1990  0.1104
  442loPI   C1B 7069   5.442   7.915   8.705  0.0734  0.0286  0.0319
  442loPI   C2B 7070   5.510   7.947   8.277 -0.0547 -0.4107  0.3772
  442loPI   C3B 7071   5.438   7.799   7.844  0.0380  0.1716 -0.3391
  442loPI   C4B 7072   5.272   7.884   7.487  0.2864 -0.0967 -0.0018
  443loPI    C1 7073  17.579  19.001  10.761 -0.1725  0.0894 -0.1775
  443loPI    C2 7074  17.664  19.056  11.148 -0.0023  0.0006 -0.2011
  443loPI    C3 7075  17.408  19.302  10.962  0.0987  0.1902 -0.0931
  443loPI   PO4 7076  17.808  18.953  10.600  0.0769 -0.1011  0.0149
  443loPI   GL1 7077  18.026  18.669  10.257  0.1150  0.0375 -0.3277
  443loPI   GL2 7078  18.067  18.326  10.193  0.2171 -0.1836  0.1705
  443loPI   C1A 7079  17.822  18.687   9.864  0.0920  0.1079  0.0697
  443loPI   C2A 7080  17.377  18.642   9.511  0.1296  0.4187  0.1550
  443loPI   C3A 7081  17.079  18.441   9.176 -0.0184  0.0876  0.0845
  443loPI   C4A 7082  17.116  18.248   8.794  0.1716 -0.2312  0.1367
  443loPI   C5A 7083  17.582  17.987   8.623  0.0181 -0.0428 -0.3239
  443loPI   C6A 7084  18.062  17.873   8.731  0.2442  0.0656  0.1734
  443loPI   C1B 7085  18.252  18.470   9.835  0.0982  0.0103  0.2413
  443loPI   C2B 7086  18.572  18.434   9.557  0.0992 -0.3409  0.0539
  443loPI   C3B 7087  18.817  18.599   9.199 -0.1336 -0.0993  0.0391
  443loPI   C4B 7088  18.927  18.726   8.801  0.0559  0.2100  0.1497
  444loPI    C1 7089   5.031   5.343   9.965  0.1732  0.1789 -0.0355
  444loPI    C2 7090   5.138   5.597  10.255  0.0726  0.0582  0.1079
  444loPI    C3 7091   4.902   5.284  10.339 -0.0353  0.0763 -0.1220
  444loPI   PO4 7092   5.020   5.511   9.711 -0.3625  0.2556  0.0914
  444loPI   GL1 7093   4.985   5.737   9.295  0.0205 -0.1300 -0.0742
  444loPI   GL2 7094   5.281   5.627   9.235 -0.0012  0.0403  0.5496
  444loPI   C1A 7095   4.917   5.626   8.898  0.2680 -0.2858 -0.0414
  444loPI   C2A 7096   4.980   5.565   8.616  0.0536 -0.0042 -0.1853
  444loPI   C3A 7097   5.279   5.648   8.212 -0.1097  0.2232  0.2491
  444loPI   C4A 7098   5.320   5.540   7.850 -0.2023  0.3461  0.1031
  444loPI   C5A 7099   5.519   5.498   7.442 -0.1782 -0.0708  0.0574
  444loPI   C6A 7100   5.871   5.472   7.190 -0.1823 -0.2033  0.1108
  444loPI   C1B 7101   5.441   5.688   8.780  0.0792  0.1423  0.1172
  444loPI   C2B 7102   5.623   5.918   8.486  0.1320  0.2940  0.1615
  444loPI   C3B 7103   5.676   5.962   8.132 -0.0535 -0.0068 -0.0869
  444loPI   C4B 7104   5.468   5.953   7.709  0.5126  0.1911  0.3264
  445loPI    C1 7105   8.457   1.282   9.668 -0.2021 -0.0707 -0.0623
  445loPI    C2 7106   8.661   1.334  10.009  0.1770 -0.1246 -0.2747
  445loPI    C3 7107   8.268   1.259  10.020  0.0761  0.4037  0.1278
  445loPI   PO4 7108   8.572   1.097   9.536  0.1031  0.2169 -0.2648
  445loPI   GL1 7109   8.685   0.960   9.160  0.2694  0.4092  0.2756
  445loPI   GL2 7110   8.750   0.622   9.196 -0.0718  0.0547  0.2348
  445loPI   C1A 7111   8.681   1.062   8.764  0.1366 -0.3053  0.2096
  445loPI   C2A 7112   8.777   1.116   8.217 -0.0203  0.2997 -0.0005
  445loPI   C3A 7113   8.809   1.372   7.860  0.2645 -0.1893 -0.0518
  445loPI   C4A 7114   8.573   1.172   7.534  0.4479  0.1381  0.0419
  445loPI   C5A 7115   8.199   1.030   7.276 -0.3522  0.1375  0.1077
  445loPI   C6A 7116   7.956   0.603   7.196  0.2019 -0.3135 -0.1021
  445loPI   C1B 7117   8.722   0.562   8.755  0.2493 -0.3307 -0.1951
  445loPI   C2B 7118   8.764   0.587   8.279  0.0135 -0.0685  0.3648
  445loPI   C3B 7119   8.863   0.758   7.902 -0.0017  0.1525 -0.4866
  445loPI   C4B 7120   9.062   0.945   7.591  0.1998 -0.0268  0.1271
  446loPI    C1 7121   3.766  18.216   9.764  0.1178  0.0227  0.1017
  446loPI    C2 7122   3.836  18.591   9.885 -0.0908 -0.0414  0.4344
  446loPI    C3 7123   3.953  18.282  10.111  0.1015 -0.1813  0.1507
  446loPI   PO4 7124   3.844  18.207   9.546 -0.0307 -0.3028  0.0813
  446loPI   GL1 7125   3.990  18.274   9.195  0.2068  0.0748  0.2281
  446loPI   GL2 7126   3.789  18.465   8.896 -0.2194  0.4475 -0.0378
  446loPI   C1A 7127   3.865  17.964   8.834 -0.1685 -0.1198 -0.4239
  446loPI   C2A 7128   3.880  17.772   8.452 -0.4717 -0.5599 -0.2464
  446loPI   C3A 7129   3.834  17.596   8.026  0.2785  0.0667 -0.0180
  446loPI   C4A 7130   3.490  17.525   7.675  0.2438  0.4630 -0.0930
  446loPI   C5A 7131   3.063  17.615   7.460  0.2875  0.1706 -0.1541
  446loPI   C6A 7132   2.800  17.952   7.674 -0.1054  0.0781  0.0428
  446loPI   C1B 7133   3.626  18.610   8.510  0.3334  0.2140 -0.1360
  446loPI   C2B 7134   3.551  18.575   8.141 -0.3793 -0.2525 -0.2879
  446loPI   C3B 7135   3.558  18.546   7.663 -0.0934  0.4864  0.1049
  446loPI   C4B 7136   3.476  18.402   7.112  0.1718  0.1713 -0.0772
  447loPI    C1 7137  11.161   4.817  10.430  0.2323  0.0237 -0.0145
  447loPI    C2 7138  10.905   4.764  10.732  0.1131  0.0181 -0.1158
  447loPI    C3 7139  11.245   4.555  10.720  0.1122  0.0090  0.0077
  447loPI   PO4 7140  11.044   4.773  10.191 -0.1604 -0.0363  0.2348
  447loPI   GL1 7141  11.171   4.758   9.760 -0.4565 -0.1628 -0.2558
  447loPI   GL2 7142  10.870   4.820   9.679  0.1527  0.0513 -0.1390
  447loPI   C1A 7143  11.265   5.119   9.526  0.0115  0.1206 -0.1848
  447loPI   C2A 7144  11.266   5.381   9.193 -0.0112 -0.2162  0.2545
  447loPI   C3A 7145  11.507   5.614   8.789 -0.0068  0.3081  0.2801
  447loPI   C4A 7146  11.532   5.719   8.354  0.0868 -0.3326 -0.1549
  447loPI   C5A 7147  11.346   5.963   7.976  0.1422  0.2268  0.1985
  447loPI   C6A 7148  11.440   6.039   7.550 -0.2925 -0.1070  0.6161
  447loPI   C1B 7149  10.962   4.744   9.270  0.3042  0.3043 -0.0350
  447loPI   C2B 7150  11.307   4.908   8.967 -0.1319 -0.0748 -0.0837
  447loPI   C3B 7151  11.472   4.757   8.557 -0.2259 -0.2400  0.0922
  447loPI   C4B 7152  11.369   4.447   8.173 -0.0240  0.3915  0.0107
  448loPI    C1 7153  12.191   4.708  10.407  0.3600 -0.3317 -0.0620
  448loPI    C2 7154  12.148   4.414  10.676 -0.0668 -0.0266  0.2152
  448loPI    C3 7155  12.463   4.659  10.697  0.1606 -0.3070  0.1322
  448loPI   PO4 7156  12.133   4.621  10.186  0.1702  0.1308  0.2059
  448loPI   GL1 7157  11.900   4.356   9.850  0.0054 -0.2422 -0.1441
  448loPI   GL2 7158  11.859   4.045   9.720  0.0891 -0.3646 -0.2609
  448loPI   C1A 7159  12.145   4.414   9.471 -0.2420 -0.2734  0.1144
  448loPI   C2A 7160  12.322   4.328   9.059  0.0723  0.2182  0.0519
  448loPI   C3A 7161  12.369   4.312   8.661  0.1382  0.1523 -0.1660
  448loPI   C4A 7162  12.431   4.298   8.229  0.2819 -0.3033 -0.0464
  448loPI   C5A 7163  12.256   4.540   7.788  0.3878 -0.3751  0.1431
  448loPI   C6A 7164  11.854   4.621   7.621 -0.1001 -0.1656 -0.2879
  448loPI   C1B 7165  12.190   3.970   9.535  0.2899 -0.2819  0.0523
  448loPI   C2B 7166  12.567   3.999   9.451 -0.0140 -0.0252 -0.2259
  448loPI   C3B 7167  12.768   4.117   8.978  0.0917  0.0655 -0.2191
  448loPI   C4B 7168  12.942   4.265   8.569 -0.0885  0.0360  0.1334
  449loPI    C1 7169  15.750   5.763  10.644  0.1207 -0.1448 -0.2266
  449loPI    C2 7170  15.626   5.391  10.723  0.1788 -0.0836  0.1762
  449loPI    C3 7171  15.518   5.693  10.962  0.1390  0.1599 -0.1426
  449loPI   PO4 7172  16.010   5.662  10.520 -0.0641  0.0319 -0.1184
  449loPI   GL1 7173  16.183   5.449  10.064 -0.1653  0.1531 -0.1265
  449loPI   GL2 7174  16.421   5.549   9.831 -0.1157  0.1116 -0.3704
  449loPI   C1A 7175  15.938   5.529   9.777 -0.0534  0.3228  0.1860
  449loPI   C2A 7176  15.985   5.719   9.308 -0.0221 -0.0523  0.0457
  449loPI   C3A 7177  15.961   5.686   8.818  0.2690  0.0836  0.3085
  449loPI   C4A 7178  15.898   5.915   8.402 -0.0074 -0.0551 -0.7211
  449loPI   C5A 7179  15.753   6.111   8.154  0.1006 -0.2957  0.0068
  449loPI   C6A 7180  15.758   6.051   7.774 -0.0071  0.0222  0.1428
  449loPI   C1B 7181  16.796   5.561   9.532 -0.0122  0.0508 -0.1044
  449loPI   C2B 7182  16.997   5.444   9.188  0.0831 -0.4084  0.0544
  449loPI   C3B 7183  17.157   5.416   8.897 -0.2044 -0.2050  0.2668
  449loPI   C4B 7184  17.081   5.078   8.560 -0.1334 -0.6713 -0.5682
  450loPI    C1 7185  14.042  12.848  10.146 -0.3785 -0.1351 -0.0404
  450loPI    C2 7186  14.172  12.763  10.514  0.2767 -0.0254 -0.2329
  450loPI    C3 7187  14.030  13.128  10.432  0.0124 -0.0873 -0.0657
  450loPI   PO4 7188  14.218  12.831   9.946  0.0408  0.2925  0.0796
  450loPI   GL1 7189  14.225  12.669   9.577 -0.1851  0.4601  0.1468
  450loPI   GL2 7190  14.495  12.785   9.360 -0.0564 -0.0553  0.0409
  450loPI   C1A 7191  13.997  12.723   9.083 -0.2048  0.0374 -0.1748
  450loPI   C2A 7192  13.985  13.024   8.848  0.0541 -0.1047 -0.0563
  450loPI   C3A 7193  13.861  13.048   8.487  0.0431 -0.3248 -0.1793
  450loPI   C4A 7194  13.922  12.682   8.167  0.0386 -0.1924 -0.4187
  450loPI   C5A 7195  14.187  12.373   8.129  0.0915  0.0760 -0.0336
  450loPI   C6A 7196  14.283  12.093   8.441  0.0226  0.4261 -0.0250
  450loPI   C1B 7197  14.464  12.929   8.940  0.0934  0.1182  0.0889
  450loPI   C2B 7198  14.356  13.201   8.555 -0.2098  0.1291  0.2660
  450loPI   C3B 7199  14.430  13.386   8.161  0.0728 -0.0586  0.2404
  450loPI   C4B 7200  14.682  13.552   7.763 -0.2183 -0.0487  0.0270
  451loPI    C1 7201  10.181   0.283   9.735  0.1334  0.0847 -0.1596
  451loPI    C2 7202  10.360   0.599   9.903  0.0559 -0.0162  0.1196
  451loPI    C3 7203  10.517   0.234   9.947 -0.0591 -0.0663  0.1178
  451loPI   PO4 7204  10.130   0.390   9.378 -0.0143 -0.0433  0.3508
  451loPI   GL1 7205  10.170   0.620   8.992 -0.1021 -0.2041 -0.1140
  451loPI   GL2 7206   9.835   0.451   8.939 -0.1063 -0.2757 -0.1649
  451loPI   C1A 7207  10.104   0.910   8.663 -0.3210 -0.2092 -0.2997
  451loPI   C2A 7208  10.165   1.272   8.541 -0.1450 -0.1237 -0.3100
  451loPI   C3A 7209  10.170   1.472   8.186 -0.3302  0.0576  0.1303
  451loPI   C4A 7210  10.262   1.707   7.800 -0.0012  0.2938  0.0272
  451loPI   C5A 7211  10.563   1.751   7.517  0.0752  0.0516 -0.4614
  451loPI   C6A 7212  10.870   1.782   7.143 -0.0906  0.2097  0.0460
  451loPI   C1B 7213  10.066   0.439   8.526  0.1376 -0.0674  0.2566
  451loPI   C2B 7214   9.945   0.316   8.116 -0.2237  0.1265 -0.0375
  451loPI   C3B 7215   9.930  -0.100   8.014  0.1539 -0.2677  0.1305
  451loPI   C4B 7216   9.977  -0.417   8.072 -0.2238 -0.0117  0.1836
  452loPI    C1 7217   8.270   0.491  10.048  0.1122  0.1603  0.1305
  452loPI    C2 7218   8.269   0.177   9.800 -0.3306  0.5031 -0.3226
  452loPI    C3 7219   8.036   0.176  10.126 -0.0503  0.2168 -0.1175
  452loPI   PO4 7220   8.252   0.754   9.838  0.2324 -0.0221 -0.0730
  452loPI   GL1 7221   8.239   0.723   9.371  0.1296 -0.3398 -0.0652
  452loPI   GL2 7222   8.191   0.530   9.379  0.1333  0.1430  0.2797
  452loPI   C1A 7223   8.213   0.876   8.955  0.3859  0.0341 -0.1855
  452loPI   C2A 7224   8.374   0.900   8.409 -0.0576 -0.3411  0.0193
  452loPI   C3A 7225   8.302   0.812   8.092 -0.2774 -0.1534  0.1537
  452loPI   C4A 7226   8.332   0.706   7.641  0.3269  0.1841 -0.1144
  452loPI   C5A 7227   8.521   0.719   7.176 -0.2624 -0.0669 -0.0202
  452loPI   C6A 7228   8.904   0.764   7.082  0.1986  0.1291 -0.0633
  452loPI   C1B 7229   8.307   0.345   8.932  0.3771 -0.1370 -0.2125
  452loPI   C2B 7230   8.300   0.389   8.553 -0.4318 -0.0981 -0.2109
  452loPI   C3B 7231   8.119   0.277   8.046  0.2317 -0.0407  0.5201
  452loPI   C4B 7232   8.173   0.222   7.584  0.2556 -0.1667 -0.0061
  453loPI    C1 7233   0.263   6.057   9.979  0.0671 -0.0284 -0.0485
  453loPI    C2 7234   0.487   6.375   9.889  0.1610 -0.1323 -0.1862
  453loPI    C3 7235   0.335   6.336  10.257  0.2166  0.0300 -0.1448
  453loPI   PO4 7236   0.361   5.834   9.869 -0.3157  0.0714 -0.2381
  453loPI   GL1 7237   0.132   5.732   9.561 -0.1011  0.0767  0.2616
  453loPI   GL2 7238   0.030   6.041   9.516  0.0876 -0.1002 -0.0752
  453loPI   C1A 7239  -0.042   5.317   9.309 -0.1156  0.1850  0.0209
  453loPI   C2A 7240  -0.034   5.237   8.942  0.1090  0.0797 -0.2264
  453loPI   C3A 7241  -0.060   5.085   8.550  0.0662  0.1198  0.0350
  453loPI   C4A 7242  -0.086   5.034   8.153 -0.1558 -0.4997 -0.2067
  453loPI   C5A 7243  -0.088   5.118   7.787 -0.1989 -0.0151  0.0212
  453loPI   C6A 7244  -0.014   5.131   7.367  0.2331  0.1988 -0.1270
  453loPI   C1B 7245   0.411   6.217   9.275  0.1129 -0.0941 -0.5183
  453loPI   C2B 7246   0.483   6.354   8.832 -0.0298 -0.0169 -0.2387
  453loPI   C3B 7247   0.609   6.571   8.511  0.1364  0.2837  0.1766
  453loPI   C4B 7248   0.335   6.586   8.100  0.1611  0.0567 -0.1337
  454loPI    C1 7249   7.874  11.097   9.885 -0.0440  0.0022  0.1296
  454loPI    C2 7250   7.744  10.722   9.937 -0.2974  0.0913  0.1512
  454loPI    C3 7251   7.756  10.974  10.247 -0.3737  0.1770  0.0850
  454loPI   PO4 7252   7.816  11.082   9.545 -0.1129 -0.2536 -0.0835
  454loPI   GL1 7253   7.732  10.799   9.205  0.0123  0.4099 -0.0107
  454loPI   GL2 7254   7.420  10.803   9.080 -0.2886 -0.0886 -0.0168
  454loPI   C1A 7255   7.963  10.763   8.848  0.1630  0.1295 -0.1707
  454loPI   C2A 7256   7.902  10.893   8.447 -0.0064 -0.5768 -0.0928
  454loPI   C3A 7257   7.814  11.042   8.059 -0.1292  0.1086  0.1633
  454loPI   C4A 7258   7.635  10.940   7.669  0.0710 -0.0116  0.1911
  454loPI   C5A 7259   7.544  10.802   7.357 -0.0948 -0.1533  0.0173
  454loPI   C6A 7260   7.278  10.614   7.051 -0.0208 -0.0353  0.4327
  454loPI   C1B 7261   7.332  10.882   8.657  0.0734 -0.0680  0.0522
  454loPI   C2B 7262   7.412  10.847   8.261 -0.5014  0.1501 -0.0318
  454loPI   C3B 7263   7.709  10.525   8.041  0.1019 -0.0362 -0.0065
  454loPI   C4B 7264   7.870  10.470   7.638 -0.2938 -0.0347 -0.2351
  455loPI    C1 7265   5.491   8.023   9.868 -0.1905 -0.1592  0.2500
  455loPI    C2 7266   5.786   8.006  10.138  0.1722  0.1387 -0.1146
  455loPI    C3 7267   5.507   8.291  10.165  0.0542  0.0061  0.0915
  455loPI   PO4 7268   5.595   8.012   9.668 -0.1883  0.3027 -0.0566
  455loPI   GL1 7269   5.432   8.050   9.255  0.2449 -0.1804  0.1995
  455loPI   GL2 7270   5.355   8.303   9.123  0.1052 -0.0700 -0.3563
  455loPI   C1A 7271   5.086   7.878   9.002 -0.1579 -0.1733 -0.3338
  455loPI   C2A 7272   5.013   7.522   8.740  0.0979 -0.1539  0.2420
  455loPI   C3A 7273   5.030   7.617   8.293  0.3282  0.1186 -0.0080
  455loPI   C4A 7274   4.827   7.746   7.900 -0.1017 -0.1938  0.2301
  455loPI   C5A 7275   4.459   7.862   7.693  0.0670 -0.0989 -0.1940
  455loPI   C6A 7276   4.136   8.020   7.321  0.0796  0.3803 -0.3753
  455loPI   C1B 7277   5.428   8.515   8.668 -0.1658  0.2281 -0.1264
  455loPI   C2B 7278   5.451   8.452   8.248  0.1418 -0.2825 -0.3595
  455loPI   C3B 7279   5.490   8.547   7.854  0.0317  0.1551  0.2203
  455loPI   C4B 7280   5.319   8.465   7.429 -0.2299 -0.2685 -0.1194
  456loPI    C1 7281   3.162   7.955   9.859  0.0792 -0.0293  0.0679
  456loPI    C2 7282   3.433   8.159   9.648  0.1890 -0.1643  0.0762
  456loPI    C3 7283   3.448   8.162  10.047 -0.0781  0.1719  0.0887
  456loPI   PO4 7284   2.844   8.030   9.789  0.0043  0.1362  0.3059
  456loPI   GL1 7285   2.677   8.351   9.435  0.2971 -0.0943  0.0084
  456loPI   GL2 7286   2.462   8.471   9.330  0.2293  0.2785  0.0688
  456loPI   C1A 7287   2.891   8.584   9.064  0.0991  0.0371 -0.1788
  456loPI   C2A 7288   2.869   8.543   8.586 -0.1265 -0.1361 -0.3686
  456loPI   C3A 7289   2.813   8.739   8.130 -0.2603 -0.2919 -0.0511
  456loPI   C4A 7290   2.610   8.789   7.719  0.0872 -0.0191  0.0571
  456loPI   C5A 7291   2.432   9.023   7.412 -0.0868  0.2832 -0.1433
  456loPI   C6A 7292   2.258   8.845   7.150 -0.2810 -0.0350 -0.1222
  456loPI   C1B 7293   2.472   8.309   8.936  0.1854  0.1785 -0.0552
  456loPI   C2B 7294   2.467   8.316   8.444  0.3142 -0.4995 -0.1683
  456loPI   C3B 7295   2.395   8.480   8.007 -0.0223 -0.0270  0.1224
  456loPI   C4B 7296   2.196   8.516   7.537  0.3327  0.4385 -0.3820
  457loPI    C1 7297  14.542   4.472  10.474 -0.1522 -0.0662 -0.0543
  457loPI    C2 7298  14.182   4.485  10.648 -0.1030 -0.1864  0.0580
  457loPI    C3 7299  14.467   4.744  10.758 -0.1965 -0.0019 -0.1269
  457loPI   PO4 7300  14.507   4.486  10.246  0.3982  0.1834  0.0846
  457loPI   GL1 7301  14.609   4.674   9.849 -0.0920  0.2650 -0.0390
  457loPI   GL2 7302  14.401   4.317   9.780  0.0568 -0.3086 -0.0636
  457loPI   C1A 7303  14.446   4.711   9.383 -0.0360  0.0559 -0.1875
  457loPI   C2A 7304  14.439   4.562   8.995 -0.1291 -0.0841 -0.2484
  457loPI   C3A 7305  14.448   4.429   8.520  0.4718  0.2134 -0.2628
  457loPI   C4A 7306  14.406   4.200   8.070 -0.1044 -0.2233  0.1216
  457loPI   C5A 7307  14.601   4.222   7.621 -0.1643 -0.0312  0.0248
  457loPI   C6A 7308  14.786   3.860   7.323 -0.1760  0.1497 -0.1038
  457loPI   C1B 7309  14.076   4.427   9.471 -0.2814 -0.2039 -0.1771
  457loPI   C2B 7310  13.929   4.403   9.002 -0.0711  0.0342  0.1650
  457loPI   C3B 7311  13.931   4.220   8.558  0.1977  0.1798 -0.0725
  457loPI   C4B 7312  13.907   4.397   8.173  0.0964  0.1840 -0.3400
  458loPI    C1 7313  11.128   5.339  10.297  0.1647  0.2474 -0.0285
  458loPI    C2 7314  10.852   5.221  10.032  0.4448  0.1691 -0.2917
  458loPI    C3 7315  10.784   5.179  10.424  0.1924 -0.0920 -0.3599
  458loPI   PO4 7316  11.389   5.261  10.178  0.0624 -0.1840 -0.3341
  458loPI   GL1 7317  11.712   5.227   9.772 -0.1942 -0.1806 -0.0648
  458loPI   GL2 7318  11.934   4.972   9.887  0.0940 -0.0721  0.1752
  458loPI   C1A 7319  11.675   5.149   9.334 -0.0094 -0.0352 -0.0071
  458loPI   C2A 7320  11.776   5.132   8.857 -0.0343  0.0487 -0.0354
  458loPI   C3A 7321  11.674   5.186   8.445  0.2426  0.1693  0.1830
  458loPI   C4A 7322  11.746   5.421   7.981  0.3042  0.1093  0.0146
  458loPI   C5A 7323  11.809   5.886   7.798 -0.0794  0.0977 -0.0409
  458loPI   C6A 7324  11.962   6.204   7.555  0.0843  0.1525 -0.0949
  458loPI   C1B 7325  11.723   4.715   9.576 -0.0693 -0.2100 -0.0749
  458loPI   C2B 7326  11.490   4.666   9.332  0.0144  0.2289  0.1811
  458loPI   C3B 7327  11.656   4.443   9.075  0.0614 -0.0466  0.1906
  458loPI   C4B 7328  11.897   4.296   8.855 -0.1518  0.3681 -0.0304
  459loPI    C1 7329   4.658  14.943  10.575  0.0631  0.1118  0.3271
  459loPI    C2 7330   4.938  14.658  10.579 -0.0820 -0.0366  0.1343
  459loPI    C3 7331   4.561  14.566  10.485 -0.1464  0.2063  0.1477
  459loPI   PO4 7332   4.809  15.095  10.429  0.2985 -0.1132  0.2444
  459loPI   GL1 7333   5.058  15.130   9.949 -0.0984 -0.0343  0.0418
  459loPI   GL2 7334   4.882  15.312   9.905  0.0196  0.1349  0.2004
  459loPI   C1A 7335   5.084  14.904   9.734 -0.3465 -0.1630 -0.1938
  459loPI   C2A 7336   5.262  14.809   9.355 -0.0739 -0.0877  0.6055
  459loPI   C3A 7337   4.955  14.725   9.056 -0.1362  0.4637 -0.0676
  459loPI   C4A 7338   4.495  14.656   8.938 -0.3155  0.2890  0.1145
  459loPI   C5A 7339   4.227  14.432   8.781  0.0349 -0.3907 -0.0619
  459loPI   C6A 7340   3.915  14.111   8.818  0.2770 -0.1313  0.1923
  459loPI   C1B 7341   4.635  14.898   9.618 -0.1244  0.1424  0.0464
  459loPI   C2B 7342   4.482  14.545   9.450 -0.1246  0.0969  0.1843
  459loPI   C3B 7343   4.297  14.289   9.263 -0.1381  0.2255 -0.1450
  459loPI   C4B 7344   4.364  13.929   9.044  0.0054 -0.1451 -0.1102
  460loPI    C1 7345   7.780   1.618   9.599 -0.1333  0.1982 -0.1154
  460loPI    C2 7346   7.830   1.503   9.979  0.0846  0.3245 -0.1043
  460loPI    C3 7347   7.509   1.381   9.773  0.1424 -0.0303  0.0089
  460loPI   PO4 7348   8.017   1.662   9.469  0.1809 -0.0800 -0.1824
  460loPI   GL1 7349   8.107   1.886   9.172 -0.1148  0.6617 -0.3553
  460loPI   GL2 7350   8.409   1.902   9.041 -0.2196 -0.3533  0.3865
  460loPI   C1A 7351   8.000   1.735   8.812 -0.1627  0.0566 -0.0034
  460loPI   C2A 7352   7.802   1.807   8.344  0.0701  0.1322 -0.0326
  460loPI   C3A 7353   7.785   1.677   7.971 -0.1629 -0.1507 -0.0069
  460loPI   C4A 7354   7.508   1.782   7.714  0.0151  0.1676 -0.0255
  460loPI   C5A 7355   7.164   1.687   7.458 -0.1537  0.1859  0.0327
  460loPI   C6A 7356   7.186   1.839   6.932  0.2167 -0.1034  0.1365
  460loPI   C1B 7357   8.432   1.866   8.622 -0.2568  0.1247  0.1166
  460loPI   C2B 7358   8.555   1.556   8.236  0.0504  0.1789 -0.0600
  460loPI   C3B 7359   8.729   1.857   8.021 -0.2930  0.2177  0.1857
  460loPI   C4B 7360   9.001   1.928   7.628 -0.0155 -0.1364 -0.1733
  461loPI    C1 7361  14.433   0.568  10.151  0.0217  0.0212 -0.0676
  461loPI    C2 7362  14.362   0.954  10.231 -0.3172 -0.0293 -0.1113
  461loPI    C3 7363  14.076   0.681  10.294 -0.2286 -0.2151 -0.4860
  461loPI   PO4 7364  14.529   0.534   9.958 -0.2522  0.1381  0.2884
  461loPI   GL1 7365  14.765   0.420   9.600  0.2518 -0.0201  0.1605
  461loPI   GL2 7366  14.435   0.634   9.389  0.2326  0.2266 -0.0074
  461loPI   C1A 7367  14.879   0.083   9.288 -0.0761 -0.2296 -0.0127
  461loPI   C2A 7368  14.817   0.063   8.854 -0.0681  0.1070  0.1763
  461loPI   C3A 7369  14.820   0.077   8.467 -0.0455  0.0058 -0.0201
  461loPI   C4A 7370  14.478   0.315   8.228 -0.0434 -0.0668 -0.2444
  461loPI   C5A 7371  14.129   0.491   8.004 -0.3316 -0.0362  0.0606
  461loPI   C6A 7372  14.086   0.483   7.594  0.0810 -0.1537  0.0015
  461loPI   C1B 7373  14.741   0.521   9.077  0.0244  0.1025 -0.3752
  461loPI   C2B 7374  14.692   0.630   8.642 -0.1264 -0.2246 -0.2990
  461loPI   C3B 7375  14.454   0.810   8.345 -0.0919 -0.2640 -0.0524
  461loPI   C4B 7376  14.366   1.235   8.134  0.1803  0.0065 -0.0062
  462loPI    C1 7377   7.407   0.885   9.759  0.0944  0.2399 -0.2885
  462loPI    C2 7378   7.028   0.776   9.689  0.1294  0.0997 -0.2624
  462loPI    C3 7379   7.228   0.618   9.997  0.2466  0.0852 -0.3449
  462loPI   PO4 7380   7.541   0.930   9.470  0.3837  0.2749 -0.0679
  462loPI   GL1 7381   7.510   1.338   9.274  0.0400  0.2862 -0.1341
  462loPI   GL2 7382   7.357   1.371   9.218  0.2188  0.0065 -0.1574
  462loPI   C1A 7383   7.739   1.300   8.873  0.1176  0.0007  0.1149
  462loPI   C2A 7384   7.559   1.147   8.522  0.1819 -0.3750  0.1989
  462loPI   C3A 7385   7.481   1.272   8.036 -0.1236 -0.1506  0.0963
  462loPI   C4A 7386   7.402   1.256   7.622 -0.0728  0.0854 -0.3572
  462loPI   C5A 7387   7.618   1.072   7.249  0.0926 -0.0172  0.1547
  462loPI   C6A 7388   7.844   1.091   6.853  0.1133  0.2628 -0.0037
  462loPI   C1B 7389   7.358   1.574   8.720 -0.3214  0.1492 -0.2591
  462loPI   C2B 7390   7.246   1.638   8.287  0.1814 -0.5144 -0.3567
  462loPI   C3B 7391   7.030   1.954   7.983 -0.2672  0.0461  0.0145
  462loPI   C4B 7392   6.801   2.082   7.572  0.0354 -0.0346  0.2446
  463loPI    C1 7393  11.257   9.158  10.077  0.0633 -0.1341  0.2282
  463loPI    C2 7394  10.924   9.370  10.143  0.0713 -0.0831  0.1067
  463loPI    C3 7395  11.243   9.419  10.379  0.1014  0.1020  0.0297
  463loPI   PO4 7396  11.231   9.206   9.699 -0.0842  0.1155 -0.3824
  463loPI   GL1 7397  11.236   9.230   9.243 -0.0451  0.1990 -0.0780
  463loPI   GL2 7398  10.981   9.055   9.036 -0.3420 -0.2267 -0.1158
  463loPI   C1A 7399  11.440   8.938   8.904  0.0183  0.0230  0.1135
  463loPI   C2A 7400  11.387   8.727   8.440 -0.0747  0.3805  0.2130
  463loPI   C3A 7401  11.399   8.549   8.073  0.0752 -0.0369 -0.4216
  463loPI   C4A 7402  11.043   8.505   7.809 -0.0925  0.0150 -0.0397
  463loPI   C5A 7403  10.902   8.353   7.456  0.0612  0.0652  0.1854
  463loPI   C6A 7404  10.680   7.931   7.418 -0.2655 -0.2037  0.1478
  463loPI   C1B 7405  10.968   9.100   8.603 -0.2518  0.0309 -0.2162
  463loPI   C2B 7406  10.987   9.004   8.165 -0.0415  0.1244 -0.3115
  463loPI   C3B 7407  11.169   9.190   7.794 -0.1726  0.1353 -0.3505
  463loPI   C4B 7408  11.571   9.406   7.702  0.1545 -0.3596  0.1126
  464loPI    C1 7409   4.584  12.203  10.327  0.0352 -0.0786 -0.2265
  464loPI    C2 7410   4.962  12.108  10.237  0.0619 -0.1718 -0.0199
  464loPI    C3 7411   4.805  11.995  10.588 -0.0928  0.0429 -0.0185
  464loPI   PO4 7412   4.417  12.173  10.084  0.1648  0.1783  0.0727
  464loPI   GL1 7413   4.294  12.214   9.686  0.3719  0.0498  0.3728
  464loPI   GL2 7414   4.427  12.418   9.487 -0.0918  0.1169 -0.2854
  464loPI   C1A 7415   3.971  12.030   9.403 -0.0362  0.3530  0.0608
  464loPI   C2A 7416   4.027  11.911   8.983  0.0916  0.1186 -0.1660
  464loPI   C3A 7417   4.172  11.771   8.590  0.2489 -0.0729  0.1518
  464loPI   C4A 7418   4.376  11.807   8.295 -0.0052 -0.0615  0.0023
  464loPI   C5A 7419   4.699  11.598   8.021 -0.2371 -0.1051 -0.0371
  464loPI   C6A 7420   4.654  11.268   7.619 -0.0793  0.0957  0.1221
  464loPI   C1B 7421   4.280  12.396   9.121 -0.1778 -0.1614 -0.0729
  464loPI   C2B 7422   4.267  12.277   8.752 -0.1493  0.0919  0.2244
  464loPI   C3B 7423   4.160  12.299   8.358  0.0419 -0.2659 -0.0112
  464loPI   C4B 7424   4.110  12.115   7.938 -0.2598 -0.1493  0.2467
  465loPI    C1 7425   7.938   5.716   9.655  0.0158 -0.1152 -0.0564
  465loPI    C2 7426   7.805   5.560   9.999 -0.0917  0.0970  0.0000
  465loPI    C3 7427   8.196   5.554   9.915 -0.0837 -0.1105  0.0463
  465loPI   PO4 7428   7.687   5.838   9.604  0.2037 -0.2953 -0.1657
  465loPI   GL1 7429   7.664   6.107   9.217 -0.0465 -0.0606 -0.1688
  465loPI   GL2 7430   7.308   6.152   9.219 -0.4257  0.0959  0.0105
  465loPI   C1A 7431   7.791   5.981   8.772 -0.0645  0.0112  0.1904
  465loPI   C2A 7432   7.870   5.903   8.299 -0.0517  0.1198  0.0912
  465loPI   C3A 7433   8.111   5.905   7.898  0.1116 -0.1136  0.1199
  465loPI   C4A 7434   8.406   5.982   7.588  0.3713  0.4512 -0.0767
  465loPI   C5A 7435   8.698   5.878   7.373 -0.1500 -0.0500  0.0111
  465loPI   C6A 7436   9.101   5.688   7.445 -0.0171  0.1017 -0.0370
  465loPI   C1B 7437   7.264   5.839   8.880  0.2536  0.0036 -0.1671
  465loPI   C2B 7438   7.362   5.961   8.425  0.2908  0.1555  0.0527
  465loPI   C3B 7439   7.443   5.699   8.142 -0.2984 -0.0579 -0.2069
  465loPI   C4B 7440   7.446   5.568   7.717 -0.0530  0.1852  0.1610
  466loPI    C1 7441  17.720  17.546  10.344 -0.0234 -0.0833  0.0234
  466loPI    C2 7442  17.570  17.356  10.663  0.1814 -0.1513  0.0817
  466loPI    C3 7443  17.755  17.707  10.709 -0.3124  0.1363 -0.0425
  466loPI   PO4 7444  17.885  17.233  10.197 -0.0440 -0.2553 -0.4933
  466loPI   GL1 7445  18.259  17.209   9.803  0.1025  0.1153  0.1139
  466loPI   GL2 7446  18.037  17.174   9.672 -0.3758  0.0289 -0.2773
  466loPI   C1A 7447  18.379  17.491   9.474  0.0687 -0.0669  0.0634
  466loPI   C2A 7448  18.342  17.520   8.967 -0.1497  0.4333 -0.2562
  466loPI   C3A 7449  18.261  17.473   8.628  0.3260  0.1698  0.1733
  466loPI   C4A 7450  18.338  17.543   8.197  0.3500  0.4652 -0.2212
  466loPI   C5A 7451  18.438  17.829   7.850  0.0928  0.0235  0.0205
  466loPI   C6A 7452  18.649  17.838   7.498 -0.0926 -0.0048  0.0508
  466loPI   C1B 7453  18.189  17.040   9.271  0.2140 -0.3014  0.0073
  466loPI   C2B 7454  18.505  17.042   8.973 -0.1225  0.2413 -0.5692
  466loPI   C3B 7455  18.776  17.226   8.625  0.0669 -0.0077  0.1503
  466loPI   C4B 7456  18.718  17.273   8.213 -0.1699 -0.0696  0.0542
  467loPI    C1 7457  14.168  16.099  10.087 -0.1238  0.0415  0.0045
  467loPI    C2 7458  14.317  15.785  10.285  0.2782  0.0322 -0.2995
  467loPI    C3 7459  14.351  16.152  10.439 -0.1924 -0.0645  0.0565
  467loPI   PO4 7460  13.971  16.022  10.022  0.0202  0.0876 -0.2191
  467loPI   GL1 7461  13.843  15.983   9.602  0.1227 -0.2246  0.0519
  467loPI   GL2 7462  13.715  15.767   9.351 -0.3141  0.2000 -0.3674
  467loPI   C1A 7463  14.144  16.183   9.190 -0.0420 -0.0450 -0.3628
  467loPI   C2A 7464  14.303  16.525   9.011 -0.1703  0.0068 -0.1677
  467loPI   C3A 7465  14.304  16.493   8.633 -0.1672  0.3138  0.2999
  467loPI   C4A 7466  14.577  16.817   8.400 -0.2151 -0.0425  0.0490
  467loPI   C5A 7467  14.495  17.057   8.025  0.2864 -0.0528 -0.0979
  467loPI   C6A 7468  14.653  17.486   7.902 -0.1335 -0.2906  0.0339
  467loPI   C1B 7469  13.735  16.020   9.026 -0.3002 -0.2875  0.0175
  467loPI   C2B 7470  13.897  16.204   8.712  0.1909  0.1951  0.0609
  467loPI   C3B 7471  13.949  16.258   8.208 -0.0666  0.1219  0.1236
  467loPI   C4B 7472  13.885  16.540   7.917 -0.3538 -0.0406  0.0518
  468loPI    C1 7473   8.768   9.841   9.780 -0.0579  0.1281  0.0281
  468loPI    C2 7474   8.473   9.812   9.511 -0.0287 -0.2102  0.0279
  468loPI    C3 7475   8.386   9.867   9.898 -0.0852 -0.1466  0.0066
  468loPI   PO4 7476   8.898  10.045   9.658  0.3587 -0.0840  0.2736
  468loPI   GL1 7477   8.857  10.125   9.283  0.2340  0.2872  0.3309
  468loPI   GL2 7478   9.176  10.153   9.228  0.0438  0.2770 -0.2370
  468loPI   C1A 7479   8.761  10.170   8.863 -0.1310 -0.1646  0.1516
  468loPI   C2A 7480   8.753  10.168   8.389 -0.2246 -0.2168 -0.0327
  468loPI   C3A 7481   8.927  10.003   7.955  0.4400 -0.4145 -0.0172
  468loPI   C4A 7482   9.092   9.917   7.535 -0.2038  0.1336 -0.0835
  468loPI   C5A 7483   9.347  10.066   7.176 -0.4532  0.1614 -0.1406
  468loPI   C6A 7484   9.753  10.213   6.914 -0.1066 -0.2037  0.1548
  468loPI   C1B 7485   9.274  10.245   8.844 -0.0864 -0.2276 -0.0534
  468loPI   C2B 7486   9.246  10.286   8.300  0.0505  0.0438 -0.0353
  468loPI   C3B 7487   9.243  10.473   7.888  0.1562  0.1746 -0.0480
  468loPI   C4B 7488   9.127  10.448   7.494 -0.0564  0.1384 -0.0910
  469loPI    C1 7489  18.906  12.304   9.965 -0.0059  0.0108  0.0771
  469loPI    C2 7490  19.081  12.154  10.292 -0.1679 -0.3643 -0.0018
  469loPI    C3 7491  18.702  12.281  10.309 -0.1085 -0.1848  0.0050
  469loPI   PO4 7492  19.217  12.489   9.914  0.0732  0.2214  0.0112
  469loPI   GL1 7493  19.276  12.779   9.497 -0.2763  0.0040  0.0791
  469loPI   GL2 7494  19.389  13.154   9.596 -0.0882 -0.1008  0.0772
  469loPI   C1A 7495  19.087  12.711   9.185 -0.0985 -0.1523 -0.1476
  469loPI   C2A 7496  19.116  12.679   8.644  0.1424  0.1583 -0.0317
  469loPI   C3A 7497  18.981  12.750   8.208 -0.3439 -0.2224 -0.0923
  469loPI   C4A 7498  19.001  12.566   7.728  0.0716 -0.1389  0.2050
  469loPI   C5A 7499  19.245  12.353   7.532 -0.3882 -0.1816 -0.2116
  469loPI   C6A 7500  19.401  12.373   7.090 -0.2921 -0.0386 -0.0830
  469loPI   C1B 7501  19.320  13.122   9.121  0.0361 -0.1138 -0.4441
  469loPI   C2B 7502  19.306  13.151   8.660  0.1724 -0.0539 -0.0083
  469loPI   C3B 7503  19.592  13.124   8.204  0.0102  0.0822  0.0273
  469loPI   C4B 7504  19.331  13.047   7.757  0.2492 -0.1019  0.0659
  470loPI    C1 7505  16.957  17.916  10.272 -0.1264 -0.2586  0.1827
  470loPI    C2 7506  16.916  17.687  10.597  0.0011  0.1287  0.4799
  470loPI    C3 7507  17.281  17.789  10.469 -0.0471 -0.0562  0.1855
  470loPI   PO4 7508  16.913  17.819   9.973 -0.1581  0.1525 -0.1560
  470loPI   GL1 7509  16.900  17.983   9.540 -0.0811  0.1293 -0.0407
  470loPI   GL2 7510  16.921  18.289   9.642 -0.0837  0.0161  0.0334
  470loPI   C1A 7511  16.982  17.975   9.222  0.0316 -0.0738  0.0713
  470loPI   C2A 7512  16.770  17.850   8.780  0.0875 -0.5157  0.1586
  470loPI   C3A 7513  16.834  17.975   8.305 -0.1205  0.2419  0.0825
  470loPI   C4A 7514  16.725  17.865   7.943  0.2523  0.0633  0.2633
  470loPI   C5A 7515  16.480  17.561   7.715 -0.3611 -0.0586  0.0211
  470loPI   C6A 7516  16.088  17.728   7.587 -0.0840 -0.1745  0.1109
  470loPI   C1B 7517  16.601  18.347   9.413 -0.1209 -0.3487  0.0629
  470loPI   C2B 7518  16.592  18.355   8.964  0.1130 -0.2961  0.1778
  470loPI   C3B 7519  16.655  18.432   8.526  0.1605 -0.0705  0.2303
  470loPI   C4B 7520  16.667  18.403   8.055 -0.0912 -0.1140  0.0718
  471loPI    C1 7521  12.730  18.029  10.186 -0.0834  0.1413  0.0649
  471loPI    C2 7522  12.929  18.081  10.529  0.1366 -0.0721 -0.0277
  471loPI    C3 7523  12.539  17.994  10.536  0.0650  0.2464  0.1574
  471loPI   PO4 7524  12.819  17.887   9.928  0.2211  0.1229 -0.2033
  471loPI   GL1 7525  12.692  17.809   9.514 -0.0102  0.0324 -0.1302
  471loPI   GL2 7526  12.526  17.566   9.437 -0.0567  0.0371  0.2318
  471loPI   C1A 7527  12.942  17.965   9.103 -0.2860 -0.3180 -0.2694
  471loPI   C2A 7528  12.929  17.911   8.620 -0.3539  0.2803  0.0882
  471loPI   C3A 7529  13.127  17.980   8.331 -0.0081 -0.1101 -0.0090
  471loPI   C4A 7530  13.001  18.195   7.973 -0.2185  0.1173  0.0037
  471loPI   C5A 7531  13.298  18.244   7.765  0.4376 -0.2410 -0.0206
  471loPI   C6A 7532  13.648  18.376   8.004 -0.1627  0.0229 -0.3759
  471loPI   C1B 7533  12.559  17.582   9.027  0.1474 -0.1285  0.1199
  471loPI   C2B 7534  12.572  17.497   8.662  0.4739 -0.0067  0.1211
  471loPI   C3B 7535  12.688  17.495   8.238  0.1230 -0.2442  0.4077
  471loPI   C4B 7536  13.001  17.740   7.945  0.2085  0.5277 -0.0374
  472loPI    C1 7537   7.316   1.964  10.219  0.2295  0.0654  0.1501
  472loPI    C2 7538   7.125   1.654  10.386  0.0136  0.0373 -0.1399
  472loPI    C3 7539   7.228   1.971  10.609 -0.2224 -0.0203  0.0550
  472loPI   PO4 7540   7.481   1.896   9.900  0.0774 -0.5967 -0.2205
  472loPI   GL1 7541   7.633   2.034   9.462  0.0763 -0.2307 -0.0020
  472loPI   GL2 7542   7.589   1.840   9.170  0.2962 -0.1868  0.0999
  472loPI   C1A 7543   7.606   2.468   9.179  0.1318 -0.1536 -0.3459
  472loPI   C2A 7544   7.783   2.621   8.725  0.2031  0.4444  0.2214
  472loPI   C3A 7545   7.730   2.745   8.385  0.3527 -0.3446 -0.2064
  472loPI   C4A 7546   7.887   2.916   7.894 -0.2188  0.0189 -0.0586
  472loPI   C5A 7547   7.794   3.078   7.558  0.0877  0.0060 -0.1359
  472loPI   C6A 7548   7.622   3.388   7.328  0.0450 -0.1686 -0.0193
  472loPI   C1B 7549   7.569   2.015   8.791 -0.1284  0.1159  0.2682
  472loPI   C2B 7550   7.500   2.209   8.449 -0.1117  0.3612 -0.0767
  472loPI   C3B 7551   7.491   2.168   8.018 -0.1485  0.1790 -0.1755
  472loPI   C4B 7552   7.233   2.246   7.573  0.1436  0.1529  0.0799
  473loPI    C1 7553  13.701   4.017  10.562  0.0698  0.0520 -0.2139
  473loPI    C2 7554  13.781   4.249  10.878 -0.3266 -0.0473 -0.0343
  473loPI    C3 7555  13.730   3.855  10.927  0.1776 -0.1553 -0.3128
  473loPI   PO4 7556  13.874   4.201  10.315 -0.1119  0.0504  0.0550
  473loPI   GL1 7557  13.773   4.287   9.843 -0.1590 -0.2489  0.1378
  473loPI   GL2 7558  13.487   4.172   9.749  0.3616  0.1662 -0.3300
  473loPI   C1A 7559  13.626   4.589   9.526  0.0359 -0.2546  0.1180
  473loPI   C2A 7560  13.548   4.650   9.134  0.3017  0.2399 -0.4761
  473loPI   C3A 7561  13.595   5.044   8.905  0.3947 -0.3439 -0.0650
  473loPI   C4A 7562  13.764   5.176   8.478  0.0285 -0.2167  0.1243
  473loPI   C5A 7563  13.898   4.968   8.229  0.2396 -0.0728  0.2033
  473loPI   C6A 7564  14.267   4.784   8.212  0.3907 -0.0027 -0.0352
  473loPI   C1B 7565  13.721   4.123   9.389  0.2070  0.0642  0.2386
  473loPI   C2B 7566  13.585   3.814   9.062  0.0520 -0.0953  0.0704
  473loPI   C3B 7567  13.649   3.686   8.611 -0.0075  0.0625 -0.2848
  473loPI   C4B 7568  13.556   3.749   8.172  0.0499 -0.3928 -0.1767
  474loPI    C1 7569   5.936  11.094  10.264 -0.0987 -0.1648  0.1117
  474loPI    C2 7570   6.313  11.119  10.394 -0.0381  0.1354 -0.1097
  474loPI    C3 7571   6.048  10.892  10.590  0.2961 -0.2126 -0.0484
  474loPI   PO4 7572   6.040  11.058   9.947  0.0784 -0.0121  0.2755
  474loPI   GL1 7573   6.119  11.001   9.563  0.3413 -0.3512  0.2666
  474loPI   GL2 7574   6.233  10.718   9.342  0.0469  0.0779 -0.0137
  474loPI   C1A 7575   6.466  11.157   9.372 -0.0610 -0.1039  0.0368
  474loPI   C2A 7576   6.487  11.252   8.941 -0.1051  0.1050 -0.0449
  474loPI   C3A 7577   6.657  11.294   8.557 -0.1838  0.1861  0.0987
  474loPI   C4A 7578   6.770  11.455   8.141 -0.0706 -0.2730 -0.1771
  474loPI   C5A 7579   7.003  11.669   7.976 -0.0027 -0.1046  0.0440
  474loPI   C6A 7580   6.942  11.938   7.838 -0.1368 -0.2526 -0.2019
  474loPI   C1B 7581   6.288  10.807   8.954 -0.2794 -0.2023  0.1818
  474loPI   C2B 7582   6.309  10.847   8.480  0.0125 -0.0296 -0.0722
  474loPI   C3B 7583   6.190  10.922   8.063  0.0312 -0.1925 -0.0589
  474loPI   C4B 7584   6.283  11.386   7.923 -0.0583 -0.2052 -0.3473
  475loPI    C1 7585  14.888  16.903   9.980  0.0330 -0.0844 -0.0113
  475loPI    C2 7586  15.250  16.764   9.882  0.0800 -0.1672  0.2708
  475loPI    C3 7587  15.187  16.918  10.246 -0.1507 -0.0868  0.1984
  475loPI   PO4 7588  14.792  16.727   9.810  0.0906 -0.2860  0.3224
  475loPI   GL1 7589  14.652  16.826   9.360 -0.1224  0.1549 -0.1416
  475loPI   GL2 7590  14.948  16.610   9.327 -0.1019  0.1230 -0.0448
  475loPI   C1A 7591  14.775  16.995   8.901 -0.3977  0.2436  0.0780
  475loPI   C2A 7592  15.137  17.304   8.750  0.0478  0.0751 -0.3565
  475loPI   C3A 7593  15.597  17.184   8.855  0.2198  0.0878 -0.2842
  475loPI   C4A 7594  15.858  17.301   8.494  0.2027  0.3664 -0.1133
  475loPI   C5A 7595  15.842  17.581   8.148 -0.1256  0.0531  0.2584
  475loPI   C6A 7596  15.654  17.583   7.807 -0.0022 -0.1017  0.1006
  475loPI   C1B 7597  14.849  16.518   8.914 -0.0754  0.2118  0.2146
  475loPI   C2B 7598  14.827  16.379   8.507 -0.1210 -0.1072 -0.0385
  475loPI   C3B 7599  15.098  16.573   8.215  0.1874  0.1356 -0.0529
  475loPI   C4B 7600  15.155  16.711   7.786 -0.1197 -0.5378  0.0290
  476loPI    C1 7601  18.314  12.753   9.969 -0.1334 -0.1328 -0.0643
  476loPI    C2 7602  18.537  13.085   9.980 -0.1186 -0.1498  0.1910
  476loPI    C3 7603  18.633  12.772  10.210 -0.1355 -0.3304 -0.0448
  476loPI   PO4 7604  18.306  12.640   9.806  0.1070  0.1535 -0.1826
  476loPI   GL1 7605  18.182  12.886   9.396 -0.0271 -0.0075 -0.2717
  476loPI   GL2 7606  18.498  12.994   9.460  0.3488  0.0509 -0.1589
  476loPI   C1A 7607  18.271  12.966   9.000 -0.2089  0.2295 -0.1535
  476loPI   C2A 7608  18.035  12.897   8.720  0.1647 -0.0372  0.0051
  476loPI   C3A 7609  17.903  12.915   8.309 -0.3098  0.0204  0.2011
  476loPI   C4A 7610  17.918  12.883   7.949 -0.1601 -0.1705  0.5196
  476loPI   C5A 7611  18.133  12.809   7.711 -0.1290 -0.2836 -0.0287
  476loPI   C6A 7612  18.292  12.678   7.236  0.1546  0.0819 -0.3012
  476loPI   C1B 7613  18.736  13.034   9.201 -0.1591  0.1028  0.0849
  476loPI   C2B 7614  18.882  13.112   8.879  0.1270 -0.3806  0.1031
  476loPI   C3B 7615  18.865  13.288   8.461  0.1067  0.0567  0.1468
  476loPI   C4B 7616  19.069  13.226   8.079  0.0376  0.0544 -0.1842
  477loPI    C1 7617   8.283  12.248  10.020 -0.3341 -0.0654 -0.1252
  477loPI    C2 7618   8.312  12.647  10.013  0.0525 -0.0849  0.1066
  477loPI    C3 7619   8.041  12.470  10.248 -0.0297  0.0368  0.1043
  477loPI   PO4 7620   8.256  12.124   9.809 -0.1482  0.0683 -0.1449
  477loPI   GL1 7621   8.370  11.810   9.494  0.0543  0.1491  0.0991
  477loPI   GL2 7622   8.096  12.013   9.304 -0.0199 -0.2709 -0.0200
  477loPI   C1A 7623   8.444  11.639   9.146  0.0861  0.5259 -0.0268
  477loPI   C2A 7624   8.725  11.639   8.768 -0.1843  0.0971 -0.1126
  477loPI   C3A 7625   8.591  11.577   8.344  0.0481  0.2789  0.0908
  477loPI   C4A 7626   8.641  11.740   7.980  0.2783  0.1663  0.4738
  477loPI   C5A 7627   8.620  11.666   7.592  0.0577  0.1085  0.0685
  477loPI   C6A 7628   8.359  11.479   7.266  0.0679 -0.0438 -0.0128
  477loPI   C1B 7629   8.096  12.113   8.925  0.2410 -0.1205  0.0030
  477loPI   C2B 7630   8.149  12.266   8.534  0.0798 -0.0710 -0.0146
  477loPI   C3B 7631   8.332  12.355   8.011  0.2319  0.0131  0.4849
  477loPI   C4B 7632   8.353  12.430   7.592  0.1237 -0.0750 -0.1524
  478loPI    C1 7633  16.889   9.775  10.003  0.0494 -0.0413 -0.1798
  478loPI    C2 7634  16.712  10.096  10.164  0.2669  0.0574 -0.1334
  478loPI    C3 7635  17.062   9.967  10.309  0.1051 -0.2980 -0.0470
  478loPI   PO4 7636  16.702   9.646  10.020  0.0255 -0.2925  0.7075
  478loPI   GL1 7637  16.502   9.481   9.476  0.2728  0.2754  0.1502
  478loPI   GL2 7638  16.155   9.503   9.499  0.0852 -0.5844 -0.1025
  478loPI   C1A 7639  16.773   9.660   9.168  0.0851  0.1822  0.2909
  478loPI   C2A 7640  16.896   9.563   8.733 -0.1925 -0.0341 -0.0161
  478loPI   C3A 7641  16.713   9.474   8.189 -0.2063 -0.3770 -0.0215
  478loPI   C4A 7642  16.533   9.528   7.795 -0.0275 -0.1312 -0.0253
  478loPI   C5A 7643  16.807   9.540   7.396  0.2405 -0.0587 -0.0789
  478loPI   C6A 7644  16.879   9.313   7.063  0.2163  0.1254 -0.2430
  478loPI   C1B 7645  16.298   9.498   9.001 -0.0915 -0.1645 -0.0594
  478loPI   C2B 7646  16.408   9.481   8.586  0.2328 -0.0243  0.0437
  478loPI   C3B 7647  16.131   9.570   8.209 -0.1647 -0.7267 -0.1819
  478loPI   C4B 7648  15.699   9.596   8.169 -0.0396 -0.0711  0.2460
  479loPI    C1 7649   9.925  11.684   9.654  0.0435 -0.1778 -0.0862
  479loPI    C2 7650   9.841  11.968   9.385 -0.0285 -0.0509  0.0682
  479loPI    C3 7651  10.023  12.065   9.727  0.0112 -0.2027  0.0911
  479loPI   PO4 7652   9.896  11.478   9.446 -0.0936  0.1160  0.2436
  479loPI   GL1 7653   9.965  11.510   9.028  0.0040 -0.1750 -0.2207
  479loPI   GL2 7654   9.694  11.315   9.021  0.1127  0.1781  0.2792
  479loPI   C1A 7655  10.160  11.747   8.635 -0.0585 -0.0069 -0.0214
  479loPI   C2A 7656  10.228  11.812   8.239 -0.0874 -0.1941  0.1507
  479loPI   C3A 7657  10.138  11.874   7.798 -0.4311 -0.2948  0.0863
  479loPI   C4A 7658   9.981  11.686   7.484  0.3540 -0.3372  0.3267
  479loPI   C5A 7659  10.170  11.347   7.235  0.0173  0.1937 -0.0346
  479loPI   C6A 7660  10.210  11.090   6.894  0.0371  0.3310  0.1422
  479loPI   C1B 7661   9.392  11.130   8.727 -0.0691 -0.1856 -0.2749
  479loPI   C2B 7662   9.252  11.003   8.225  0.3482  0.3250 -0.1779
  479loPI   C3B 7663   9.201  10.928   7.767 -0.1288 -0.1636 -0.0556
  479loPI   C4B 7664   9.164  11.007   7.348  0.0170  0.1194 -0.1335
  480loPI    C1 7665   3.115   3.462   9.899 -0.0876  0.1854  0.0145
  480loPI    C2 7666   3.342   3.153  10.014 -0.0127  0.2002 -0.0915
  480loPI    C3 7667   3.269   3.453  10.268  0.2703  0.3021 -0.1281
  480loPI   PO4 7668   3.181   3.414   9.627 -0.5921  0.0745 -0.0797
  480loPI   GL1 7669   3.058   3.334   9.352  0.0888 -0.1228  0.1941
  480loPI   GL2 7670   2.824   3.057   9.295  0.2330  0.1298  0.2114
  480loPI   C1A 7671   2.986   3.497   8.893 -0.0158 -0.3929  0.0519
  480loPI   C2A 7672   3.044   3.284   8.448  0.0140 -0.3058  0.0641
  480loPI   C3A 7673   3.106   3.079   8.060  0.2011  0.2055 -0.1938
  480loPI   C4A 7674   3.067   2.855   7.703  0.2147  0.0849 -0.2610
  480loPI   C5A 7675   3.287   2.507   7.578  0.0575 -0.0648  0.0882
  480loPI   C6A 7676   3.404   2.209   7.321  0.0903 -0.1418  0.5274
  480loPI   C1B 7677   2.796   2.975   8.868  0.2296 -0.3496 -0.0123
  480loPI   C2B 7678   3.032   2.723   8.625 -0.1849  0.2602 -0.0673
  480loPI   C3B 7679   3.018   2.356   8.469  0.3837 -0.2431  0.1634
  480loPI   C4B 7680   2.763   2.085   8.328 -0.0569  0.1539  0.1240
  481loPI    C1 7681  16.140   3.399  10.191 -0.1196 -0.0114  0.1005
  481loPI    C2 7682  15.829   3.375  10.441 -0.1767 -0.1003  0.0213
  481loPI    C3 7683  16.194   3.265  10.564 -0.1849 -0.0421  0.0990
  481loPI   PO4 7684  16.136   3.309   9.964  0.2046  0.3407 -0.1763
  481loPI   GL1 7685  16.335   3.292   9.592  0.0176 -0.0487  0.3137
  481loPI   GL2 7686  16.496   3.610   9.605  0.1579  0.0158 -0.0717
  481loPI   C1A 7687  16.042   3.377   9.287  0.0611  0.3164 -0.0132
  481loPI   C2A 7688  16.023   3.295   8.822 -0.2086  0.3664  0.1687
  481loPI   C3A 7689  16.245   3.200   8.467  0.0223  0.0413  0.0833
  481loPI   C4A 7690  16.142   3.063   8.088  0.0285  0.1230  0.3557
  481loPI   C5A 7691  16.475   2.917   7.702 -0.1250  0.3201 -0.0174
  481loPI   C6A 7692  16.671   2.537   7.658  0.2759  0.0280 -0.0431
  481loPI   C1B 7693  16.493   3.528   9.182  0.0746 -0.1863 -0.0100
  481loPI   C2B 7694  16.641   3.241   8.841 -0.0024  0.3934 -0.1288
  481loPI   C3B 7695  16.783   3.036   8.458 -0.0736  0.2417  0.3022
  481loPI   C4B 7696  16.811   3.151   7.999  0.1822 -0.2560  0.0386
  482loPI    C1 7697  15.805  11.031   9.943  0.0295 -0.3515 -0.1611
  482loPI    C2 7698  16.004  11.367  10.029 -0.2506 -0.2409  0.0700
  482loPI    C3 7699  15.998  11.064  10.291 -0.4365 -0.2184  0.0930
  482loPI   PO4 7700  15.855  11.073   9.678 -0.1775 -0.2869  0.0027
  482loPI   GL1 7701  15.706  11.270   9.333 -0.0811 -0.0488 -0.0685
  482loPI   GL2 7702  15.830  11.429   9.118 -0.1246  0.0335  0.0121
  482loPI   C1A 7703  15.482  11.146   8.913 -0.2539 -0.1055  0.0192
  482loPI   C2A 7704  15.403  11.274   8.426  0.2017 -0.0536 -0.0155
  482loPI   C3A 7705  15.432  11.055   8.043  0.1359 -0.1901  0.0008
  482loPI   C4A 7706  15.488  10.785   7.760  0.2844  0.0972 -0.7230
  482loPI   C5A 7707  15.769  10.439   7.568  0.1506  0.0735 -0.0943
  482loPI   C6A 7708  16.156  10.350   7.463  0.4332 -0.0133  0.1389
  482loPI   C1B 7709  15.829  11.404   8.731 -0.1186 -0.2396 -0.1376
  482loPI   C2B 7710  15.835  11.138   8.297 -0.0237  0.3532  0.1606
  482loPI   C3B 7711  15.914  10.682   8.077  0.0489  0.2564  0.0299
  482loPI   C4B 7712  16.272  10.500   7.990 -0.2944  0.0539  0.0144
  483loPI    C1 7713   6.883   1.458   9.801 -0.0580  0.4459 -0.2743
  483loPI    C2 7714   6.504   1.338   9.850  0.1553 -0.1537 -0.0022
  483loPI    C3 7715   6.721   1.449  10.167  0.2781 -0.0276 -0.1287
  483loPI   PO4 7716   7.047   1.248   9.629 -0.0913 -0.0527 -0.1323
  483loPI   GL1 7717   6.871   1.121   9.388 -0.0862  0.3321 -0.2212
  483loPI   GL2 7718   7.163   0.869   9.201 -0.1012  0.1716 -0.3039
  483loPI   C1A 7719   6.832   1.295   9.038 -0.0731 -0.2133 -0.1472
  483loPI   C2A 7720   6.704   1.476   8.619  0.1782  0.3375 -0.0077
  483loPI   C3A 7721   6.675   1.707   8.296 -0.1301 -0.0211  0.1218
  483loPI   C4A 7722   6.467   1.765   7.975 -0.0575 -0.2839 -0.2964
  483loPI   C5A 7723   6.110   1.560   7.740 -0.1101 -0.2010  0.1629
  483loPI   C6A 7724   6.104   1.302   7.298 -0.1065  0.3234  0.2174
  483loPI   C1B 7725   7.336   0.786   8.834  0.3310  0.0367 -0.2619
  483loPI   C2B 7726   7.293   0.738   8.397  0.2826 -0.0485  0.0842
  483loPI   C3B 7727   7.056   0.635   8.054  0.1696  0.1004 -0.0943
  483loPI   C4B 7728   7.296   0.750   7.573  0.0079  0.0212  0.0962
  484loPI    C1 7729   5.111   4.859   9.964 -0.2147 -0.1153 -0.1830
  484loPI    C2 7730   4.808   4.799  10.219 -0.0457 -0.1772  0.0052
  484loPI    C3 7731   5.139   4.576  10.244  0.1155  0.0527 -0.0411
  484loPI   PO4 7732   4.959   4.920   9.650  0.2836 -0.0399  0.1472
  484loPI   GL1 7733   5.026   5.212   9.269  0.2269 -0.0332  0.2932
  484loPI   GL2 7734   4.703   5.002   9.216 -0.0290  0.1427  0.1581
  484loPI   C1A 7735   5.076   4.930   8.918 -0.1213 -0.1914  0.1271
  484loPI   C2A 7736   5.068   4.933   8.446  0.0817 -0.0737 -0.1141
  484loPI   C3A 7737   5.116   5.123   8.114  0.0598 -0.3108  0.0541
  484loPI   C4A 7738   5.409   5.023   7.760 -0.0435  0.3566 -0.1723
  484loPI   C5A 7739   5.782   5.007   7.557  0.2325 -0.0278 -0.0921
  484loPI   C6A 7740   6.121   4.760   7.626 -0.0537  0.2515 -0.1285
  484loPI   C1B 7741   4.627   5.130   8.799  0.2004  0.6081 -0.0308
  484loPI   C2B 7742   4.644   5.361   8.365 -0.2385 -0.1740 -0.1051
  484loPI   C3B 7743   4.765   5.593   7.942  0.0145  0.1042 -0.0220
  484loPI   C4B 7744   4.958   5.962   7.839  0.0635  0.2238  0.0628
  485loPI    C1 7745  14.800   9.554  10.380 -0.0318  0.0097 -0.0226
  485loPI    C2 7746  15.079   9.624  10.659  0.1022 -0.2185 -0.0965
  485loPI    C3 7747  14.803   9.341  10.718  0.1145 -0.2491 -0.1836
  485loPI   PO4 7748  14.970   9.574  10.097  0.0730  0.1877 -0.1025
  485loPI   GL1 7749  14.856   9.866   9.661  0.1526 -0.1367 -0.0601
  485loPI   GL2 7750  14.782   9.597   9.548  0.1709 -0.1755 -0.3918
  485loPI   C1A 7751  15.103  10.113   9.371  0.0230  0.0735  0.2793
  485loPI   C2A 7752  15.059  10.140   8.934 -0.0438 -0.0356 -0.0881
  485loPI   C3A 7753  15.145  10.311   8.580  0.0423  0.1145  0.1401
  485loPI   C4A 7754  14.942  10.286   8.183 -0.3160 -0.0188 -0.0736
  485loPI   C5A 7755  14.808  10.033   7.846  0.1325 -0.2558 -0.0477
  485loPI   C6A 7756  14.716   9.690   7.575  0.3033  0.0185 -0.0448
  485loPI   C1B 7757  14.657   9.666   9.143  0.0829 -0.1881  0.1531
  485loPI   C2B 7758  14.375   9.701   8.803 -0.0702 -0.4310  0.3268
  485loPI   C3B 7759  13.998   9.586   8.857  0.1083 -0.4270  0.3034
  485loPI   C4B 7760  13.521   9.475   8.758  0.2661  0.2009  0.0847
  486loPI    C1 7761   0.119  14.314  10.275  0.1530  0.1558 -0.1105
  486loPI    C2 7762   0.436  14.393  10.506  0.0126  0.1639  0.0821
  486loPI    C3 7763   0.067  14.473  10.638 -0.0917 -0.1647 -0.0003
  486loPI   PO4 7764   0.246  14.066  10.109 -0.1417 -0.0577 -0.0443
  486loPI   GL1 7765   0.187  13.990   9.703 -0.0348 -0.2120  0.0717
  486loPI   GL2 7766   0.271  13.723   9.643 -0.5549 -0.0315  0.0654
  486loPI   C1A 7767  -0.156  14.029   9.395  0.2063 -0.1728 -0.3704
  486loPI   C2A 7768  -0.019  14.088   8.913  0.1606  0.0045  0.1102
  486loPI   C3A 7769   0.082  14.152   8.518  0.2062  0.0433 -0.0486
  486loPI   C4A 7770   0.291  14.106   8.128  0.2518  0.2123  0.0598
  486loPI   C5A 7771   0.196  14.256   7.706  0.1172 -0.1859  0.1642
  486loPI   C6A 7772   0.253  14.336   7.221 -0.2814  0.0817  0.3264
  486loPI   C1B 7773   0.324  13.584   9.261 -0.0890  0.1478 -0.5383
  486loPI   C2B 7774   0.574  13.402   8.896  0.3786  0.0814  0.1380
  486loPI   C3B 7775   0.754  13.455   8.526  0.3012  0.1204 -0.1441
  486loPI   C4B 7776   0.386  13.627   8.259  0.1346 -0.1853 -0.0382
  487loPI    C1 7777   1.446   6.697   9.765 -0.1065 -0.2240 -0.2306
  487loPI    C2 7778   1.575   7.044   9.915 -0.2649 -0.1628 -0.2349
  487loPI    C3 7779   1.696   6.699  10.077 -0.0923 -0.1067 -0.2426
  487loPI   PO4 7780   1.457   6.680   9.487  0.0091  0.3812 -0.1175
  487loPI   GL1 7781   1.640   6.698   9.080 -0.0035  0.1062  0.4826
  487loPI   GL2 7782   1.949   6.587   9.049  0.0688 -0.1666 -0.1752
  487loPI   C1A 7783   1.658   6.800   8.679 -0.0818  0.2814  0.0127
  487loPI   C2A 7784   1.818   6.876   8.353 -0.0986 -0.1488  0.1858
  487loPI   C3A 7785   1.728   6.987   7.835 -0.0099 -0.1628 -0.1895
  487loPI   C4A 7786   1.552   6.924   7.467 -0.3374  0.2002  0.0823
  487loPI   C5A 7787   1.158   6.863   7.308 -0.3030 -0.2027 -0.1346
  487loPI   C6A 7788   0.678   6.672   7.191 -0.0574 -0.4117  0.2450
  487loPI   C1B 7789   2.104   6.566   8.676  0.0882  0.2791  0.0642
  487loPI   C2B 7790   2.158   6.493   8.181  0.1873 -0.3661  0.1152
  487loPI   C3B 7791   2.039   6.586   7.773  0.1415  0.2705  0.2270
  487loPI   C4B 7792   2.039   6.629   7.363  0.0720  0.0044 -0.1460
  488loPI    C1 7793  15.756  18.773  10.361  0.2144 -0.0332  0.0214
  488loPI    C2 7794  15.418  18.802  10.573  0.1921  0.5461 -0.0760
  488loPI    C3 7795  15.767  18.739  10.760  0.0536  0.0702  0.0356
  488loPI   PO4 7796  15.765  18.623  10.208 -0.0024  0.0148  0.1830
  488loPI   GL1 7797  15.663  18.644   9.746 -0.2574 -0.1021 -0.1052
  488loPI   GL2 7798  15.931  18.712   9.768 -0.1060  0.0774 -0.3623
  488loPI   C1A 7799  15.572  18.459   9.303  0.2798  0.1929 -0.0692
  488loPI   C2A 7800  15.564  18.519   8.978 -0.0281 -0.0533 -0.0714
  488loPI   C3A 7801  15.617  18.522   8.554  0.1106 -0.0770  0.0190
  488loPI   C4A 7802  15.533  18.647   8.124  0.0624  0.1981 -0.5468
  488loPI   C5A 7803  15.457  18.914   7.717  0.1691  0.4826 -0.1863
  488loPI   C6A 7804  15.167  19.115   7.448 -0.1385  0.1081  0.1368
  488loPI   C1B 7805  16.052  18.412   9.423  0.0467 -0.4925 -0.0156
  488loPI   C2B 7806  16.117  18.378   9.008 -0.0530 -0.1169  0.0064
  488loPI   C3B 7807  16.107  18.485   8.641 -0.0987  0.1207 -0.3189
  488loPI   C4B 7808  16.056  18.553   8.251 -0.1596 -0.0970  0.0643
  489loPI    C1 7809   4.325   4.436   9.776 -0.2761  0.0929  0.1855
  489loPI    C2 7810   4.471   4.619   9.452  0.2699 -0.0456  0.3443
  489loPI    C3 7811   4.522   4.782   9.814 -0.0810 -0.0385  0.3935
  489loPI   PO4 7812   4.367   4.204   9.656  0.0569  0.1795  0.1299
  489loPI   GL1 7813   4.213   3.944   9.266 -0.0718  0.0793  0.2077
  489loPI   GL2 7814   3.979   3.686   9.237  0.1158 -0.1593  0.2573
  489loPI   C1A 7815   4.481   4.026   8.878 -0.1125  0.1987 -0.2029
  489loPI   C2A 7816   4.738   4.000   8.585  0.3822 -0.0361  0.1561
  489loPI   C3A 7817   4.737   4.233   8.047  0.0323 -0.2084 -0.3799
  489loPI   C4A 7818   4.570   4.362   7.671  0.1467 -0.0270 -0.5127
  489loPI   C5A 7819   4.552   4.764   7.399 -0.0356  0.2367  0.0594
  489loPI   C6A 7820   4.634   4.719   6.856 -0.0254 -0.0544  0.0674
  489loPI   C1B 7821   4.125   3.650   8.869 -0.0770 -0.1388  0.1969
  489loPI   C2B 7822   4.380   3.591   8.407  0.3963 -0.0877  0.3395
  489loPI   C3B 7823   4.519   3.323   8.045  0.2133  0.1767 -0.0538
  489loPI   C4B 7824   4.627   2.985   7.688 -0.3031  0.1252 -0.1921
  490loPI    C1 7825   3.327   9.946  10.020  0.1710 -0.0949  0.0790
  490loPI    C2 7826   3.376   9.551  10.054  0.2038 -0.0993 -0.0185
  490loPI    C3 7827   3.149   9.747  10.318  0.0700 -0.2053 -0.0537
  490loPI   PO4 7828   3.377   9.980   9.722 -0.1332 -0.2568 -0.0305
  490loPI   GL1 7829   3.563   9.949   9.386  0.1043 -0.0736 -0.0694
  490loPI   GL2 7830   3.657  10.278   9.304 -0.0479 -0.1312  0.4484
  490loPI   C1A 7831   3.502   9.971   8.961 -0.0143 -0.2046 -0.3178
  490loPI   C2A 7832   3.463  10.035   8.561 -0.3082  0.1219  0.0904
  490loPI   C3A 7833   3.529  10.072   8.124 -0.1006  0.0301 -0.1919
  490loPI   C4A 7834   3.680   9.897   7.693  0.0806 -0.2155 -0.1797
  490loPI   C5A 7835   4.017   9.764   7.429  0.0529 -0.2126  0.1622
  490loPI   C6A 7836   4.446   9.672   7.649 -0.0323  0.0552 -0.2997
  490loPI   C1B 7837   3.566  10.456   8.899 -0.1242 -0.3227 -0.2255
  490loPI   C2B 7838   3.551  10.627   8.558 -0.2557  0.0947 -0.0864
  490loPI   C3B 7839   3.640  10.560   8.092  0.1674 -0.1004  0.2781
  490loPI   C4B 7840   3.823  10.660   7.603 -0.1050 -0.4325 -0.5060
  491loPI    C1 7841  10.504   9.645   9.992  0.2162  0.1187 -0.0313
  491loPI    C2 7842  10.203   9.826  10.183  0.0747  0.0274 -0.1656
  491loPI    C3 7843  10.561  10.003  10.160  0.0570  0.0966  0.0713
  491loPI   PO4 7844  10.285   9.519   9.742 -0.2233 -0.1295 -0.0360
  491loPI   GL1 7845  10.244   9.307   9.342  0.0933 -0.0110  0.2957
  491loPI   GL2 7846  10.099   9.592   9.055 -0.1943  0.1501  0.1255
  491loPI   C1A 7847  10.114   9.116   8.905 -0.0976  0.0155 -0.3533
  491loPI   C2A 7848  10.138   9.271   8.489  0.2136 -0.2255 -0.1425
  491loPI   C3A 7849  10.153   9.024   8.027 -0.1666 -0.2687  0.0780
  491loPI   C4A 7850  10.244   8.806   7.662  0.3159  0.0682  0.1967
  491loPI   C5A 7851  10.520   8.513   7.656 -0.0904  0.2107  0.0036
  491loPI   C6A 7852  10.463   8.084   7.851 -0.0545 -0.3994 -0.1497
  491loPI   C1B 7853  10.034   9.723   8.722  0.3475  0.3229 -0.0782
  491loPI   C2B 7854  10.048   9.756   8.179  0.2164  0.2024 -0.0711
  491loPI   C3B 7855   9.891   9.788   7.775 -0.2046  0.0161 -0.2083
  491loPI   C4B 7856   9.612   9.649   7.466 -0.2842 -0.1705  0.0721
  492loPI    C1 7857  19.056   6.418   9.848  0.0463  0.0218 -0.2543
  492loPI    C2 7858  19.299   6.661   9.644  0.3250  0.0701  0.1243
  492loPI    C3 7859  19.223   6.732  10.030  0.1273 -0.2461  0.1469
  492loPI   PO4 7860  18.877   6.385   9.660  0.0829 -0.0966 -0.0264
  492loPI   GL1 7861  18.648   6.641   9.436 -0.1585  0.0583 -0.2167
  492loPI   GL2 7862  18.442   6.863   9.508 -0.2129  0.0056  0.2552
  492loPI   C1A 7863  18.679   6.741   9.032  0.3087  0.0557  0.0034
  492loPI   C2A 7864  18.466   6.787   8.607 -0.1875  0.1320  0.3044
  492loPI   C3A 7865  18.635   6.612   8.277  0.0752 -0.1251  0.0786
  492loPI   C4A 7866  18.953   6.627   7.981 -0.3253 -0.2478 -0.1807
  492loPI   C5A 7867  19.272   6.572   7.688  0.1607 -0.0341 -0.0277
  492loPI   C6A 7868  19.395   6.829   7.332  0.0722  0.0096  0.3226
  492loPI   C1B 7869  18.280   7.075   9.062 -0.1094  0.1061 -0.0861
  492loPI   C2B 7870  18.305   7.250   8.714 -0.1301 -0.2738 -0.0943
  492loPI   C3B 7871  18.522   7.203   8.360  0.2619 -0.3382  0.2338
  492loPI   C4B 7872  18.472   6.979   7.893  0.0445 -0.1025 -0.0685
  493loPI    C1 7873  17.882  15.045  10.035 -0.4658 -0.0047  0.0811
  493loPI    C2 7874  18.046  14.788  10.293 -0.1825  0.1167  0.0253
  493loPI    C3 7875  18.099  15.181  10.342  0.0974  0.1331 -0.3615
  493loPI   PO4 7876  17.889  14.880   9.823  0.0024 -0.2089 -0.0943
  493loPI   GL1 7877  17.934  14.914   9.291  0.0034 -0.0496  0.3406
  493loPI   GL2 7878  17.664  14.923   9.272 -0.0685 -0.2211  0.0782
  493loPI   C1A 7879  17.941  15.086   8.878  0.4073 -0.3156  0.0202
  493loPI   C2A 7880  18.190  15.048   8.554  0.1083  0.1560 -0.2573
  493loPI   C3A 7881  18.553  14.959   8.338  0.1406 -0.1853  0.1500
  493loPI   C4A 7882  18.779  14.871   8.009  0.0467  0.0562 -0.1172
  493loPI   C5A 7883  19.155  14.684   7.912 -0.1404 -0.0557  0.2473
  493loPI   C6A 7884  19.615  14.563   7.969  0.0693 -0.2114 -0.3952
  493loPI   C1B 7885  17.402  14.877   8.911  0.1005  0.1955 -0.2029
  493loPI   C2B 7886  17.315  14.642   8.519  0.1114 -0.0289  0.2215
  493loPI   C3B 7887  17.466  14.629   8.093 -0.1769  0.1874 -0.4125
  493loPI   C4B 7888  17.789  14.555   7.694 -0.3619 -0.4160  0.0517
  494loPI    C1 7889   2.708   6.103   9.734  0.1704 -0.0342  0.0741
  494loPI    C2 7890   2.818   6.488   9.727 -0.0669  0.0326 -0.1408
  494loPI    C3 7891   2.512   6.371   9.958 -0.0834 -0.0024 -0.1803
  494loPI   PO4 7892   2.633   6.053   9.512 -0.0576  0.1455  0.0680
  494loPI   GL1 7893   2.741   5.978   9.127 -0.0777 -0.0046  0.0406
  494loPI   GL2 7894   2.895   6.116   8.949  0.2936  0.1190 -0.1154
  494loPI   C1A 7895   2.554   5.807   8.777  0.3195  0.0899  0.1774
  494loPI   C2A 7896   2.642   5.618   8.420 -0.0934 -0.0349 -0.1992
  494loPI   C3A 7897   2.759   5.527   8.086  0.0722 -0.1033  0.1963
  494loPI   C4A 7898   2.866   5.279   7.683 -0.0261  0.0059  0.1981
  494loPI   C5A 7899   3.126   5.290   7.365  0.3045 -0.3560  0.0606
  494loPI   C6A 7900   3.422   5.487   7.044 -0.0878 -0.0862  0.2279
  494loPI   C1B 7901   2.845   6.130   8.443  0.0929 -0.3633  0.0323
  494loPI   C2B 7902   2.944   6.116   8.034 -0.0828  0.1683  0.3243
  494loPI   C3B 7903   3.051   6.263   7.697  0.1970 -0.3047  0.1720
  494loPI   C4B 7904   3.114   6.615   7.476 -0.0492 -0.1657 -0.2435
  495loPI    C1 7905   9.207   0.402   9.629  0.0187 -0.1866  0.1207
  495loPI    C2 7906   9.563   0.230   9.688 -0.0241 -0.2538  0.1846
  495loPI    C3 7907   9.289   0.229   9.980  0.0075  0.0012  0.2177
  495loPI   PO4 7908   9.180   0.427   9.408  0.1845 -0.1855  0.2190
  495loPI   GL1 7909   9.193   0.262   9.021  0.0792  0.2658 -0.1903
  495loPI   GL2 7910   9.541   0.139   9.190  0.1035 -0.3284  0.0737
  495loPI   C1A 7911   9.376   0.300   8.566 -0.3924 -0.3286 -0.1231
  495loPI   C2A 7912   9.419   0.197   8.147  0.2790 -0.2727 -0.1436
  495loPI   C3A 7913   9.547   0.114   7.792 -0.0091  0.1506 -0.1413
  495loPI   C4A 7914   9.911  -0.141   7.556 -0.1483 -0.4266  0.0707
  495loPI   C5A 7915  10.257  -0.257   7.341 -0.1191 -0.0708  0.2053
  495loPI   C6A 7916  10.544  -0.392   6.995 -0.0529 -0.0849  0.1182
  495loPI   C1B 7917   9.655  -0.009   8.773 -0.0809  0.4904  0.2161
  495loPI   C2B 7918   9.583  -0.205   8.410  0.0998  0.2582 -0.0363
  495loPI   C3B 7919   9.532  -0.399   7.905 -0.1062  0.1107 -0.2191
  495loPI   C4B 7920   9.432  -0.385   7.536  0.1735  0.1162  0.2436
  496loPI    C1 7921  14.760   1.197  10.589 -0.3333  0.0927 -0.0945
  496loPI    C2 7922  14.467   1.341  10.821 -0.2359 -0.0842  0.1423
  496loPI    C3 7923  14.602   0.969  10.877 -0.0206 -0.0323 -0.0188
  496loPI   PO4 7924  14.764   1.324  10.291 -0.2006  0.2292  0.1549
  496loPI   GL1 7925  14.758   1.279   9.909  0.2127 -0.1075 -0.4041
  496loPI   GL2 7926  14.549   0.997   9.683 -0.3029 -0.1928 -0.2227
  496loPI   C1A 7927  14.959   1.196   9.592 -0.0194  0.3241 -0.2196
  496loPI   C2A 7928  15.038   1.165   9.300 -0.1581  0.1384  0.0456
  496loPI   C3A 7929  14.948   0.962   8.902  0.1963 -0.1074 -0.1504
  496loPI   C4A 7930  15.174   0.856   8.537 -0.3893 -0.0884 -0.0958
  496loPI   C5A 7931  15.563   0.796   8.518 -0.1701  0.0652 -0.3268
  496loPI   C6A 7932  15.858   0.906   8.329 -0.1094  0.1258 -0.2178
  496loPI   C1B 7933  14.488   1.208   9.117 -0.0035  0.2595  0.0278
  496loPI   C2B 7934  14.636   1.312   8.644  0.1684  0.2695 -0.0217
  496loPI   C3B 7935  14.821   1.143   8.272 -0.0438  0.1616 -0.1227
  496loPI   C4B 7936  14.827   0.804   8.016  0.0753 -0.0394  0.5194
  497loPI    C1 7937  10.631  16.176   9.992 -0.1336 -0.0306  0.1009
  497loPI    C2 7938  10.835  15.880   9.817 -0.2043 -0.0649  0.0765
  497loPI    C3 7939  10.668  15.824  10.177 -0.0553  0.0069  0.1576
  497loPI   PO4 7940  10.406  16.251   9.765 -0.0244  0.2413 -0.1828
  497loPI   GL1 7941  10.354  16.173   9.337  0.0416 -0.1665 -0.0570
  497loPI   GL2 7942  10.584  16.136   9.242 -0.1043 -0.1725 -0.1129
  497loPI   C1A 7943  10.015  16.169   9.015  0.2397  0.1076  0.2834
  497loPI   C2A 7944  10.031  15.879   8.577 -0.1380 -0.0866 -0.2058
  497loPI   C3A 7945  10.164  15.948   8.145  0.1675 -0.0306 -0.0647
  497loPI   C4A 7946  10.139  16.054   7.826 -0.0345 -0.0673  0.1976
  497loPI   C5A 7947  10.118  16.372   7.604  0.1878 -0.2308  0.2816
  497loPI   C6A 7948  10.237  16.547   7.178  0.1093  0.1053  0.0638
  497loPI   C1B 7949  10.567  16.268   8.774  0.1929  0.0052 -0.3378
  497loPI   C2B 7950  10.493  16.295   8.442 -0.1159 -0.0827  0.0590
  497loPI   C3B 7951  10.477  16.437   8.024 -0.0072  0.1264  0.3568
  497loPI   C4B 7952  10.631  16.534   7.635  0.1065 -0.1183  0.1935
  498loPI    C1 7953   0.611   1.265  10.418  0.0164 -0.0457  0.0620
  498loPI    C2 7954   0.271   1.184  10.613 -0.0493 -0.1411 -0.0903
  498loPI    C3 7955   0.624   1.087  10.776 -0.1027 -0.2010 -0.0095
  498loPI   PO4 7956   0.645   1.263  10.212 -0.1084  0.3290 -0.1606
  498loPI   GL1 7957   0.691   0.958   9.909  0.1607  0.0477  0.0441
  498loPI   GL2 7958   0.451   0.778   9.893  0.1490  0.1094  0.1078
  498loPI   C1A 7959   0.840   0.998   9.503  0.2681 -0.1217 -0.0218
  498loPI   C2A 7960   1.096   0.967   9.124 -0.2292 -0.0958  0.0847
  498loPI   C3A 7961   1.081   0.964   8.688  0.1614  0.0519 -0.0371
  498loPI   C4A 7962   1.050   0.963   8.214  0.0370  0.0550  0.0161
  498loPI   C5A 7963   1.097   0.984   7.768  0.1841 -0.1795 -0.0434
  498loPI   C6A 7964   0.925   0.941   7.409 -0.1655  0.1583 -0.3012
  498loPI   C1B 7965   0.354   0.750   9.528  0.0086 -0.1563  0.2767
  498loPI   C2B 7966   0.494   0.828   9.138 -0.2032 -0.0206 -0.2699
  498loPI   C3B 7967   0.648   1.070   8.802 -0.0814 -0.0579 -0.3040
  498loPI   C4B 7968   0.610   0.974   8.429 -0.5888 -0.1185  0.2397
  499loPI    C1 7969  10.944   6.544  10.430 -0.0124 -0.1652  0.2753
  499loPI    C2 7970  10.546   6.559  10.392  0.0243 -0.1907 -0.1858
  499loPI    C3 7971  10.754   6.894  10.465 -0.0673 -0.1558 -0.0810
  499loPI   PO4 7972  11.069   6.400  10.164  0.1870 -0.2222  0.4026
  499loPI   GL1 7973  11.258   6.163   9.749  0.0075  0.1836 -0.0451
  499loPI   GL2 7974  11.296   6.431   9.689 -0.2505 -0.1790 -0.1440
  499loPI   C1A 7975  10.986   5.974   9.299 -0.2701 -0.2215  0.3097
  499loPI   C2A 7976  11.084   5.852   8.938  0.0320  0.0399  0.2726
  499loPI   C3A 7977  11.076   5.864   8.607 -0.1623  0.0787  0.1033
  499loPI   C4A 7978  10.905   5.898   8.163  0.2323  0.0490  0.1996
  499loPI   C5A 7979  10.924   6.118   7.828 -0.1219  0.2261 -0.0263
  499loPI   C6A 7980  10.892   6.518   7.564  0.2516 -0.0145 -0.0384
  499loPI   C1B 7981  11.230   6.469   9.186 -0.0222  0.2583  0.0259
  499loPI   C2B 7982  11.031   6.351   8.764 -0.0659 -0.0801  0.1678
  499loPI   C3B 7983  11.234   6.317   8.304  0.1665 -0.1176  0.0510
  499loPI   C4B 7984  11.280   6.459   7.835 -0.0516 -0.0287 -0.3424
  500loPI    C1 7985  17.130   8.628   9.937 -0.0291  0.1299 -0.0424
  500loPI    C2 7986  17.167   8.704  10.328 -0.0416  0.4126 -0.0936
  500loPI    C3 7987  17.462   8.519  10.131 -0.3799 -0.5251  0.2222
  500loPI   PO4 7988  16.997   8.816   9.873 -0.2780  0.1320 -0.1704
  500loPI   GL1 7989  17.090   8.989   9.444  0.0869  0.2640 -0.0291
  500loPI   GL2 7990  16.943   9.183   9.237  0.0346 -0.0591  0.0924
  500loPI   C1A 7991  17.329   8.791   9.041 -0.0941 -0.1200  0.0031
  500loPI   C2A 7992  17.228   8.758   8.644 -0.3161 -0.2210  0.2270
  500loPI   C3A 7993  17.102   8.620   8.251  0.0056  0.1373 -0.1245
  500loPI   C4A 7994  16.844   8.311   8.008 -0.3841 -0.1484 -0.0408
  500loPI   C5A 7995  16.549   8.070   7.825 -0.1524  0.0979 -0.4800
  500loPI   C6A 7996  16.176   7.779   7.863 -0.3026  0.2830  0.2641
  500loPI   C1B 7997  16.765   9.103   8.921  0.2734  0.1065  0.2016
  500loPI   C2B 7998  16.867   9.101   8.458  0.3235  0.2472 -0.0456
  500loPI   C3B 7999  16.833   9.007   7.983 -0.0064 -0.2781  0.0278
  500loPI   C4B 8000  16.631   8.687   7.688 -0.4368 -0.0773 -0.1755
  501loPI    C1 8001   2.658  11.222   9.897  0.2132  0.0957  0.1738
  501loPI    C2 8002   2.390  11.000  10.095  0.1277 -0.0405 -0.0902
  501loPI    C3 8003   2.573  11.304  10.279 -0.1326 -0.0098  0.1231
  501loPI   PO4 8004   2.598  11.332   9.755  0.2406  0.3342  0.2869
  501loPI   GL1 8005   2.716  11.364   9.371  0.3054 -0.0083  0.2489
  501loPI   GL2 8006   2.540  11.496   9.244 -0.1629 -0.0953 -0.1054
  501loPI   C1A 8007   2.810  11.118   9.036 -0.0078 -0.2652 -0.0745
  501loPI   C2A 8008   2.713  11.171   8.650  0.1509  0.2163 -0.0305
  501loPI   C3A 8009   2.488  11.143   8.300  0.2514  0.1697  0.0249
  501loPI   C4A 8010   2.700  11.306   7.870  0.2030 -0.3129 -0.1411
  501loPI   C5A 8011   3.011  11.402   7.651 -0.1073 -0.1599 -0.0391
  501loPI   C6A 8012   3.408  11.572   7.656  0.2413  0.1488 -0.1343
  501loPI   C1B 8013   2.406  11.576   8.899  0.2338  0.1322 -0.1487
  501loPI   C2B 8014   2.371  11.632   8.481 -0.1669  0.2024  0.0523
  501loPI   C3B 8015   2.375  11.791   8.120 -0.2930 -0.0546  0.2118
  501loPI   C4B 8016   2.117  11.897   7.793  0.1100 -0.1622 -0.0011
  502loPI    C1 8017  17.172  11.969   9.668 -0.0999  0.0051 -0.1156
  502loPI    C2 8018  17.476  11.716   9.731 -0.1043  0.0309  0.0122
  502loPI    C3 8019  17.428  12.033   9.970 -0.1663  0.0889 -0.0769
  502loPI   PO4 8020  17.106  11.940   9.414 -0.1966 -0.0821 -0.2605
  502loPI   GL1 8021  16.967  11.651   9.054  0.2465  0.2598 -0.1514
  502loPI   GL2 8022  16.710  11.918   9.048  0.0128 -0.1243  0.3647
  502loPI   C1A 8023  17.061  11.449   8.725  0.1772  0.2402  0.1932
  502loPI   C2A 8024  17.302  11.205   8.532  0.0434  0.0683 -0.0803
  502loPI   C3A 8025  17.657  11.040   8.183  0.0518 -0.0209  0.1123
  502loPI   C4A 8026  17.599  11.101   7.737  0.0300  0.2713  0.1330
  502loPI   C5A 8027  17.511  11.128   7.297 -0.3967  0.3384 -0.1101
  502loPI   C6A 8028  17.682  11.086   6.845  0.1579 -0.1714  0.1074
  502loPI   C1B 8029  16.786  11.868   8.591 -0.2909 -0.0117 -0.0400
  502loPI   C2B 8030  16.632  11.834   8.175 -0.3027 -0.0330  0.0553
  502loPI   C3B 8031  16.776  11.653   7.821  0.1069  0.0562  0.1210
  502loPI   C4B 8032  16.617  11.131   7.775 -0.0796  0.1132 -0.1602
  503loPI    C1 8033   3.457  17.357   9.724 -0.2098  0.1317  0.0543
  503loPI    C2 8034   3.349  17.056   9.965 -0.0215  0.0071 -0.0146
  503loPI    C3 8035   3.666  17.282  10.057  0.0081  0.0046 -0.1087
  503loPI   PO4 8036   3.226  17.373   9.563  0.3651 -0.0274  0.1620
  503loPI   GL1 8037   2.940  17.157   9.431 -0.0503 -0.2622 -0.1769
  503loPI   GL2 8038   2.805  17.464   9.253  0.0560 -0.3354  0.0364
  503loPI   C1A 8039   2.768  16.889   9.276  0.0837  0.1807 -0.0569
  503loPI   C2A 8040   2.589  16.632   8.901  0.1453  0.1703 -0.0600
  503loPI   C3A 8041   2.297  16.769   8.793 -0.1236 -0.1033 -0.3328
  503loPI   C4A 8042   2.111  16.908   8.352 -0.1443  0.1832  0.1439
  503loPI   C5A 8043   1.838  17.082   8.133  0.4015  0.2670 -0.1965
  503loPI   C6A 8044   1.531  17.270   8.205  0.0448  0.3253  0.1723
  503loPI   C1B 8045   3.005  17.207   8.928  0.0515 -0.1268 -0.2473
  503loPI   C2B 8046   3.019  16.978   8.511  0.1748  0.2553  0.1584
  503loPI   C3B 8047   3.131  16.936   8.195  0.0567  0.1076  0.3830
  503loPI   C4B 8048   3.331  16.745   7.930  0.0954  0.4449  0.2211
  504loPI    C1 8049   0.052   4.462  10.256 -0.0863 -0.0006  0.1869
  504loPI    C2 8050  -0.004   4.857  10.231  0.2082  0.0210 -0.2613
  504loPI    C3 8051   0.306   4.712  10.438  0.0182  0.0136  0.0242
  504loPI   PO4 8052  -0.023   4.302  10.042 -0.4629 -0.0580 -0.1524
  504loPI   GL1 8053  -0.330   4.447   9.683 -0.2703  0.0535  0.0995
  504loPI   GL2 8054  -0.024   4.425   9.552  0.0008 -0.1225  0.3394
  504loPI   C1A 8055  -0.578   4.621   9.399 -0.0226  0.1002  0.0790
  504loPI   C2A 8056  -0.602   4.572   9.033  0.1919 -0.0076 -0.1493
  504loPI   C3A 8057  -0.603   4.710   8.477 -0.0313 -0.0072 -0.2187
  504loPI   C4A 8058  -0.555   4.767   8.088  0.3177 -0.2454  0.0133
  504loPI   C5A 8059  -0.610   4.479   7.805 -0.2195  0.2990 -0.0394
  504loPI   C6A 8060  -0.944   4.142   7.646  0.3552 -0.1209 -0.0273
  504loPI   C1B 8061  -0.199   4.294   9.225  0.1389  0.0193 -0.2506
  504loPI   C2B 8062  -0.343   4.294   8.793  0.1786 -0.2434 -0.1557
  504loPI   C3B 8063  -0.319   4.145   8.378 -0.1941  0.1195  0.3248
  504loPI   C4B 8064  -0.248   4.039   7.882 -0.1160  0.0621 -0.0172
  505loPI    C1 8065  17.536   5.120  10.346  0.1106  0.3195 -0.2923
  505loPI    C2 8066  17.867   4.932  10.469  0.0545  0.2152 -0.2999
  505loPI    C3 8067  17.616   5.091  10.737 -0.0922 -0.0537 -0.2735
  505loPI   PO4 8068  17.611   5.206  10.142 -0.2937  0.0066 -0.1508
  505loPI   GL1 8069  17.742   5.106   9.688 -0.0882 -0.1232  0.1387
  505loPI   GL2 8070  17.448   4.990   9.709 -0.1159 -0.0079 -0.0844
  505loPI   C1A 8071  17.706   4.953   9.208 -0.1450  0.1875 -0.0850
  505loPI   C2A 8072  17.584   5.216   8.872 -0.0697  0.0160  0.2077
  505loPI   C3A 8073  17.560   5.423   8.515 -0.0925 -0.0197 -0.0199
  505loPI   C4A 8074  17.763   5.717   8.245 -0.2144  0.1332 -0.4584
  505loPI   C5A 8075  17.857   6.102   8.145  0.0341 -0.0466  0.1931
  505loPI   C6A 8076  17.931   6.380   7.740  0.0923  0.3058 -0.2451
  505loPI   C1B 8077  17.242   5.032   9.364 -0.2032 -0.2621 -0.0590
  505loPI   C2B 8078  16.915   4.955   9.250  0.1299  0.0693  0.0174
  505loPI   C3B 8079  16.733   5.092   8.921  0.2366  0.1100 -0.0635
  505loPI   C4B 8080  16.497   5.368   8.729 -0.2901 -0.0045  0.1383
  506loPI    C1 8081   1.544   9.525   9.650  0.2157  0.0166  0.2317
  506loPI    C2 8082   1.659   9.786   9.930  0.2770  0.1997  0.0382
  506loPI    C3 8083   1.771   9.403   9.956  0.2160  0.1980  0.3050
  506loPI   PO4 8084   1.257   9.555   9.696  0.0620  0.1275 -0.0131
  506loPI   GL1 8085   0.945   9.351   9.249  0.0993 -0.2160 -0.1488
  506loPI   GL2 8086   0.827   9.667   9.028  0.1425 -0.0910 -0.1403
  506loPI   C1A 8087   1.159   9.433   8.738  0.1608 -0.2446  0.1915
  506loPI   C2A 8088   1.481   9.344   8.451  0.0769  0.1505 -0.0091
  506loPI   C3A 8089   1.660   9.196   7.995  0.2905  0.0514 -0.1198
  506loPI   C4A 8090   1.886   9.428   7.772 -0.0559 -0.0071  0.1830
  506loPI   C5A 8091   1.921   9.796   7.728 -0.1716  0.0405  0.1878
  506loPI   C6A 8092   1.807  10.098   7.447  0.3272  0.0531  0.0419
  506loPI   C1B 8093   0.500   9.632   8.736 -0.2325 -0.0166 -0.2716
  506loPI   C2B 8094   0.397   9.648   8.268  0.0233 -0.0784  0.1765
  506loPI   C3B 8095   0.242   9.625   7.799 -0.0634  0.0128  0.0516
  506loPI   C4B 8096  -0.028   9.419   7.445  0.0759  0.1850  0.1598
  507loPI    C1 8097  16.323  10.336  10.018  0.0357  0.2143  0.1631
  507loPI    C2 8098  16.014  10.579  10.097 -0.2288 -0.0156 -0.1373
  507loPI    C3 8099  16.055  10.235  10.298 -0.0199  0.1337  0.0815
  507loPI   PO4 8100  16.499  10.454   9.792 -0.1423  0.0887  0.1854
  507loPI   GL1 8101  16.432  10.371   9.276  0.4197  0.0773  0.4799
  507loPI   GL2 8102  16.257  10.616   9.212 -0.2117 -0.2680  0.3645
  507loPI   C1A 8103  16.629  10.558   8.830  0.0890  0.1596  0.0644
  507loPI   C2A 8104  16.435  10.697   8.458  0.0331  0.0398  0.0828
  507loPI   C3A 8105  16.270  10.973   8.220 -0.0508 -0.1206 -0.1434
  507loPI   C4A 8106  16.271  11.430   8.103  0.0851  0.0936  0.1485
  507loPI   C5A 8107  16.219  11.552   7.669  0.2541 -0.0412  0.0298
  507loPI   C6A 8108  16.038  11.665   7.367  0.1865  0.1914 -0.0848
  507loPI   C1B 8109  16.094  10.441   8.843  0.1576 -0.1635  0.0698
  507loPI   C2B 8110  16.108  10.270   8.392 -0.0146  0.1612 -0.0451
  507loPI   C3B 8111  15.871  10.130   8.106  0.0242 -0.2675  0.5371
  507loPI   C4B 8112  15.876   9.985   7.732 -0.2424 -0.1757  0.0726
  508loPI    C1 8113  18.694   3.186  10.495 -0.0336 -0.0566  0.0567
  508loPI    C2 8114  18.532   3.229  10.858 -0.1700 -0.3185  0.0293
  508loPI    C3 8115  18.873   3.026  10.814  0.0871  0.0937  0.0654
  508loPI   PO4 8116  18.617   3.221  10.144  0.0741  0.1472 -0.0292
  508loPI   GL1 8117  18.667   3.152   9.650 -0.1261  0.0682  0.1398
  508loPI   GL2 8118  18.900   3.422   9.579  0.3282 -0.1217 -0.0445
  508loPI   C1A 8119  18.547   3.296   9.204  0.2192  0.2308 -0.1289
  508loPI   C2A 8120  18.477   3.059   8.852  0.1356  0.0706  0.0699
  508loPI   C3A 8121  18.262   2.883   8.578 -0.0209  0.0168  0.1313
  508loPI   C4A 8122  18.125   2.842   8.225 -0.0644 -0.2730  0.1585
  508loPI   C5A 8123  17.821   2.670   8.031  0.1333 -0.3505  0.1514
  508loPI   C6A 8124  17.625   2.993   7.662 -0.2168  0.0144  0.1595
  508loPI   C1B 8125  19.127   3.342   9.108 -0.0171 -0.2301 -0.0862
  508loPI   C2B 8126  19.339   3.178   8.684 -0.1358 -0.0060  0.2113
  508loPI   C3B 8127  19.436   3.294   8.381 -0.1640  0.0333 -0.1682
  508loPI   C4B 8128  19.593   3.186   7.912 -0.2380 -0.0953  0.0603
  509loPI    C1 8129   4.392   0.304   9.516  0.0985  0.3581 -0.0881
  509loPI    C2 8130   4.271   0.188   9.879  0.0880  0.0379 -0.1910
  509loPI    C3 8131   4.094   0.498   9.699 -0.1962 -0.0695 -0.1012
  509loPI   PO4 8132   4.370   0.118   9.374  0.2468  0.0150 -0.0532
  509loPI   GL1 8133   4.182  -0.150   8.994  0.2080 -0.0850  0.0875
  509loPI   GL2 8134   3.984   0.090   8.856 -0.0139 -0.0863  0.1213
  509loPI   C1A 8135   4.131  -0.437   8.596  0.3401  0.0113 -0.0567
  509loPI   C2A 8136   3.998  -0.438   8.155 -0.4265 -0.1738 -0.0176
  509loPI   C3A 8137   4.047  -0.741   7.772 -0.0146 -0.2267  0.3202
  509loPI   C4A 8138   3.901  -0.990   7.442 -0.2079 -0.0038 -0.0934
  509loPI   C5A 8139   3.675  -1.288   7.247  0.0101 -0.1043  0.0531
  509loPI   C6A 8140   3.433  -1.357   6.986  0.0880  0.1097  0.0002
  509loPI   C1B 8141   3.894   0.132   8.457  0.2438 -0.0422 -0.3413
  509loPI   C2B 8142   3.691  -0.053   8.223  0.0847  0.0403 -0.0273
  509loPI   C3B 8143   3.696  -0.202   7.818  0.1080 -0.0793  0.3307
  509loPI   C4B 8144   4.015  -0.274   7.625  0.4107 -0.3406  0.2130
  510loPI    C1 8145   2.371   0.315   9.761 -0.0738  0.2391 -0.0728
  510loPI    C2 8146   2.439   0.242  10.148 -0.0198 -0.1886 -0.1589
  510loPI    C3 8147   2.621   0.549   9.968 -0.1570  0.1023  0.1867
  510loPI   PO4 8148   2.352   0.068   9.655  0.3261 -0.0881  0.2485
  510loPI   GL1 8149   2.370  -0.017   9.240 -0.0404 -0.0781 -0.0976
  510loPI   GL2 8150   2.730  -0.056   9.146 -0.2306  0.0045  0.0014
  510loPI   C1A 8151   2.526   0.381   9.066  0.0766 -0.1316  0.4998
  510loPI   C2A 8152   2.544   0.779   8.826  0.0227 -0.0012  0.3234
  510loPI   C3A 8153   2.572   1.000   8.375 -0.3829  0.0609  0.4183
  510loPI   C4A 8154   2.754   0.770   8.044  0.1770  0.1585  0.3530
  510loPI   C5A 8155   2.847   0.505   7.662 -0.3714  0.1714 -0.1824
  510loPI   C6A 8156   3.172   0.350   7.366 -0.4040 -0.2732  0.3291
  510loPI   C1B 8157   2.448   0.015   8.773  0.0991  0.0338 -0.1104
  510loPI   C2B 8158   2.369   0.315   8.499 -0.2528 -0.2053  0.0031
  510loPI   C3B 8159   2.299   0.232   8.105  0.1109 -0.0283  0.0091
  510loPI   C4B 8160   2.314   0.469   7.781  0.4100  0.2130 -0.0020
  511loPI    C1 8161  15.952  12.541   9.645  0.0620 -0.2208  0.0763
  511loPI    C2 8162  16.190  12.690   9.930  0.0371  0.0998 -0.0663
  511loPI    C3 8163  15.817  12.576  10.020  0.1024 -0.0076  0.0719
  511loPI   PO4 8164  16.069  12.439   9.474  0.0031 -0.1924 -0.1197
  511loPI   GL1 8165  16.094  12.627   9.057  0.1727 -0.0183  0.1599
  511loPI   GL2 8166  16.383  12.792   9.033 -0.3104 -0.0236 -0.1837
  511loPI   C1A 8167  16.171  12.744   8.556  0.2033  0.1118  0.0868
  511loPI   C2A 8168  16.067  12.952   8.253 -0.1712 -0.4423  0.0463
  511loPI   C3A 8169  15.733  12.910   7.867 -0.0333  0.0902 -0.0427
  511loPI   C4A 8170  15.476  13.267   7.600  0.0145 -0.2102  0.3056
  511loPI   C5A 8171  15.625  13.625   7.398  0.0601 -0.1675  0.1457
  511loPI   C6A 8172  15.701  14.127   7.448  0.0341  0.2746 -0.1062
  511loPI   C1B 8173  16.359  13.176   8.752 -0.1435 -0.0149 -0.0547
  511loPI   C2B 8174  16.454  13.270   8.310  0.0954  0.0392 -0.0420
  511loPI   C3B 8175  16.556  13.218   7.922 -0.1750  0.0074 -0.0252
  511loPI   C4B 8176  16.951  13.015   7.677 -0.0646 -0.0272  0.0231
  512loPI    C1 8177   5.447  18.810   9.552  0.0277  0.0650  0.1160
  512loPI    C2 8178   5.134  18.634   9.728 -0.0630  0.1246  0.0158
  512loPI    C3 8179   5.449  18.747   9.947 -0.1976  0.2486  0.1490
  512loPI   PO4 8180   5.263  18.922   9.298 -0.0704  0.2476 -0.0834
  512loPI   GL1 8181   5.437  18.969   8.969  0.1475  0.1829 -0.0428
  512loPI   GL2 8182   5.602  19.199   8.930  0.1228  0.2275  0.3984
  512loPI   C1A 8183   5.570  18.730   8.603 -0.2296 -0.0129  0.1097
  512loPI   C2A 8184   5.482  18.800   8.352 -0.0965  0.1656  0.1390
  512loPI   C3A 8185   5.494  18.776   7.900  0.1632 -0.0112 -0.2597
  512loPI   C4A 8186   5.391  18.846   7.459 -0.2896 -0.2742 -0.1415
  512loPI   C5A 8187   5.122  18.727   7.157  0.0676 -0.0339 -0.1426
  512loPI   C6A 8188   5.211  18.436   6.787 -0.0531 -0.0732 -0.5048
  512loPI   C1B 8189   5.646  19.321   8.515 -0.1015  0.0379  0.0161
  512loPI   C2B 8190   5.731  19.517   8.164 -0.4683 -0.2014 -0.1375
  512loPI   C3B 8191   5.768  19.789   7.768  0.3142  0.1511 -0.2010
  512loPI   C4B 8192   5.913  20.065   7.349 -0.1011  0.0109 -0.0196
  513loPI    C1 8193   0.276  12.078   9.969 -0.0352 -0.0580 -0.2116
  513loPI    C2 8194   0.549  11.798  10.053 -0.0469  0.0167  0.0873
  513loPI    C3 8195   0.168  11.743  10.161 -0.1361 -0.0472 -0.2494
  513loPI   PO4 8196   0.344  12.097   9.684 -0.1801 -0.1650  0.1105
  513loPI   GL1 8197   0.155  12.309   9.280 -0.1663 -0.0718  0.0317
  513loPI   GL2 8198   0.447  12.006   9.168  0.1670 -0.1273  0.1803
  513loPI   C1A 8199   0.279  12.288   8.827 -0.0861 -0.4545  0.0361
  513loPI   C2A 8200   0.228  12.137   8.431 -0.1702 -0.0407  0.0193
  513loPI   C3A 8201   0.138  12.304   8.089  0.2214 -0.0465  0.0205
  513loPI   C4A 8202   0.383  12.673   8.026 -0.2710 -0.1177  0.1211
  513loPI   C5A 8203   0.692  12.827   7.737 -0.1260  0.0727  0.0562
  513loPI   C6A 8204   0.871  12.737   7.290  0.2737  0.0658  0.2255
  513loPI   C1B 8205   0.807  12.033   8.747  0.0610 -0.0127  0.0207
  513loPI   C2B 8206   0.956  12.008   8.322  0.1631 -0.0580  0.2668
  513loPI   C3B 8207   0.867  12.071   7.941 -0.1172 -0.0496 -0.1476
  513loPI   C4B 8208   1.100  12.245   7.567  0.1809 -0.0609 -0.2671
  514loPI    C1 8209   7.897  11.736  10.013  0.4046 -0.1097  0.1534
  514loPI    C2 8210   7.814  11.496  10.322  0.0745 -0.0055  0.1501
  514loPI    C3 8211   7.528  11.730  10.168  0.2567  0.0044 -0.1827
  514loPI   PO4 8212   7.989  11.642   9.821 -0.1976  0.1130 -0.2121
  514loPI   GL1 8213   7.914  11.553   9.303 -0.3041 -0.2084  0.1197
  514loPI   GL2 8214   7.610  11.788   9.332 -0.1684  0.0737 -0.2171
  514loPI   C1A 8215   8.006  11.628   8.891  0.2350 -0.2312 -0.0687
  514loPI   C2A 8216   8.203  11.818   8.556 -0.1594 -0.2848  0.1568
  514loPI   C3A 8217   8.230  11.900   8.137 -0.2843 -0.0656  0.1011
  514loPI   C4A 8218   8.063  11.856   7.745  0.1159  0.0225 -0.1135
  514loPI   C5A 8219   8.281  12.031   7.320 -0.0057  0.5506 -0.0070
  514loPI   C6A 8220   8.294  12.400   7.102  0.1496  0.1648 -0.0138
  514loPI   C1B 8221   7.635  11.989   9.014  0.0631  0.1455  0.0782
  514loPI   C2B 8222   7.697  11.969   8.567 -0.0287  0.0373 -0.2815
  514loPI   C3B 8223   7.765  12.055   8.223 -0.0778 -0.2580  0.1153
  514loPI   C4B 8224   7.840  12.295   7.808 -0.3229  0.0877  0.1873
  515loPI    C1 8225   5.562  18.370   9.449 -0.1108  0.0508  0.1066
  515loPI    C2 8226   5.846  18.461   9.716  0.0761 -0.1327 -0.0265
  515loPI    C3 8227   5.522  18.257   9.831 -0.0962  0.2380  0.1646
  515loPI   PO4 8228   5.724  18.223   9.314  0.1487 -0.2181 -0.1980
  515loPI   GL1 8229   5.856  18.410   8.939 -0.0560  0.1710  0.3030
  515loPI   GL2 8230   5.415  18.313   8.864  0.1112  0.0271 -0.0560
  515loPI   C1A 8231   6.006  18.290   8.535 -0.0872  0.1184 -0.0535
  515loPI   C2A 8232   5.846  18.504   8.171  0.2067  0.0016 -0.0289
  515loPI   C3A 8233   5.910  18.315   7.841  0.2673 -0.1488  0.4659
  515loPI   C4A 8234   6.086  18.312   7.391 -0.4741  0.1429 -0.0479
  515loPI   C5A 8235   6.156  18.431   7.010  0.2685  0.1721  0.2514
  515loPI   C6A 8236   6.401  18.361   6.625 -0.2800 -0.0348  0.0520
  515loPI   C1B 8237   5.420  18.306   8.382  0.0875 -0.0951 -0.2696
  515loPI   C2B 8238   5.316  18.300   7.942 -0.3073 -0.0577  0.3112
  515loPI   C3B 8239   5.381  18.306   7.522  0.4996 -0.1148 -0.1431
  515loPI   C4B 8240   5.335  18.053   7.172 -0.1915 -0.4686 -0.3118
  516loPI    C1 8241  17.924   8.190   9.984  0.1812 -0.0021 -0.2521
  516loPI    C2 8242  17.614   8.055  10.198  0.2648  0.1359 -0.0415
  516loPI    C3 8243  17.816   7.805   9.960  0.1357 -0.0065 -0.0034
  516loPI   PO4 8244  17.872   8.384   9.865 -0.0045 -0.1270  0.0582
  516loPI   GL1 8245  17.521   8.390   9.552 -0.0913 -0.2551 -0.1789
  516loPI   GL2 8246  17.362   8.172   9.792 -0.0123  0.2030  0.3032
  516loPI   C1A 8247  17.201   8.343   9.217  0.0791 -0.1123 -0.0609
  516loPI   C2A 8248  17.131   8.331   8.788  0.1938 -0.2635  0.1261
  516loPI   C3A 8249  17.114   8.101   8.409 -0.1259 -0.2023  0.0609
  516loPI   C4A 8250  16.952   7.827   8.135 -0.0346 -0.0250 -0.0863
  516loPI   C5A 8251  16.974   7.415   7.987  0.1537 -0.0199 -0.2480
  516loPI   C6A 8252  16.900   7.303   7.536 -0.2495  0.0360 -0.0535
  516loPI   C1B 8253  17.525   7.830   9.582  0.2412  0.2169 -0.0569
  516loPI   C2B 8254  17.361   7.553   9.328 -0.1194  0.1831  0.0955
  516loPI   C3B 8255  17.201   7.618   9.019  0.0171 -0.1008 -0.1676
  516loPI   C4B 8256  17.049   7.626   8.598  0.0067 -0.0468 -0.0638
  517loPI    C1 8257  14.935  10.772  10.112 -0.0091 -0.1496 -0.1843
  517loPI    C2 8258  15.279  10.969  10.056 -0.1588  0.1295 -0.1421
  517loPI    C3 8259  15.161  10.872  10.426  0.0661 -0.3238 -0.1820
  517loPI   PO4 8260  14.819  10.830   9.901  0.3538 -0.1068 -0.0496
  517loPI   GL1 8261  14.735  11.051   9.620  0.1159  0.0571 -0.0389
  517loPI   GL2 8262  14.547  11.283   9.500 -0.1625  0.0473  0.1081
  517loPI   C1A 8263  14.954  10.984   9.240 -0.0074  0.0654 -0.2254
  517loPI   C2A 8264  15.127  10.863   8.764  0.0175  0.2082  0.0633
  517loPI   C3A 8265  15.010  10.786   8.320  0.0144  0.0267  0.3080
  517loPI   C4A 8266  14.981  10.794   7.940  0.3472  0.0415  0.3081
  517loPI   C5A 8267  14.743  10.792   7.604 -0.2638  0.0395  0.3126
  517loPI   C6A 8268  14.332  11.088   7.436 -0.2234  0.0540 -0.0714
  517loPI   C1B 8269  14.380  11.026   9.259 -0.2036  0.1296  0.1363
  517loPI   C2B 8270  14.113  11.008   8.793 -0.1761 -0.3983 -0.2482
  517loPI   C3B 8271  14.184  10.991   8.362  0.2968  0.1861  0.3338
  517loPI   C4B 8272  14.144  11.059   8.004 -0.1388  0.2786 -0.0508
  518loPI    C1 8273  17.394  15.272  10.204  0.1419  0.0492  0.0958
  518loPI    C2 8274  17.026  15.425  10.172  0.0915 -0.0908 -0.0032
  518loPI    C3 8275  17.322  15.646  10.325  0.0176  0.1020 -0.1367
  518loPI   PO4 8276  17.419  15.175   9.965 -0.2157  0.0449  0.2392
  518loPI   GL1 8277  17.418  15.253   9.544  0.5914 -0.0646 -0.0968
  518loPI   GL2 8278  17.066  15.184   9.669 -0.0985 -0.1331 -0.1630
  518loPI   C1A 8279  17.520  15.329   9.102  0.2336 -0.2157 -0.3928
  518loPI   C2A 8280  17.441  15.297   8.661 -0.1144  0.1269  0.2093
  518loPI   C3A 8281  17.636  14.993   8.381  0.1730 -0.2436  0.0046
  518loPI   C4A 8282  17.753  15.103   7.929  0.0103  0.0295  0.3169
  518loPI   C5A 8283  17.894  15.032   7.501 -0.2540 -0.0556  0.1910
  518loPI   C6A 8284  18.072  14.688   7.280  0.1919 -0.0431  0.0151
  518loPI   C1B 8285  17.046  14.985   9.242  0.0231 -0.0552  0.1438
  518loPI   C2B 8286  16.948  15.125   8.775 -0.1376  0.0654 -0.0460
  518loPI   C3B 8287  17.106  15.100   8.345 -0.3789  0.1205 -0.1583
  518loPI   C4B 8288  17.238  15.204   7.908  0.3091  0.4013 -0.0517
  519loPI    C1 8289   3.880   4.153   9.833 -0.2319 -0.1282 -0.0286
  519loPI    C2 8290   3.606   4.290  10.090 -0.1281  0.1280 -0.0518
  519loPI    C3 8291   3.858   4.544   9.912  0.0865 -0.0978 -0.0769
  519loPI   PO4 8292   3.742   4.055   9.587 -0.2184  0.1682 -0.3170
  519loPI   GL1 8293   3.644   4.075   9.106 -0.1494  0.1788  0.1073
  519loPI   GL2 8294   3.411   4.308   9.178 -0.3859  0.0799  0.0356
  519loPI   C1A 8295   3.726   4.025   8.626 -0.1891  0.1513  0.0279
  519loPI   C2A 8296   3.885   3.919   8.239 -0.1233 -0.1318 -0.0938
  519loPI   C3A 8297   4.049   3.718   8.072  0.3361  0.1073 -0.2220
  519loPI   C4A 8298   3.935   3.589   7.628 -0.3130  0.1113  0.2879
  519loPI   C5A 8299   3.516   3.747   7.491 -0.1364 -0.1368  0.0046
  519loPI   C6A 8300   3.288   4.104   7.486 -0.1702 -0.1897 -0.0612
  519loPI   C1B 8301   3.198   4.022   8.888 -0.0266 -0.1087 -0.1777
  519loPI   C2B 8302   2.970   3.874   8.533  0.1308  0.0680 -0.0280
  519loPI   C3B 8303   2.952   3.613   8.091  0.2144 -0.3372  0.3479
  519loPI   C4B 8304   3.002   3.828   7.768 -0.2236  0.2124 -0.2231
  520loPI    C1 8305   6.663   0.440   9.768 -0.0138  0.1413 -0.0288
  520loPI    C2 8306   6.286   0.430   9.903 -0.0033  0.0687 -0.0043
  520loPI    C3 8307   6.534   0.126   9.980  0.1081  0.1892  0.1179
  520loPI   PO4 8308   6.751   0.509   9.413  0.0413 -0.0421  0.1056
  520loPI   GL1 8309   6.646   0.815   9.052  0.0285  0.3248  0.1655
  520loPI   GL2 8310   6.445   0.896   8.989 -0.0040 -0.1183  0.2410
  520loPI   C1A 8311   6.884   0.985   8.656 -0.4129 -0.0228  0.1263
  520loPI   C2A 8312   6.949   1.187   8.229 -0.1403 -0.0415  0.1940
  520loPI   C3A 8313   6.948   1.450   7.918 -0.1194 -0.1878  0.0513
  520loPI   C4A 8314   6.694   1.596   7.585 -0.1724 -0.0263  0.1098
  520loPI   C5A 8315   6.578   1.400   7.229  0.2816  0.1502  0.1683
  520loPI   C6A 8316   6.371   1.517   6.778  0.1738 -0.0569  0.2270
  520loPI   C1B 8317   6.374   1.149   8.683  0.1616 -0.2651 -0.1594
  520loPI   C2B 8318   6.375   1.269   8.221  0.1158  0.2482  0.1632
  520loPI   C3B 8319   6.536   1.161   7.843 -0.0141  0.2199 -0.0454
  520loPI   C4B 8320   6.873   1.162   7.517  0.3584  0.1741  0.1764
  521loPI    C1 8321   1.078   7.041   9.973  0.1696  0.0662 -0.0561
  521loPI    C2 8322   1.250   7.387  10.077  0.0888  0.1131 -0.0778
  521loPI    C3 8323   1.275   7.071  10.320  0.0083  0.1863  0.0267
  521loPI   PO4 8324   1.094   7.086   9.660  0.2049  0.2940 -0.2523
  521loPI   GL1 8325   0.896   7.297   9.310  0.1512  0.2536  0.0689
  521loPI   GL2 8326   0.633   7.406   9.296  0.0701  0.0923 -0.2208
  521loPI   C1A 8327   0.793   7.281   8.836 -0.0566  0.0579  0.0029
  521loPI   C2A 8328   0.763   7.376   8.450  0.0153 -0.0724  0.0252
  521loPI   C3A 8329   0.992   7.486   8.153 -0.1735  0.2589  0.0806
  521loPI   C4A 8330   1.183   7.710   7.811 -0.1224 -0.2704 -0.0138
  521loPI   C5A 8331   1.354   7.941   7.405 -0.0373  0.2050 -0.0718
  521loPI   C6A 8332   1.358   7.820   6.908 -0.0066  0.0554  0.0082
  521loPI   C1B 8333   0.316   7.261   8.997 -0.0619  0.0493  0.0581
  521loPI   C2B 8334   0.151   6.843   8.871 -0.0209  0.1439  0.0458
  521loPI   C3B 8335  -0.174   6.637   8.658 -0.7085 -0.3804 -0.1444
  521loPI   C4B 8336   0.110   6.355   8.441  0.2919  0.4239 -0.2264
  522loPI    C1 8337   8.739  11.091   9.812  0.1637  0.2346 -0.0414
  522loPI    C2 8338   8.923  10.808  10.027  0.1223  0.0663 -0.2252
  522loPI    C3 8339   8.675  11.064  10.206  0.1799  0.0029 -0.0529
  522loPI   PO4 8340   8.780  10.978   9.537  0.1990  0.0229  0.1901
  522loPI   GL1 8341   8.595  11.119   9.126 -0.1196 -0.1427  0.2260
  522loPI   GL2 8342   8.281  11.110   9.058 -0.0899  0.2341 -0.0737
  522loPI   C1A 8343   8.902  11.054   8.742  0.2224 -0.0659  0.0035
  522loPI   C2A 8344   8.799  11.191   8.487  0.2226 -0.1701 -0.1695
  522loPI   C3A 8345   8.703  11.245   8.004  0.1719 -0.1062 -0.0565
  522loPI   C4A 8346   8.669  11.189   7.547 -0.0016  0.1167 -0.0144
  522loPI   C5A 8347   8.507  10.974   7.254  0.0292  0.2709  0.0179
  522loPI   C6A 8348   8.197  10.617   7.228  0.0653  0.2932 -0.0339
  522loPI   C1B 8349   8.301  11.170   8.673 -0.1513 -0.1195 -0.0432
  522loPI   C2B 8350   8.210  11.188   8.287  0.0453  0.2294 -0.0718
  522loPI   C3B 8351   8.262  11.391   7.900  0.0194  0.0675  0.1162
  522loPI   C4B 8352   7.907  11.342   7.685  0.2413 -0.0375  0.0256
  523loPI    C1 8353   7.882  13.366   9.846 -0.0923 -0.0574 -0.0031
  523loPI    C2 8354   7.996  13.749   9.860 -0.2209 -0.0090 -0.2226
  523loPI    C3 8355   7.709  13.617  10.105 -0.0261 -0.0189  0.0040
  523loPI   PO4 8356   7.860  13.298   9.590  0.1602 -0.2072 -0.2055
  523loPI   GL1 8357   7.820  13.492   9.223 -0.2842 -0.0488  0.1180
  523loPI   GL2 8358   8.172  13.493   9.095  0.2951 -0.3260  0.2806
  523loPI   C1A 8359   7.545  13.637   8.857  0.1420 -0.3402  0.1517
  523loPI   C2A 8360   7.397  13.287   8.438 -0.0594 -0.0322 -0.0704
  523loPI   C3A 8361   7.146  13.190   8.225  0.0786  0.2380  0.1627
  523loPI   C4A 8362   7.120  13.052   7.833  0.2384 -0.0304 -0.1704
  523loPI   C5A 8363   6.875  13.145   7.465  0.1953 -0.1702 -0.1031
  523loPI   C6A 8364   6.854  12.810   7.036  0.5020  0.1067  0.1592
  523loPI   C1B 8365   8.090  13.598   8.591 -0.3962  0.2038  0.0498
  523loPI   C2B 8366   7.752  13.675   8.283 -0.1579 -0.0796 -0.1346
  523loPI   C3B 8367   7.557  13.558   7.904 -0.2950  0.2080  0.2248
  523loPI   C4B 8368   7.709  13.643   7.404 -0.3077 -0.0237  0.3333
  524loPI    C1 8369   3.603  19.016   9.484 -0.1992  0.0079 -0.0806
  524loPI    C2 8370   3.834  19.101   9.798 -0.1780  0.1361 -0.1305
  524loPI    C3 8371   3.448  19.012   9.853 -0.2066  0.2883 -0.0789
  524loPI   PO4 8372   3.708  18.957   9.192 -0.2480 -0.0968  0.3154
  524loPI   GL1 8373   3.490  19.046   8.836 -0.1558 -0.1584  0.0361
  524loPI   GL2 8374   3.257  19.091   8.971  0.0012 -0.0442 -0.1889
  524loPI   C1A 8375   3.301  18.944   8.421  0.0269  0.0552  0.1838
  524loPI   C2A 8376   3.196  18.948   7.980  0.0137  0.0553 -0.2509
  524loPI   C3A 8377   3.191  19.018   7.521 -0.0483 -0.2528  0.3022
  524loPI   C4A 8378   3.075  19.147   7.074 -0.2706  0.3854  0.1430
  524loPI   C5A 8379   3.049  19.566   6.883 -0.0904 -0.1032 -0.2693
  524loPI   C6A 8380   3.384  19.873   6.590  0.2447 -0.1660 -0.0022
  524loPI   C1B 8381   2.999  18.899   8.802 -0.0304  0.1853  0.2045
  524loPI   C2B 8382   2.768  18.944   8.415 -0.1839  0.0739  0.1921
  524loPI   C3B 8383   2.585  18.745   8.067 -0.2337 -0.0601 -0.1560
  524loPI   C4B 8384   2.413  18.340   7.863  0.0072  0.1947  0.2886
  525loPI    C1 8385   2.505  18.659   9.965 -0.3000 -0.1550  0.1983
  525loPI    C2 8386   2.629  19.017  10.092 -0.2425 -0.0784 -0.0676
  525loPI    C3 8387   2.677  18.695  10.324  0.0374  0.0257  0.0238
  525loPI   PO4 8388   2.304  18.662   9.793  0.2356 -0.2795  0.3350
  525loPI   GL1 8389   2.061  18.388   9.452 -0.4343  0.4328 -0.2334
  525loPI   GL2 8390   2.036  18.059   9.462 -0.1509  0.1072  0.2576
  525loPI   C1A 8391   1.952  18.407   8.920  0.3211 -0.1731 -0.0800
  525loPI   C2A 8392   2.201  18.790   8.737  0.2742 -0.0050 -0.2494
  525loPI   C3A 8393   2.173  18.924   8.328 -0.0409 -0.3122  0.1235
  525loPI   C4A 8394   1.954  19.033   8.020 -0.1134  0.2532 -0.0434
  525loPI   C5A 8395   1.614  19.089   7.782  0.1426  0.0315 -0.0891
  525loPI   C6A 8396   1.305  19.259   7.473 -0.0476  0.0256 -0.1429
  525loPI   C1B 8397   1.774  18.040   9.187 -0.3631  0.3289  0.1393
  525loPI   C2B 8398   1.864  17.967   8.739 -0.0316 -0.0783 -0.1011
  525loPI   C3B 8399   1.746  17.647   8.447 -0.1860  0.2814  0.1376
  525loPI   C4B 8400   1.601  17.310   8.719 -0.1698  0.3133 -0.3510
  526loPI    C1 8401   3.687  16.744  10.011 -0.0860  0.0674  0.1117
  526loPI    C2 8402   3.918  16.824  10.327 -0.2119  0.2011  0.1713
  526loPI    C3 8403   3.520  16.833  10.363 -0.2270  0.1357  0.0289
  526loPI   PO4 8404   3.885  16.910   9.816  0.0212 -0.1639  0.2167
  526loPI   GL1 8405   3.736  17.026   9.408  0.0058  0.1767 -0.0970
  526loPI   GL2 8406   4.096  17.018   9.292  0.1234 -0.2913 -0.2281
  526loPI   C1A 8407   3.535  17.068   9.040 -0.2264 -0.0133  0.0814
  526loPI   C2A 8408   3.548  16.838   8.577 -0.2300  0.0509 -0.1387
  526loPI   C3A 8409   3.693  16.675   8.235  0.3107 -0.1752  0.0866
  526loPI   C4A 8410   3.710  16.417   7.765  0.0676 -0.1077 -0.1513
  526loPI   C5A 8411   3.578  16.079   7.453 -0.1121  0.2187  0.2319
  526loPI   C6A 8412   3.256  15.842   7.514  0.1325 -0.0006  0.2065
  526loPI   C1B 8413   4.067  16.949   8.786 -0.0753  0.0105  0.3042
  526loPI   C2B 8414   4.137  16.900   8.275 -0.3055 -0.2086 -0.0428
  526loPI   C3B 8415   4.082  16.648   7.885 -0.0236 -0.1351 -0.2730
  526loPI   C4B 8416   4.439  16.326   7.738  0.3345 -0.0351  0.0346
  527loPI    C1 8417  10.423  11.536   9.549 -0.2399  0.0853  0.0487
  527loPI    C2 8418  10.659  11.364   9.823  0.0247  0.1130 -0.1584
  527loPI    C3 8419  10.350  11.590   9.939  0.0259 -0.0225  0.1156
  527loPI   PO4 8420  10.385  11.394   9.341 -0.2382  0.1399 -0.1240
  527loPI   GL1 8421  10.493  11.525   8.979 -0.0933 -0.1151 -0.2599
  527loPI   GL2 8422  10.590  11.920   8.884  0.0519 -0.1644 -0.2736
  527loPI   C1A 8423  10.412  11.288   8.620  0.2049 -0.0033 -0.3617
  527loPI   C2A 8424  10.623  10.971   8.370  0.3622 -0.1573 -0.2253
  527loPI   C3A 8425  10.680  10.922   7.966  0.0782  0.2384  0.3150
  527loPI   C4A 8426  10.593  11.141   7.612  0.1759  0.0828 -0.1371
  527loPI   C5A 8427  10.795  11.410   7.308 -0.1694 -0.1251  0.1078
  527loPI   C6A 8428  10.559  11.418   6.918 -0.0937 -0.1790 -0.2198
  527loPI   C1B 8429  10.644  11.687   8.482 -0.0052 -0.3247 -0.0436
  527loPI   C2B 8430  10.640  11.431   8.082  0.1672 -0.1658  0.0087
  527loPI   C3B 8431  10.715  11.667   7.745  0.1799  0.2621  0.0542
  527loPI   C4B 8432  10.732  12.201   7.687  0.0555 -0.0719  0.2901
  528loPI    C1 8433  11.915  12.574   9.294 -0.1648  0.0924 -0.0066
  528loPI    C2 8434  11.956  12.842   9.588 -0.0235 -0.0350  0.0917
  528loPI    C3 8435  12.279  12.665   9.434 -0.1006 -0.0016 -0.1112
  528loPI   PO4 8436  11.671  12.530   9.135 -0.0910 -0.1224 -0.2970
  528loPI   GL1 8437  11.762  12.270   8.771 -0.1349  0.1542  0.0497
  528loPI   GL2 8438  12.095  12.362   8.859 -0.2137  0.1266 -0.3788
  528loPI   C1A 8439  11.771  12.605   8.459  0.0398  0.1654  0.1375
  528loPI   C2A 8440  11.676  12.641   7.977  0.1005 -0.0936  0.4035
  528loPI   C3A 8441  11.733  12.580   7.608  0.0385 -0.1595 -0.1974
  528loPI   C4A 8442  11.836  12.912   7.286  0.1384  0.1025  0.0558
  528loPI   C5A 8443  12.058  13.176   7.019 -0.1913 -0.0869 -0.0303
  528loPI   C6A 8444  12.314  13.598   6.981 -0.1576  0.2953  0.2272
  528loPI   C1B 8445  12.207  12.315   8.418 -0.1302 -0.2182 -0.1542
  528loPI   C2B 8446  12.085  12.277   7.974  0.0915  0.0171  0.2811
  528loPI   C3B 8447  12.188  12.120   7.531 -0.0139  0.1725  0.2533
  528loPI   C4B 8448  12.035  11.783   7.325  0.0677  0.1940  0.1497
  529loPI    C1 8449  11.418  18.206   9.985  0.1015  0.0634 -0.0352
  529loPI    C2 8450  11.254  17.987  10.277  0.0408  0.0645 -0.0683
  529loPI    C3 8451  11.323  18.376  10.334 -0.0692  0.0876 -0.0924
  529loPI   PO4 8452  11.238  18.226   9.726  0.0282 -0.2131  0.1812
  529loPI   GL1 8453  11.462  18.332   9.363  0.3510 -0.0990 -0.0211
  529loPI   GL2 8454  11.715  18.523   9.590 -0.1333  0.3124 -0.2755
  529loPI   C1A 8455  11.432  18.462   8.947 -0.1529  0.0842  0.4392
  529loPI   C2A 8456  11.375  18.403   8.509 -0.3090 -0.0057  0.2619
  529loPI   C3A 8457  11.460  18.325   7.981 -0.0611 -0.0528  0.0585
  529loPI   C4A 8458  11.693  18.282   7.577 -0.1755  0.0269  0.0071
  529loPI   C5A 8459  11.833  18.570   7.178 -0.0350  0.1059  0.0085
  529loPI   C6A 8460  11.975  18.939   7.143  0.0633  0.0615  0.0567
  529loPI   C1B 8461  11.824  18.704   9.399  0.1935  0.2707  0.1687
  529loPI   C2B 8462  11.860  18.735   8.981 -0.1183  0.0146 -0.0609
  529loPI   C3B 8463  11.756  18.729   8.568 -0.1197  0.0918  0.0208
  529loPI   C4B 8464  11.720  18.857   8.177 -0.0877 -0.1113 -0.6638
  530loPI    C1 8465   8.295  16.133   9.875  0.0109 -0.1168 -0.1693
  530loPI    C2 8466   8.425  15.755   9.864 -0.0450 -0.1400 -0.0596
  530loPI    C3 8467   8.298  15.912  10.209  0.0119 -0.0092 -0.0975
  530loPI   PO4 8468   8.356  16.154   9.534  0.0571 -0.1177  0.2277
  530loPI   GL1 8469   8.486  16.542   9.238 -0.1867  0.2163  0.0681
  530loPI   GL2 8470   8.278  16.779   9.062  0.2081 -0.0579 -0.1928
  530loPI   C1A 8471   8.501  16.217   8.907 -0.0317  0.1883 -0.0950
  530loPI   C2A 8472   8.400  16.294   8.508  0.0824  0.4061 -0.0213
  530loPI   C3A 8473   8.153  16.329   8.118  0.0642  0.0379  0.5792
  530loPI   C4A 8474   7.982  16.620   7.776  0.1330  0.1862  0.0138
  530loPI   C5A 8475   7.869  16.900   7.497  0.3360  0.4891 -0.0952
  530loPI   C6A 8476   7.537  17.033   7.140 -0.2056 -0.0713  0.1877
  530loPI   C1B 8477   8.109  16.706   8.665 -0.1198 -0.0211  0.5539
  530loPI   C2B 8478   7.968  16.814   8.271 -0.1626  0.0895 -0.0279
  530loPI   C3B 8479   7.963  17.127   7.998 -0.2066 -0.0174 -0.2466
  530loPI   C4B 8480   7.925  17.574   7.903 -0.0998  0.3971  0.2554
  531loPI    C1 8481   7.905   5.089   9.854  0.2781  0.2023 -0.0467
  531loPI    C2 8482   7.791   4.866  10.166  0.2083  0.0678 -0.1672
  531loPI    C3 8483   8.080   5.139  10.211  0.1624  0.0864  0.0273
  531loPI   PO4 8484   7.955   4.976   9.659  0.1764  0.3312 -0.2209
  531loPI   GL1 8485   8.058   5.242   9.371  0.1900  0.0575  0.2607
  531loPI   GL2 8486   8.332   5.391   9.319 -0.0412 -0.0906 -0.1179
  531loPI   C1A 8487   8.052   5.040   8.982 -0.0739  0.0473 -0.0554
  531loPI   C2A 8488   7.904   4.952   8.624 -0.4209  0.1520  0.1596
  531loPI   C3A 8489   8.137   4.801   8.395 -0.0305 -0.0479 -0.2032
  531loPI   C4A 8490   8.363   4.855   8.034 -0.0385  0.1307 -0.2011
  531loPI   C5A 8491   8.472   4.800   7.591  0.2290 -0.0040  0.1364
  531loPI   C6A 8492   8.725   4.769   7.286 -0.2959 -0.0272  0.0697
  531loPI   C1B 8493   8.341   5.411   8.905 -0.0779  0.0009  0.2231
  531loPI   C2B 8494   8.403   5.377   8.498  0.0380  0.1400 -0.3052
  531loPI   C3B 8495   8.364   5.462   8.067  0.2007 -0.2596 -0.2240
  531loPI   C4B 8496   8.342   5.403   7.631  0.1674  0.0769  0.1931
  532loPI    C1 8497   8.788   1.737   9.722  0.0071 -0.0970 -0.2920
  532loPI    C2 8498   8.657   2.036   9.953 -0.1010 -0.2976 -0.0895
  532loPI    C3 8499   8.910   1.764  10.102 -0.0822 -0.3651 -0.2421
  532loPI   PO4 8500   8.603   1.704   9.449 -0.0629  0.0711  0.2154
  532loPI   GL1 8501   8.620   1.468   9.084 -0.1332 -0.4330  0.1083
  532loPI   GL2 8502   8.321   1.373   9.163  0.4304  0.0385  0.0680
  532loPI   C1A 8503   8.802   1.524   8.657  0.3310 -0.0333  0.2740
  532loPI   C2A 8504   9.130   1.519   8.280 -0.1363 -0.1447  0.0520
  532loPI   C3A 8505   9.274   1.306   7.915  0.1519  0.0564  0.0029
  532loPI   C4A 8506   9.504   1.079   7.547  0.0943 -0.0604 -0.2549
  532loPI   C5A 8507   9.587   1.150   7.076  0.2514  0.1350 -0.0271
  532loPI   C6A 8508   9.903   1.152   6.975  0.0862  0.1393 -0.1149
  532loPI   C1B 8509   8.265   1.302   8.649 -0.1270 -0.0405 -0.0263
  532loPI   C2B 8510   7.948   1.272   8.345 -0.4503  0.0211  0.1730
  532loPI   C3B 8511   8.005   1.251   7.961  0.1104  0.2205  0.1521
  532loPI   C4B 8512   7.906   1.360   7.591 -0.1028 -0.0898  0.0042
  533loPI    C1 8513  18.085   1.476  10.246 -0.2043 -0.3317  0.3275
  533loPI    C2 8514  18.304   1.150  10.319  0.1249 -0.1590  0.1308
  533loPI    C3 8515  18.341   1.472  10.553  0.1120 -0.1151  0.0728
  533loPI   PO4 8516  18.147   1.503   9.944 -0.1572 -0.3140 -0.2946
  533loPI   GL1 8517  18.513   1.415   9.762  0.0537  0.1952 -0.3774
  533loPI   GL2 8518  18.844   1.659   9.658  0.2166 -0.2662  0.5967
  533loPI   C1A 8519  18.456   1.170   9.421 -0.1074  0.0605 -0.1936
  533loPI   C2A 8520  18.580   0.979   9.056  0.1394  0.4053  0.3421
  533loPI   C3A 8521  18.771   0.973   8.627  0.3622 -0.0434  0.4195
  533loPI   C4A 8522  18.886   0.914   8.155 -0.0030  0.2305  0.3234
  533loPI   C5A 8523  19.125   0.609   7.830 -0.3140  0.0524  0.2535
  533loPI   C6A 8524  19.138   0.600   7.395  0.2184 -0.4487  0.3189
  533loPI   C1B 8525  18.748   1.664   9.285  0.1227  0.2310  0.4125
  533loPI   C2B 8526  18.635   1.456   8.923 -0.5511  0.2003  0.1637
  533loPI   C3B 8527  18.516   1.360   8.492  0.3066  0.1160  0.0443
  533loPI   C4B 8528  18.373   1.050   8.186  0.1780 -0.1855  0.0282
  534loPI    C1 8529  16.550   6.427  10.426  0.1501 -0.0259 -0.1090
  534loPI    C2 8530  16.708   6.108  10.609 -0.1448 -0.1987 -0.1488
  534loPI    C3 8531  16.697   6.461  10.797  0.1033 -0.2303 -0.0705
  534loPI   PO4 8532  16.577   6.387  10.242  0.0302 -0.0991 -0.4025
  534loPI   GL1 8533  16.349   6.388   9.850  0.2401  0.0078  0.2139
  534loPI   GL2 8534  16.175   6.036   9.773 -0.0365 -0.4811 -0.0221
  534loPI   C1A 8535  16.570   6.484   9.461  0.1676 -0.2716  0.0074
  534loPI   C2A 8536  16.544   6.469   9.007  0.1196  0.0868 -0.0799
  534loPI   C3A 8537  16.668   6.248   8.613  0.1331 -0.2753  0.1896
  534loPI   C4A 8538  16.859   6.102   8.148  0.2143  0.1881  0.0021
  534loPI   C5A 8539  16.974   6.112   7.817  0.1026  0.1997  0.0781
  534loPI   C6A 8540  17.199   5.849   7.438  0.2050 -0.0883 -0.1541
  534loPI   C1B 8541  16.494   5.969   9.506  0.0167 -0.2109 -0.1221
  534loPI   C2B 8542  16.840   5.994   9.284  0.1183  0.3173 -0.1385
  534loPI   C3B 8543  16.906   5.939   8.933  0.1237 -0.0185 -0.0952
  534loPI   C4B 8544  16.993   5.687   8.526 -0.1848  0.0807  0.0917
  535loPI    C1 8545  13.612  17.099   9.944  0.1566  0.0427 -0.0177
  535loPI    C2 8546  13.668  16.826  10.231 -0.1239  0.1112  0.1058
  535loPI    C3 8547  13.946  17.105  10.164  0.0241 -0.0149  0.1883
  535loPI   PO4 8548  13.254  16.999   9.895 -0.2444  0.0002 -0.2006
  535loPI   GL1 8549  13.086  17.041   9.549  0.1259 -0.1190  0.4602
  535loPI   GL2 8550  12.904  17.273   9.592 -0.0303  0.1857 -0.2116
  535loPI   C1A 8551  13.330  16.935   9.151 -0.0209  0.0059  0.0347
  535loPI   C2A 8552  13.229  16.743   8.681 -0.0401  0.2872 -0.0409
  535loPI   C3A 8553  13.223  16.825   8.253  0.1092 -0.0800 -0.2053
  535loPI   C4A 8554  13.518  16.864   7.968  0.0907  0.0270  0.0961
  535loPI   C5A 8555  13.927  17.128   7.902  0.2159 -0.2353  0.5084
  535loPI   C6A 8556  14.154  16.885   7.638 -0.0629 -0.0558 -0.3457
  535loPI   C1B 8557  13.032  17.503   9.312 -0.0304 -0.1354 -0.0487
  535loPI   C2B 8558  13.148  17.364   8.847 -0.0579  0.0843  0.1738
  535loPI   C3B 8559  13.158  17.279   8.401 -0.1215  0.0157  0.2507
  535loPI   C4B 8560  13.412  17.370   7.995  0.0830 -0.1187  0.2378
  536loPI    C1 8561  13.219  17.343  10.540 -0.1677 -0.0351 -0.0721
  536loPI    C2 8562  13.200  16.970  10.396  0.0661 -0.1134  0.0949
  536loPI    C3 8563  12.905  17.110  10.627  0.0287 -0.2323  0.1201
  536loPI   PO4 8564  13.509  17.408  10.316 -0.1087  0.0353 -0.0155
  536loPI   GL1 8565  13.356  17.561   9.818 -0.3987 -0.1231 -0.2062
  536loPI   GL2 8566  13.631  17.716   9.868  0.0922  0.3396 -0.0366
  536loPI   C1A 8567  13.572  17.406   9.447 -0.0565 -0.0780 -0.3194
  536loPI   C2A 8568  13.877  17.570   9.217 -0.0591  0.1887 -0.2224
  536loPI   C3A 8569  14.197  17.478   8.872  0.0187  0.1205 -0.1474
  536loPI   C4A 8570  14.575  17.377   8.726  0.1106  0.3324 -0.1465
  536loPI   C5A 8571  14.729  17.374   8.385  0.2119  0.2172 -0.1304
  536loPI   C6A 8572  14.988  17.091   8.257  0.1426  0.2516 -0.0194
  536loPI   C1B 8573  14.001  17.348   9.757  0.1019 -0.0494 -0.2768
  536loPI   C2B 8574  13.914  17.015   9.509 -0.2787 -0.0373  0.0676
  536loPI   C3B 8575  13.797  17.052   9.157  0.0823 -0.3831  0.5046
  536loPI   C4B 8576  13.717  17.228   8.813 -0.0009  0.0973 -0.4338
  537loPI    C1 8577   9.295   1.871   9.844  0.1941 -0.2538 -0.1483
  537loPI    C2 8578   9.683   1.779   9.821  0.2268 -0.1140 -0.1679
  537loPI    C3 8579   9.554   2.030  10.105  0.0972 -0.4301  0.0588
  537loPI   PO4 8580   9.234   1.865   9.542  0.2469  0.0164  0.2967
  537loPI   GL1 8581   8.977   1.820   9.093  0.1036  0.0672  0.1083
  537loPI   GL2 8582   8.855   2.108   9.231 -0.0223  0.3384 -0.0059
  537loPI   C1A 8583   8.954   2.019   8.791 -0.0130  0.2671 -0.0538
  537loPI   C2A 8584   8.905   2.069   8.470  0.1842 -0.0489  0.1354
  537loPI   C3A 8585   9.036   2.283   8.025  0.2217 -0.0943  0.3100
  537loPI   C4A 8586   9.333   2.283   7.701 -0.0575 -0.0990  0.1246
  537loPI   C5A 8587   9.693   2.120   7.448  0.0084 -0.2991  0.1126
  537loPI   C6A 8588  10.193   2.052   7.415 -0.0086  0.0837  0.0741
  537loPI   C1B 8589   8.917   2.489   8.991 -0.0825 -0.0057  0.3611
  537loPI   C2B 8590   8.917   2.568   8.516  0.1819 -0.0585  0.3407
  537loPI   C3B 8591   8.707   2.612   8.112  0.1238  0.1119  0.1548
  537loPI   C4B 8592   8.768   2.536   7.689 -0.0077 -0.1689 -0.0827
  538loPI    C1 8593   1.873   7.827   9.409 -0.0883 -0.0512 -0.1889
  538loPI    C2 8594   1.754   8.095   9.681  0.1068 -0.2178  0.0649
  538loPI    C3 8595   2.020   8.199   9.401 -0.2092 -0.0025 -0.1622
  538loPI   PO4 8596   1.677   7.724   9.369 -0.0352  0.2422 -0.0249
  538loPI   GL1 8597   1.504   7.677   9.094 -0.0673  0.0078  0.0519
  538loPI   GL2 8598   1.348   7.370   8.914 -0.0975  0.0149 -0.1307
  538loPI   C1A 8599   1.504   7.694   8.523 -0.0607  0.0374 -0.2854
  538loPI   C2A 8600   1.737   7.828   8.164 -0.0616 -0.4376  0.3098
  538loPI   C3A 8601   1.738   7.856   7.733 -0.4395  0.1856  0.1294
  538loPI   C4A 8602   1.834   7.708   7.308  0.2641 -0.2451  0.0301
  538loPI   C5A 8603   1.866   7.853   6.878  0.0142  0.0046 -0.5381
  538loPI   C6A 8604   1.731   7.717   6.534 -0.2288  0.0209 -0.0619
  538loPI   C1B 8605   1.289   7.243   8.488 -0.1773 -0.1215 -0.0084
  538loPI   C2B 8606   1.508   7.382   8.108 -0.1953 -0.3775  0.1850
  538loPI   C3B 8607   1.613   7.419   7.600  0.0664  0.1472 -0.2795
  538loPI   C4B 8608   1.999   7.260   7.320  0.2607 -0.2959 -0.1909
  539loPI    C1 8609   4.429   1.363   9.716 -0.4827  0.1413 -0.0142
  539loPI    C2 8610   4.609   1.078   9.932 -0.3831 -0.1171 -0.4273
  539loPI    C3 8611   4.519   1.430  10.100  0.5679  0.0528 -0.2149
  539loPI   PO4 8612   4.550   1.286   9.437  0.0731 -0.0444 -0.1061
  539loPI   GL1 8613   4.463   1.619   9.160 -0.0511  0.1804 -0.2581
  539loPI   GL2 8614   4.143   1.473   9.080  0.0677 -0.3588 -0.0996
  539loPI   C1A 8615   4.541   1.417   8.826  0.0269  0.0285 -0.0475
  539loPI   C2A 8616   4.618   1.373   8.335 -0.1136  0.1431  0.2581
  539loPI   C3A 8617   4.489   1.182   7.883 -0.1216  0.0018 -0.0114
  539loPI   C4A 8618   4.514   1.015   7.559  0.0522 -0.0884  0.4453
  539loPI   C5A 8619   4.791   0.779   7.387  0.0006  0.0223  0.0519
  539loPI   C6A 8620   4.844   0.358   7.684 -0.2180  0.0981  0.0532
  539loPI   C1B 8621   3.795   1.704   8.799  0.3582 -0.0871 -0.0646
  539loPI   C2B 8622   3.651   1.658   8.369  0.0885 -0.4033  0.0823
  539loPI   C3B 8623   3.570   1.614   7.955  0.1734  0.2477  0.0611
  539loPI   C4B 8624   3.742   1.847   7.616 -0.6152 -0.2027  0.3079
  540loPI    C1 8625  15.290   4.480  10.553  0.1053  0.0417  0.0670
  540loPI    C2 8626  14.959   4.622  10.727  0.0795  0.1618 -0.0792
  540loPI    C3 8627  15.172   4.337  10.908 -0.1647  0.0044 -0.0352
  540loPI   PO4 8628  15.319   4.570  10.358 -0.0656  0.2045  0.2581
  540loPI   GL1 8629  15.402   4.906  10.042 -0.3221 -0.2703 -0.1346
  540loPI   GL2 8630  15.265   4.644   9.867  0.3508  0.0510 -0.1251
  540loPI   C1A 8631  15.524   5.046   9.616 -0.1670 -0.0605 -0.3601
  540loPI   C2A 8632  15.835   5.110   9.488  0.0777 -0.0050  0.1508
  540loPI   C3A 8633  15.890   5.169   9.016 -0.1774 -0.1091 -0.1393
  540loPI   C4A 8634  16.039   5.214   8.606 -0.2357 -0.0686  0.2539
  540loPI   C5A 8635  16.130   5.414   8.300 -0.1207 -0.2450 -0.0685
  540loPI   C6A 8636  15.886   5.575   7.982  0.1597  0.0678  0.2205
  540loPI   C1B 8637  15.633   4.552   9.537 -0.0445  0.3692  0.0096
  540loPI   C2B 8638  15.853   4.687   9.179 -0.2787  0.2306  0.2683
  540loPI   C3B 8639  15.866   4.757   8.667 -0.3240  0.1358  0.2873
  540loPI   C4B 8640  15.634   5.072   8.432  0.0932  0.2741 -0.2078
  541loPI    C1 8641  18.042   0.642  10.472 -0.0722 -0.1831  0.1260
  541loPI    C2 8642  17.936   1.005  10.601 -0.0286 -0.1727  0.1329
  541loPI    C3 8643  17.828   0.680  10.807  0.0903 -0.1530  0.2276
  541loPI   PO4 8644  17.921   0.548  10.190 -0.2188  0.1339 -0.0787
  541loPI   GL1 8645  17.856   0.197   9.916 -0.2398 -0.0541  0.1021
  541loPI   GL2 8646  17.584   0.075  10.050  0.0918  0.0375 -0.2108
  541loPI   C1A 8647  18.251   0.301   9.651 -0.3006 -0.1526  0.5315
  541loPI   C2A 8648  18.324   0.089   9.177  0.3545  0.0743 -0.1491
  541loPI   C3A 8649  18.509   0.172   8.703  0.2875  0.0973 -0.2490
  541loPI   C4A 8650  18.136   0.043   8.404 -0.0342 -0.0231  0.1655
  541loPI   C5A 8651  17.976  -0.183   8.078  0.4331 -0.0131 -0.1589
  541loPI   C6A 8652  17.803  -0.264   7.734  0.1589 -0.0659  0.0697
  541loPI   C1B 8653  17.394   0.149   9.685 -0.0070  0.3747  0.1266
  541loPI   C2B 8654  17.392  -0.056   9.347  0.0216  0.0230 -0.0046
  541loPI   C3B 8655  17.333  -0.343   8.938  0.1022  0.1824 -0.2875
  541loPI   C4B 8656  16.950  -0.461   8.787  0.0210 -0.0956 -0.1457
  542loPI    C1 8657  17.496   3.365  10.096  0.3591  0.1095 -0.3436
  542loPI    C2 8658  17.675   3.113  10.350  0.2265  0.1286 -0.2304
  542loPI    C3 8659  17.698   3.508  10.410 -0.0706  0.1241 -0.0658
  542loPI   PO4 8660  17.613   3.367   9.866 -0.2621  0.2973  0.2598
  542loPI   GL1 8661  17.647   3.069   9.554 -0.1426  0.1711 -0.4857
  542loPI   GL2 8662  17.758   2.808   9.592 -0.1286 -0.1121 -0.0608
  542loPI   C1A 8663  17.692   3.465   9.223 -0.0759  0.1440  0.3371
  542loPI   C2A 8664  17.566   3.635   8.912 -0.3399 -0.0551 -0.0402
  542loPI   C3A 8665  17.447   3.676   8.525  0.2560 -0.1723 -0.0620
  542loPI   C4A 8666  17.324   4.026   8.269  0.0089  0.0360  0.0931
  542loPI   C5A 8667  17.030   4.211   7.923  0.2266  0.2142  0.0743
  542loPI   C6A 8668  16.635   4.344   7.661 -0.3233  0.2187  0.3341
  542loPI   C1B 8669  17.978   2.612   9.277  0.1305 -0.3369  0.1052
  542loPI   C2B 8670  17.909   2.488   8.804  0.0394 -0.0510  0.2820
  542loPI   C3B 8671  18.038   2.366   8.372 -0.3199 -0.1368  0.1287
  542loPI   C4B 8672  18.331   2.246   8.053 -0.2051 -0.1867 -0.2037
  543loPI    C1 8673   3.040  18.306   9.724  0.2137 -0.1764  0.1170
  543loPI    C2 8674   3.364  18.481   9.879  0.0672  0.3181 -0.1127
  543loPI    C3 8675   3.006  18.656   9.915 -0.1327 -0.0801 -0.1103
  543loPI   PO4 8676   3.058  18.274   9.481 -0.2268  0.0837 -0.2724
  543loPI   GL1 8677   2.970  18.042   9.181 -0.4506  0.0854 -0.0468
  543loPI   GL2 8678   2.738  18.171   9.102  0.3135 -0.2885  0.0558
  543loPI   C1A 8679   2.893  17.720   8.801 -0.0971 -0.2188  0.3167
  543loPI   C2A 8680   2.853  17.543   8.465 -0.1076 -0.1666 -0.1196
  543loPI   C3A 8681   2.788  17.550   7.998  0.0198  0.3020 -0.2266
  543loPI   C4A 8682   3.059  17.202   7.805 -0.1160 -0.1293  0.3205
  543loPI   C5A 8683   3.237  17.058   7.419  0.2989  0.4836 -0.1264
  543loPI   C6A 8684   3.569  17.266   7.183 -0.1119 -0.0464 -0.2411
  543loPI   C1B 8685   2.402  18.167   8.862  0.3023 -0.2647  0.0502
  543loPI   C2B 8686   2.105  18.411   8.423  0.0318 -0.1035 -0.1107
  543loPI   C3B 8687   1.794  18.610   8.286 -0.0612 -0.1386  0.0989
  543loPI   C4B 8688   1.516  18.639   7.963 -0.2310 -0.2060  0.0467
  544loPI    C1 8689  12.711   7.059  10.057  0.0477  0.3680 -0.2758
  544loPI    C2 8690  12.559   6.959   9.701 -0.0389 -0.2623 -0.0744
  544loPI    C3 8691  12.319   7.102   9.987 -0.0550 -0.2124 -0.1128
  544loPI   PO4 8692  12.882   6.852  10.068  0.2844  0.1694 -0.0759
  544loPI   GL1 8693  12.972   6.557   9.802 -0.0608 -0.0649  0.1379
  544loPI   GL2 8694  13.139   6.328   9.760 -0.2752 -0.3594 -0.3641
  544loPI   C1A 8695  12.717   6.457   9.428  0.1297 -0.0064 -0.2335
  544loPI   C2A 8696  12.772   6.324   9.032  0.0084 -0.1604 -0.0913
  544loPI   C3A 8697  12.740   6.211   8.677 -0.1381  0.0375 -0.1262
  544loPI   C4A 8698  13.084   5.860   8.504 -0.2241 -0.1912 -0.0642
  544loPI   C5A 8699  13.034   5.391   8.370  0.1116  0.0619 -0.0363
  544loPI   C6A 8700  13.281   5.043   8.384 -0.0646  0.2216 -0.0963
  544loPI   C1B 8701  13.196   6.200   9.343  0.0182 -0.0352  0.0393
  544loPI   C2B 8702  13.347   6.089   8.927  0.0485 -0.1392 -0.0942
  544loPI   C3B 8703  13.532   6.086   8.564  0.1306  0.1042 -0.0563
  544loPI   C4B 8704  13.480   6.164   8.096 -0.0564  0.1451 -0.1455
  545loPI    C1 8705   9.254  16.079   9.942 -0.1133 -0.0040  0.1530
  545loPI    C2 8706   9.419  15.735  10.064  0.0472 -0.0369 -0.1462
  545loPI    C3 8707   9.527  16.081  10.234 -0.1522 -0.1360  0.1907
  545loPI   PO4 8708   9.005  15.929   9.705  0.3365  0.2113 -0.2551
  545loPI   GL1 8709   8.989  16.092   9.298  0.0696 -0.0417  0.0200
  545loPI   GL2 8710   9.112  15.722   9.221  0.0432  0.1497 -0.3598
  545loPI   C1A 8711   9.022  16.097   8.948  0.1097  0.1916  0.1069
  545loPI   C2A 8712   9.036  16.403   8.651 -0.2393  0.2663  0.1904
  545loPI   C3A 8713   8.859  16.470   8.296 -0.1825 -0.2315  0.0803
  545loPI   C4A 8714   8.755  16.448   8.006 -0.0944 -0.1315  0.2675
  545loPI   C5A 8715   8.431  16.502   7.677 -0.0824 -0.1054 -0.1619
  545loPI   C6A 8716   8.356  16.737   7.415 -0.0766 -0.2502  0.1077
  545loPI   C1B 8717   9.221  15.625   8.800  0.0141 -0.1555  0.3430
  545loPI   C2B 8718   9.191  15.654   8.378 -0.5318  0.1914  0.0302
  545loPI   C3B 8719   9.073  15.610   7.976  0.0174 -0.2276  0.0046
  545loPI   C4B 8720   9.086  15.462   7.636 -0.0941  0.1246 -0.2837
  546loPI    C1 8721  16.716  18.954  10.487  0.2165  0.0126 -0.1160
  546loPI    C2 8722  16.993  18.682  10.585  0.3223  0.2134  0.1553
  546loPI    C3 8723  16.724  18.799  10.856  0.0645  0.1332 -0.0616
  546loPI   PO4 8724  16.750  19.082  10.316  0.2659  0.1140  0.1302
  546loPI   GL1 8725  16.813  19.315  10.036 -0.1453  0.2421 -0.3109
  546loPI   GL2 8726  16.748  19.684   9.980 -0.2815 -0.2315 -0.1429
  546loPI   C1A 8727  16.955  19.445   9.578  0.0197 -0.1790  0.2447
  546loPI   C2A 8728  17.318  19.642   9.212  0.4335 -0.0429 -0.0809
  546loPI   C3A 8729  17.274  19.651   8.741 -0.0745 -0.2457  0.1027
  546loPI   C4A 8730  17.563  19.608   8.336  0.3521  0.5511 -0.0872
  546loPI   C5A 8731  17.508  19.504   7.947 -0.0403  0.0467 -0.2078
  546loPI   C6A 8732  17.408  19.154   7.610  0.1236 -0.1245  0.1544
  546loPI   C1B 8733  16.809  19.866   9.558 -0.1344 -0.2425  0.0937
  546loPI   C2B 8734  17.081  20.045   9.205 -0.1650 -0.0017 -0.0298
  546loPI   C3B 8735  17.211  20.138   8.808 -0.2895 -0.1212 -0.2282
  546loPI   C4B 8736  17.300  20.094   8.389 -0.3845 -0.1837 -0.0236
  547loPI    C1 8737  15.203   3.365  10.409  0.2237 -0.4405 -0.2509
  547loPI    C2 8738  14.945   3.218  10.140 -0.1870  0.2363 -0.2499
  547loPI    C3 8739  14.822   3.300  10.512  0.1562  0.1296 -0.1082
  547loPI   PO4 8740  15.336   3.516  10.276 -0.3967 -0.2777 -0.0228
  547loPI   GL1 8741  15.223   3.469   9.790 -0.0025  0.0001  0.1400
  547loPI   GL2 8742  15.164   3.763   9.852 -0.1033 -0.4463 -0.1531
  547loPI   C1A 8743  15.021   3.593   9.370 -0.0095  0.1275 -0.5303
  547loPI   C2A 8744  15.112   3.945   9.069 -0.0890  0.1113 -0.0533
  547loPI   C3A 8745  15.363   4.032   8.779 -0.1172 -0.3389 -0.3031
  547loPI   C4A 8746  15.634   4.082   8.387 -0.1707  0.0598 -0.1535
  547loPI   C5A 8747  15.654   4.522   8.143  0.1125  0.2309 -0.2598
  547loPI   C6A 8748  15.519   4.638   7.765 -0.1203  0.0207  0.2447
  547loPI   C1B 8749  15.094   4.093   9.609 -0.1337 -0.3180  0.0162
  547loPI   C2B 8750  15.184   4.426   9.317 -0.0678  0.0065  0.0921
  547loPI   C3B 8751  15.464   4.515   8.936  0.0662  0.0831  0.1361
  547loPI   C4B 8752  15.428   4.634   8.571 -0.2098 -0.0197 -0.1292
  548loPI    C1 8753   6.933  15.947   9.421 -0.2107 -0.1662  0.0055
  548loPI    C2 8754   7.154  15.625   9.510  0.0707 -0.0158 -0.1346
  548loPI    C3 8755   7.142  15.935   9.762 -0.3913 -0.2268  0.1152
  548loPI   PO4 8756   6.980  15.946   9.217  0.0532  0.1278 -0.0801
  548loPI   GL1 8757   7.126  16.159   8.865 -0.1215  0.0093  0.1543
  548loPI   GL2 8758   6.835  16.276   8.704 -0.0645 -0.2115 -0.2212
  548loPI   C1A 8759   7.369  16.051   8.497 -0.5199 -0.1027  0.1360
  548loPI   C2A 8760   7.240  15.892   8.101 -0.1514  0.0217 -0.1255
  548loPI   C3A 8761   7.384  15.884   7.727  0.1911  0.4316 -0.0805
  548loPI   C4A 8762   7.373  15.685   7.310 -0.2768  0.1361 -0.0974
  548loPI   C5A 8763   7.222  15.830   6.975  0.2998 -0.0150 -0.1485
  548loPI   C6A 8764   6.919  16.059   6.884  0.1771 -0.3416 -0.0794
  548loPI   C1B 8765   6.915  16.330   8.267 -0.1277 -0.1765  0.3835
  548loPI   C2B 8766   7.091  16.323   7.909 -0.2305 -0.0886 -0.0707
  548loPI   C3B 8767   7.076  16.246   7.379  0.0280 -0.1096 -0.2144
  548loPI   C4B 8768   7.486  16.229   7.244  0.1520 -0.2238  0.1412
  549loPI    C1 8769   0.009   9.966   9.848 -0.1779 -0.1603 -0.3414
  549loPI    C2 8770  -0.188   9.834  10.170  0.2268  0.0831  0.0157
  549loPI    C3 8771   0.131   9.634  10.035  0.3149  0.2143  0.0280
  549loPI   PO4 8772  -0.072   9.956   9.687  0.2131 -0.2867 -0.2962
  549loPI   GL1 8773  -0.229  10.201   9.336  0.1030 -0.0332 -0.2461
  549loPI   GL2 8774  -0.100   9.846   9.150 -0.0910  0.1957  0.0157
  549loPI   C1A 8775  -0.224  10.259   8.894 -0.1421  0.0243 -0.0809
  549loPI   C2A 8776  -0.386  10.329   8.444  0.1634  0.0197 -0.1036
  549loPI   C3A 8777  -0.400  10.176   8.061  0.0018 -0.2287  0.0939
  549loPI   C4A 8778  -0.379  10.316   7.692 -0.0678 -0.2012 -0.1085
  549loPI   C5A 8779  -0.359  10.600   7.264 -0.0708  0.0233 -0.0753
  549loPI   C6A 8780  -0.076  10.604   6.850 -0.1779 -0.0158 -0.1463
  549loPI   C1B 8781  -0.083   9.714   8.779 -0.2578 -0.2161 -0.2916
  549loPI   C2B 8782  -0.061   9.619   8.369  0.0250  0.2364  0.0334
  549loPI   C3B 8783  -0.161   9.708   8.027  0.2393  0.1872  0.1896
  549loPI   C4B 8784  -0.188   9.913   7.621  0.1866  0.4084  0.0768
  550loPI    C1 8785   0.432  19.066  10.573  0.1348 -0.2068  0.1087
  550loPI    C2 8786   0.644  18.988  10.242  0.1212  0.0027  0.0491
  550loPI    C3 8787   0.708  18.776  10.575  0.6358  0.2522  0.1191
  550loPI   PO4 8788   0.160  19.054  10.461  0.2245 -0.1098  0.0054
  550loPI   GL1 8789  -0.045  18.893  10.096  0.1357 -0.2087 -0.0113
  550loPI   GL2 8790  -0.087  18.546  10.149 -0.1738 -0.0389  0.2375
  550loPI   C1A 8791  -0.209  18.887   9.633 -0.1465  0.2648 -0.3145
  550loPI   C2A 8792   0.018  18.906   9.312 -0.0171 -0.1002 -0.3101
  550loPI   C3A 8793   0.157  18.613   9.039 -0.0454  0.1607 -0.0022
  550loPI   C4A 8794   0.148  18.384   8.647  0.1184  0.0978 -0.0429
  550loPI   C5A 8795   0.072  18.090   8.360  0.3247  0.0479 -0.0380
  550loPI   C6A 8796  -0.305  17.800   8.274 -0.3061 -0.1377 -0.3036
  550loPI   C1B 8797  -0.131  18.429   9.689  0.1040 -0.1254  0.1390
  550loPI   C2B 8798  -0.003  17.939   9.571  0.0761  0.0061  0.0327
  550loPI   C3B 8799   0.041  17.711   9.253  0.0382 -0.1415  0.0789
  550loPI   C4B 8800   0.031  17.897   8.827  0.0767 -0.0298  0.0583
  551loPI    C1 8801  15.250  17.622   9.943  0.1337  0.1929  0.1634
  551loPI    C2 8802  15.288  17.862   9.626  0.3602  0.0372  0.0701
  551loPI    C3 8803  14.987  17.918   9.883  0.2021  0.1948 -0.1445
  551loPI   PO4 8804  15.205  17.258   9.869  0.0574  0.0169  0.0437
  551loPI   GL1 8805  15.042  17.097   9.524 -0.3335 -0.0029 -0.0708
  551loPI   GL2 8806  14.739  17.235   9.565  0.0548  0.1420 -0.0579
  551loPI   C1A 8807  15.241  17.452   9.239  0.3858 -0.3750 -0.0907
  551loPI   C2A 8808  15.434  17.670   8.916  0.0225  0.1083 -0.0868
  551loPI   C3A 8809  15.476  17.702   8.530 -0.1696  0.0680 -0.0090
  551loPI   C4A 8810  15.268  17.502   8.175 -0.1239  0.0575 -0.1803
  551loPI   C5A 8811  15.121  17.266   7.843  0.1016  0.5542  0.0461
  551loPI   C6A 8812  15.174  17.063   7.404  0.0291 -0.2965  0.3761
  551loPI   C1B 8813  14.486  17.314   9.317  0.2095  0.3759  0.2363
  551loPI   C2B 8814  14.295  17.027   9.066 -0.1195  0.0580 -0.1529
  551loPI   C3B 8815  14.177  17.022   8.692  0.2725  0.0407 -0.0490
  551loPI   C4B 8816  14.044  16.836   8.308  0.3025 -0.2409  0.0032
  552loPI    C1 8817   9.850  18.290  10.089  0.0788  0.1452 -0.1390
  552loPI    C2 8818   9.629  18.142  10.388  0.0855  0.2415 -0.0860
  552loPI    C3 8819   9.942  17.935  10.250  0.0127  0.1429 -0.1054
  552loPI   PO4 8820   9.561  18.328   9.911 -0.5305 -0.0792  0.1510
  552loPI   GL1 8821   9.545  18.659   9.464  0.0495 -0.3349 -0.0405
  552loPI   GL2 8822   9.753  18.807   9.167  0.0769  0.1184  0.0523
  552loPI   C1A 8823   9.696  18.326   9.202  0.3721  0.0817 -0.2163
  552loPI   C2A 8824   9.774  18.095   8.889 -0.0910  0.0714  0.2119
  552loPI   C3A 8825   9.948  18.024   8.427  0.2620  0.0563  0.0307
  552loPI   C4A 8826  10.157  17.845   7.987 -0.2374 -0.1776  0.0819
  552loPI   C5A 8827  10.256  17.971   7.576  0.1552  0.1089 -0.2407
  552loPI   C6A 8828  10.040  18.055   7.209  0.1374 -0.0552  0.0205
  552loPI   C1B 8829   9.807  18.701   8.754 -0.0183 -0.2810  0.2956
  552loPI   C2B 8830  10.138  18.474   8.407  0.0052  0.0750 -0.2760
  552loPI   C3B 8831  10.035  18.329   7.956 -0.1432  0.0251  0.1368
  552loPI   C4B 8832   9.954  18.567   7.492 -0.2424 -0.3614  0.0039
  553loPI    C1 8833   0.024   8.002   9.702  0.0358 -0.3195  0.1988
  553loPI    C2 8834  -0.336   8.164   9.768  0.1129 -0.0571 -0.0081
  553loPI    C3 8835  -0.042   8.215  10.034  0.1543  0.2004 -0.1003
  553loPI   PO4 8836   0.024   8.023   9.375  0.1404 -0.4075 -0.1718
  553loPI   GL1 8837   0.019   7.772   9.132 -0.0270  0.1859 -0.2631
  553loPI   GL2 8838  -0.106   7.492   9.215  0.2203 -0.2566 -0.4998
  553loPI   C1A 8839   0.025   8.039   8.708  0.3102 -0.4593 -0.2468
  553loPI   C2A 8840  -0.108   7.952   8.281 -0.1277  0.3171 -0.1023
  553loPI   C3A 8841  -0.329   7.949   7.987 -0.0553  0.0952 -0.1618
  553loPI   C4A 8842  -0.414   8.050   7.568 -0.1273 -0.2103  0.1195
  553loPI   C5A 8843  -0.363   8.224   7.195 -0.2587 -0.0676  0.1876
  553loPI   C6A 8844   0.049   8.333   7.099  0.1594  0.0406 -0.0633
  553loPI   C1B 8845  -0.180   7.192   8.850 -0.3322 -0.1472  0.1125
  553loPI   C2B 8846  -0.221   7.054   8.362  0.1427  0.0529 -0.4552
  553loPI   C3B 8847   0.110   6.994   8.085 -0.0479  0.0788 -0.0587
  553loPI   C4B 8848   0.193   7.192   7.662 -0.3449 -0.2489 -0.2619
  554loPI    C1 8849  10.863  17.837   9.926 -0.0126 -0.0417 -0.0500
  554loPI    C2 8850  10.983  17.473   9.813 -0.3010 -0.1490 -0.0204
  554loPI    C3 8851  10.847  17.532  10.184 -0.5204 -0.0756 -0.1108
  554loPI   PO4 8852  10.750  17.906   9.639 -0.1761  0.2831 -0.2691
  554loPI   GL1 8853  10.511  17.877   9.347  0.1276 -0.0271 -0.0816
  554loPI   GL2 8854  10.226  17.943   9.218  0.1932 -0.1451  0.1162
  554loPI   C1A 8855  10.630  17.870   8.900 -0.2916 -0.1052  0.0128
  554loPI   C2A 8856  10.850  17.776   8.511  0.3063  0.1419 -0.0106
  554loPI   C3A 8857  10.809  17.660   8.105 -0.3841 -0.2718  0.0239
  554loPI   C4A 8858  10.608  17.605   7.732 -0.0421  0.0704 -0.0231
  554loPI   C5A 8859  10.538  17.663   7.272  0.0634 -0.2279 -0.1647
  554loPI   C6A 8860  10.179  17.486   6.964  0.2242  0.2145 -0.1996
  554loPI   C1B 8861  10.111  17.674   8.949  0.0163  0.1139  0.1937
  554loPI   C2B 8862  10.321  17.630   8.497  0.0294  0.1270 -0.1097
  554loPI   C3B 8863  10.289  17.370   8.199 -0.1797  0.1166  0.1950
  554loPI   C4B 8864  10.044  16.972   8.121 -0.0420  0.1747 -0.3362
  555loPI    C1 8865  12.350   8.091   9.999 -0.0648  0.3681  0.1397
  555loPI    C2 8866  12.017   8.070   9.778  0.0689 -0.0359 -0.0333
  555loPI    C3 8867  12.003   7.991  10.170 -0.0307 -0.1033 -0.0500
  555loPI   PO4 8868  12.510   8.368   9.887  0.1353  0.2078 -0.3973
  555loPI   GL1 8869  12.562   8.637   9.452  0.1101  0.0312  0.0476
  555loPI   GL2 8870  12.550   8.325   9.374  0.2111  0.1722  0.4937
  555loPI   C1A 8871  12.944   8.575   9.141 -0.1717  0.0483 -0.2559
  555loPI   C2A 8872  13.087   8.486   8.715  0.0708  0.2479 -0.4135
  555loPI   C3A 8873  13.069   8.331   8.251  0.2028  0.2328 -0.0770
  555loPI   C4A 8874  13.015   8.371   7.740 -0.0768 -0.1655  0.2574
  555loPI   C5A 8875  12.746   8.631   7.533 -0.0496  0.1718 -0.1465
  555loPI   C6A 8876  12.618   8.818   7.107 -0.0908  0.2200 -0.1993
  555loPI   C1B 8877  12.614   8.295   8.957  0.0840 -0.0452  0.1242
  555loPI   C2B 8878  12.578   8.335   8.525  0.2042 -0.0099  0.3484
  555loPI   C3B 8879  12.545   8.330   8.080  0.3916 -0.1471  0.0014
  555loPI   C4B 8880  12.362   8.354   7.685  0.3239  0.1900  0.1016
  556loPI    C1 8881  13.033   2.643  10.169  0.0975  0.1027 -0.0118
  556loPI    C2 8882  12.905   2.583  10.543 -0.1818 -0.1999 -0.1512
  556loPI    C3 8883  13.101   2.293  10.350  0.2823  0.0825 -0.1184
  556loPI   PO4 8884  12.808   2.770  10.029 -0.2728 -0.1552  0.0194
  556loPI   GL1 8885  12.766   2.779   9.606  0.1312 -0.0820 -0.0135
  556loPI   GL2 8886  12.419   2.770   9.703  0.1881 -0.0681  0.0990
  556loPI   C1A 8887  12.754   2.736   9.162 -0.1424 -0.0813 -0.0603
  556loPI   C2A 8888  12.992   2.827   8.828 -0.0458  0.1649 -0.1579
  556loPI   C3A 8889  13.213   2.762   8.404  0.1009  0.3909 -0.0348
  556loPI   C4A 8890  13.662   2.718   8.267 -0.0954  0.4191 -0.0807
  556loPI   C5A 8891  14.019   2.560   8.098 -0.0417  0.3489 -0.1893
  556loPI   C6A 8892  14.437   2.601   7.831  0.2862 -0.0315 -0.1893
  556loPI   C1B 8893  12.329   3.011   9.355  0.0869  0.4009 -0.0009
  556loPI   C2B 8894  12.417   3.118   9.010 -0.1590  0.0456  0.1816
  556loPI   C3B 8895  12.531   3.050   8.648 -0.2890  0.0555  0.1836
  556loPI   C4B 8896  12.794   2.968   8.289 -0.1458  0.0538  0.0629
  557loPI    C1 8897   5.289  12.799  10.253  0.3238 -0.1346 -0.1033
  557loPI    C2 8898   5.096  13.143  10.189  0.0880 -0.2395  0.0296
  557loPI    C3 8899   5.379  13.122  10.470  0.1937 -0.1223 -0.0667
  557loPI   PO4 8900   5.159  12.680  10.060 -0.1924  0.5124  0.0172
  557loPI   GL1 8901   5.088  12.775   9.677 -0.0041  0.3970  0.1813
  557loPI   GL2 8902   5.227  12.675   9.409  0.3114 -0.1608 -0.3451
  557loPI   C1A 8903   4.886  13.100   9.496 -0.2443  0.3857  0.0015
  557loPI   C2A 8904   5.011  13.448   9.175  0.2243 -0.0462 -0.0131
  557loPI   C3A 8905   4.846  13.692   8.939 -0.1584  0.1543  0.0007
  557loPI   C4A 8906   4.854  13.644   8.485  0.1357 -0.2850 -0.1213
  557loPI   C5A 8907   4.572  13.707   8.095  0.3540 -0.3480  0.0912
  557loPI   C6A 8908   4.290  13.900   7.737 -0.2523 -0.1211 -0.1177
  557loPI   C1B 8909   4.823  12.582   9.212 -0.1602  0.1775  0.4620
  557loPI   C2B 8910   4.619  12.814   8.995  0.0573 -0.0886  0.2147
  557loPI   C3B 8911   4.584  13.231   9.011 -0.1522  0.1344 -0.0457
  557loPI   C4B 8912   4.570  13.507   9.341 -0.0473 -0.2033 -0.0865
  558loPI    C1 8913  14.950  11.620   9.964 -0.0979  0.3375 -0.0564
  558loPI    C2 8914  15.041  11.393  10.280  0.1014  0.1453 -0.2480
  558loPI    C3 8915  14.731  11.646  10.297 -0.1605 -0.1806 -0.0499
  558loPI   PO4 8916  14.989  11.455   9.717 -0.0482  0.0857  0.2021
  558loPI   GL1 8917  14.864  11.622   9.335  0.0646 -0.1244 -0.0746
  558loPI   GL2 8918  14.634  11.899   9.257  0.2219  0.0379 -0.2890
  558loPI   C1A 8919  15.003  11.402   8.942  0.0523  0.3322  0.3342
  558loPI   C2A 8920  14.926  11.480   8.558  0.1405  0.3695 -0.1979
  558loPI   C3A 8921  14.983  11.377   8.157 -0.0390 -0.1618 -0.1971
  558loPI   C4A 8922  15.118  11.204   7.689  0.0665  0.1818  0.1571
  558loPI   C5A 8923  15.188  10.905   7.396 -0.0285 -0.1478 -0.0144
  558loPI   C6A 8924  14.992  10.635   7.040  0.0345  0.1186 -0.0882
  558loPI   C1B 8925  14.799  12.081   8.951  0.2072 -0.0197  0.0133
  558loPI   C2B 8926  14.821  11.962   8.547  0.1176  0.3607 -0.1289
  558loPI   C3B 8927  14.699  12.007   8.104 -0.2073  0.0517  0.1761
  558loPI   C4B 8928  14.995  12.024   7.788  0.0735 -0.3850 -0.0022
  559loPI    C1 8929  17.222   5.958  10.582  0.0241 -0.0697  0.0133
  559loPI    C2 8930  17.104   5.909  10.961 -0.1688 -0.0039 -0.0373
  559loPI    C3 8931  17.170   6.277  10.817 -0.0089 -0.0338 -0.0425
  559loPI   PO4 8932  17.018   5.879  10.334 -0.2348  0.1788  0.1173
  559loPI   GL1 8933  16.860   6.042   9.997  0.2172  0.2186  0.0881
  559loPI   GL2 8934  17.003   6.347   9.682  0.2341 -0.0150  0.1722
  559loPI   C1A 8935  17.236   5.881   9.629  0.1465  0.1535  0.1480
  559loPI   C2A 8936  17.322   6.055   9.195 -0.1022 -0.1666  0.0164
  559loPI   C3A 8937  17.449   5.808   8.798  0.0535  0.0298  0.0503
  559loPI   C4A 8938  17.378   6.025   8.348  0.1319  0.2816 -0.1055
  559loPI   C5A 8939  17.498   6.382   8.175  0.1508  0.2223 -0.1936
  559loPI   C6A 8940  17.976   6.616   8.182 -0.0561 -0.0975 -0.2815
  559loPI   C1B 8941  16.988   6.450   9.199  0.0146 -0.2109  0.1469
  559loPI   C2B 8942  16.919   6.654   8.807 -0.3154  0.2967  0.2009
  559loPI   C3B 8943  16.928   6.655   8.404 -0.3050  0.0083 -0.1959
  559loPI   C4B 8944  17.044   6.850   8.055 -0.0216  0.3247  0.0784
  560loPI    C1 8945   6.504  17.684   9.478  0.0946 -0.1822  0.1655
  560loPI    C2 8946   6.773  17.446   9.653  0.1239  0.0636  0.4622
  560loPI    C3 8947   6.655  17.782   9.835 -0.1938  0.0890  0.2176
  560loPI   PO4 8948   6.636  17.695   9.250 -0.0149 -0.1651 -0.1415
  560loPI   GL1 8949   6.996  17.322   9.183 -0.4183  0.0533  0.1546
  560loPI   GL2 8950   6.912  17.511   8.884 -0.1572  0.2149  0.1040
  560loPI   C1A 8951   6.779  17.004   8.892 -0.0117  0.1774 -0.0776
  560loPI   C2A 8952   6.781  16.737   8.615 -0.1717  0.0046 -0.2183
  560loPI   C3A 8953   6.654  16.740   8.289  0.0414  0.1674 -0.5038
  560loPI   C4A 8954   6.599  16.516   7.857 -0.3937 -0.2040  0.0395
  560loPI   C5A 8955   6.558  16.581   7.368  0.0538  0.1467 -0.1279
  560loPI   C6A 8956   6.788  16.673   6.991  0.2797  0.1213 -0.0997
  560loPI   C1B 8957   6.542  17.423   8.651  0.0712  0.2631  0.0498
  560loPI   C2B 8958   6.287  17.454   8.347  0.2982  0.1628 -0.0903
  560loPI   C3B 8959   6.302  17.344   7.844 -0.0573  0.0240  0.1801
  560loPI   C4B 8960   6.023  17.488   7.546 -0.2897 -0.1997 -0.1848
  561loPI    C1 8961   3.095   4.218  10.135 -0.1160  0.1066  0.1320
  561loPI    C2 8962   2.912   3.931  10.345 -0.2250  0.0350 -0.0580
  561loPI    C3 8963   3.296   4.017  10.417 -0.2333 -0.0563  0.1010
  561loPI   PO4 8964   2.929   4.293   9.944 -0.0609 -0.0287  0.1661
  561loPI   GL1 8965   2.892   4.535   9.523  0.1724 -0.2435  0.5557
  561loPI   GL2 8966   3.183   4.766   9.402  0.0234 -0.0510 -0.1746
  561loPI   C1A 8967   2.798   4.301   9.235 -0.1749 -0.1197  0.3179
  561loPI   C2A 8968   2.740   4.275   8.784  0.0201  0.1288  0.3461
  561loPI   C3A 8969   2.708   4.188   8.261  0.5375 -0.1942 -0.2097
  561loPI   C4A 8970   2.693   4.252   7.812  0.2097  0.1170 -0.0525
  561loPI   C5A 8971   2.884   4.342   7.385 -0.0990 -0.1329  0.0113
  561loPI   C6A 8972   2.788   4.305   6.928 -0.2762 -0.1242  0.3081
  561loPI   C1B 8973   3.150   4.648   9.018 -0.1890 -0.0248  0.0061
  561loPI   C2B 8974   3.291   4.446   8.666  0.0075  0.0309 -0.1868
  561loPI   C3B 8975   3.315   4.156   8.265  0.1239 -0.2596  0.1370
  561loPI   C4B 8976   3.436   3.936   7.955  0.1827 -0.0854  0.0481
  562loPI    C1 8977  17.961  16.422  10.408 -0.2419  0.0066  0.1781
  562loPI    C2 8978  18.015  16.772  10.595 -0.0349  0.0614  0.0192
  562loPI    C3 8979  18.330  16.539  10.512 -0.1598 -0.1103  0.0225
  562loPI   PO4 8980  17.806  16.462  10.130  0.1847 -0.0246  0.0664
  562loPI   GL1 8981  17.747  16.372   9.683 -0.2775  0.4267  0.0711
  562loPI   GL2 8982  18.042  16.530   9.656  0.1549 -0.2064  0.1893
  562loPI   C1A 8983  17.676  16.330   9.168 -0.1021  0.2082 -0.1604
  562loPI   C2A 8984  17.713  16.274   8.783  0.1109 -0.2451 -0.2930
  562loPI   C3A 8985  17.575  16.201   8.373  0.0277  0.0536 -0.0817
  562loPI   C4A 8986  17.580  16.342   8.006  0.1429 -0.2059 -0.0976
  562loPI   C5A 8987  17.429  16.697   8.059 -0.0603 -0.1390  0.0856
  562loPI   C6A 8988  17.119  16.983   7.889  0.1505  0.0083  0.2852
  562loPI   C1B 8989  18.258  16.542   9.300  0.1334  0.0599 -0.0471
  562loPI   C2B 8990  18.205  16.595   8.852 -0.0031 -0.1757  0.0019
  562loPI   C3B 8991  18.238  16.460   8.406  0.1084 -0.3018 -0.3079
  562loPI   C4B 8992  18.021  16.380   8.021  0.1269  0.2126  0.4009
  563loPI    C1 8993  15.791   3.848  10.178  0.0891 -0.0416  0.0020
  563loPI    C2 8994  16.048   3.886  10.483  0.0964 -0.1734  0.0129
  563loPI    C3 8995  15.661   3.815  10.555  0.0451  0.0808 -0.0019
  563loPI   PO4 8996  15.794   3.741  10.039 -0.2629 -0.0474  0.0869
  563loPI   GL1 8997  15.722   3.678   9.675  0.4694  0.1190 -0.1195
  563loPI   GL2 8998  15.566   4.037   9.749  0.0396 -0.0441  0.5155
  563loPI   C1A 8999  15.517   3.685   9.305  0.1406  0.0962  0.2613
  563loPI   C2A 9000  15.745   3.658   8.941  0.2164 -0.2912  0.1488
  563loPI   C3A 9001  15.931   3.681   8.471  0.0992  0.1935 -0.0792
  563loPI   C4A 9002  15.937   3.580   8.037 -0.1101  0.0068  0.1010
  563loPI   C5A 9003  15.906   3.746   7.635  0.0252 -0.2260  0.0398
  563loPI   C6A 9004  16.087   3.550   7.186 -0.4627  0.0770 -0.1964
  563loPI   C1B 9005  15.684   4.147   9.291 -0.2924 -0.0538  0.0091
  563loPI   C2B 9006  15.990   4.214   8.918  0.0864 -0.4183  0.1043
  563loPI   C3B 9007  16.175   4.166   8.520  0.2445  0.2485  0.0792
  563loPI   C4B 9008  16.044   4.075   8.072  0.0593 -0.2368  0.0915
  564loPI    C1 9009  11.332  10.821   9.935  0.0760  0.0454  0.0453
  564loPI    C2 9010  11.646  10.823  10.183  0.2062  0.1636 -0.1183
  564loPI    C3 9011  11.397  11.136  10.174  0.1156  0.0945 -0.0296
  564loPI   PO4 9012  11.414  10.702   9.692 -0.2151  0.0365 -0.0196
  564loPI   GL1 9013  11.301  10.814   9.224 -0.1196  0.0743  0.1921
  564loPI   GL2 9014  11.263  11.045   9.018  0.1420 -0.4441  0.2141
  564loPI   C1A 9015  11.269  10.547   8.882  0.3953  0.1666 -0.0459
  564loPI   C2A 9016  11.145  10.555   8.445 -0.0003  0.0447 -0.0608
  564loPI   C3A 9017  11.087  10.665   8.094 -0.0709  0.0105  0.0007
  564loPI   C4A 9018  11.402  10.970   7.868  0.1145  0.3229  0.1028
  564loPI   C5A 9019  11.577  11.319   8.053  0.1528  0.0890  0.3359
  564loPI   C6A 9020  11.904  11.329   8.370 -0.0917 -0.1350  0.2069
  564loPI   C1B 9021  10.998  11.017   8.645  0.5685 -0.0221  0.1460
  564loPI   C2B 9022  11.100  11.144   8.292  0.0171 -0.2344 -0.0663
  564loPI   C3B 9023  11.056  11.301   7.886 -0.3750 -0.0519  0.1420
  564loPI   C4B 9024  11.193  11.381   7.670 -0.2850 -0.1640  0.3478
  565loPI    C1 9025   1.339  11.794   9.864  0.0579 -0.1065 -0.2680
  565loPI    C2 9026   1.703  11.636   9.813 -0.0564 -0.3128 -0.4638
  565loPI    C3 9027   1.417  11.424   9.996 -0.0729 -0.1421 -0.2885
  565loPI   PO4 9028   1.287  11.895   9.639 -0.0351 -0.0092 -0.0509
  565loPI   GL1 9029   1.568  11.771   9.281  0.2626  0.0748 -0.1729
  565loPI   GL2 9030   1.656  12.142   9.400 -0.1215  0.4882 -0.1618
  565loPI   C1A 9031   1.576  11.536   8.912 -0.1235 -0.0388 -0.1164
  565loPI   C2A 9032   1.559  11.372   8.520  0.0489 -0.2660 -0.1605
  565loPI   C3A 9033   1.490  11.193   8.013 -0.1587 -0.0741 -0.0611
  565loPI   C4A 9034   1.568  11.043   7.621 -0.0561 -0.0124  0.0660
  565loPI   C5A 9035   1.338  10.827   7.263 -0.3900  0.0384  0.3009
  565loPI   C6A 9036   0.939  10.561   7.245 -0.0791  0.0810 -0.2558
  565loPI   C1B 9037   1.613  12.313   8.935  0.4049  0.0058  0.3335
  565loPI   C2B 9038   1.676  12.406   8.429 -0.0433 -0.3744 -0.0503
  565loPI   C3B 9039   1.732  12.508   7.999  0.2483 -0.0381 -0.2882
  565loPI   C4B 9040   1.533  12.521   7.664 -0.2663 -0.0239 -0.1685
  566loPI    C1 9041   4.380   2.967   9.948 -0.0183  0.1475  0.3729
  566loPI    C2 9042   4.086   2.941  10.218  0.0067 -0.0210  0.3851
  566loPI    C3 9043   4.467   2.927  10.337  0.0175 -0.1588  0.3358
  566loPI   PO4 9044   4.355   2.776   9.721 -0.3270 -0.0020  0.1683
  566loPI   GL1 9045   4.229   2.848   9.345  0.0545  0.0450  0.1891
  566loPI   GL2 9046   4.205   3.218   9.447 -0.0726  0.1776  0.0778
  566loPI   C1A 9047   3.971   2.628   8.945 -0.5689 -0.0292 -0.2626
  566loPI   C2A 9048   3.952   2.698   8.410  0.0676 -0.0176 -0.1498
  566loPI   C3A 9049   4.086   2.627   7.918 -0.0621 -0.2757  0.0839
  566loPI   C4A 9050   4.250   2.679   7.532  0.5880  0.0191  0.1903
  566loPI   C5A 9051   4.530   2.616   7.327  0.1013 -0.0556 -0.2329
  566loPI   C6A 9052   4.928   2.695   7.025  0.0852 -0.0521 -0.0229
  566loPI   C1B 9053   3.990   3.143   9.000  0.1024  0.0806  0.2986
  566loPI   C2B 9054   4.147   3.128   8.595  0.0780  0.2047  0.1097
  566loPI   C3B 9055   3.930   3.179   8.140  0.6440  0.2084 -0.3823
  566loPI   C4B 9056   3.718   2.969   7.907 -0.0025 -0.1527 -0.1440
  567loPI    C1 9057  13.370   2.509  10.679 -0.0733  0.0332 -0.0695
  567loPI    C2 9058  13.473   2.124  10.712  0.2022  0.1143  0.0485
  567loPI    C3 9059  13.521   2.371  11.023 -0.0084  0.2371 -0.0146
  567loPI   PO4 9060  13.480   2.585  10.378  0.3801 -0.0670 -0.2277
  567loPI   GL1 9061  13.707   2.737  10.084 -0.0036 -0.1945  0.0469
  567loPI   GL2 9062  13.438   2.874   9.983  0.2502  0.0618 -0.0242
  567loPI   C1A 9063  13.759   2.836   9.561  0.1534  0.1927 -0.0755
  567loPI   C2A 9064  13.969   2.730   9.077  0.1268  0.2920 -0.0443
  567loPI   C3A 9065  13.952   3.016   8.664  0.0010 -0.0056  0.0384
  567loPI   C4A 9066  14.239   3.099   8.247  0.0566  0.3159  0.0972
  567loPI   C5A 9067  14.466   3.184   7.954  0.2654  0.2584 -0.2886
  567loPI   C6A 9068  14.831   2.991   7.964 -0.0112  0.2254  0.1366
  567loPI   C1B 9069  13.267   2.723   9.614  0.0911  0.1241  0.0434
  567loPI   C2B 9070  13.420   2.712   9.179  0.0095 -0.3214  0.3182
  567loPI   C3B 9071  13.561   2.775   8.803  0.0322  0.3065 -0.3822
  567loPI   C4B 9072  13.946   2.529   8.581 -0.2335  0.3351  0.5349
  568loPI    C1 9073  12.496  13.988  10.247 -0.0861  0.0940 -0.0950
  568loPI    C2 9074  12.267  13.831  10.535  0.1176 -0.0124  0.0115
  568loPI    C3 9075  12.402  14.206  10.568 -0.1039  0.0784 -0.0896
  568loPI   PO4 9076  12.367  13.925  10.055 -0.1018 -0.2604 -0.0602
  568loPI   GL1 9077  12.498  13.830   9.569 -0.0679 -0.3377 -0.1064
  568loPI   GL2 9078  12.149  13.811   9.373  0.2579 -0.2926  0.0604
  568loPI   C1A 9079  12.533  14.145   9.205 -0.0740  0.1696 -0.1075
  568loPI   C2A 9080  12.694  14.161   8.686  0.0394 -0.2228  0.0735
  568loPI   C3A 9081  12.861  14.169   8.287  0.3291 -0.0009  0.0266
  568loPI   C4A 9082  12.914  14.148   7.906  0.0019 -0.2183  0.2300
  568loPI   C5A 9083  12.685  14.180   7.550  0.5494  0.2518  0.2771
  568loPI   C6A 9084  12.609  14.526   7.216  0.0844 -0.1635 -0.0944
  568loPI   C1B 9085  12.232  13.848   8.908 -0.1521  0.0735 -0.1390
  568loPI   C2B 9086  12.262  13.916   8.483  0.1476 -0.0757  0.0504
  568loPI   C3B 9087  12.362  14.004   8.052  0.0911 -0.1300  0.0495
  568loPI   C4B 9088  12.132  14.032   7.770  0.1078 -0.2107  0.0945
  569loPI    C1 9089   7.306  10.018   9.730  0.2793  0.0800  0.0788
  569loPI    C2 9090   7.357   9.991  10.125  0.0986  0.0206  0.0992
  569loPI    C3 9091   7.164   9.701   9.929 -0.0983  0.2046  0.0172
  569loPI   PO4 9092   7.528  10.021   9.601  0.0018  0.4571 -0.1794
  569loPI   GL1 9093   7.711   9.761   9.137 -0.0060 -0.4035 -0.2901
  569loPI   GL2 9094   7.409   9.560   9.062 -0.1588  0.1901 -0.4256
  569loPI   C1A 9095   7.612   9.779   8.660  0.1826  0.1638 -0.1965
  569loPI   C2A 9096   7.302   9.692   8.302 -0.1368 -0.3765 -0.0149
  569loPI   C3A 9097   7.276   9.577   7.856 -0.2319 -0.0371 -0.0387
  569loPI   C4A 9098   7.523   9.462   7.392  0.1074  0.0365  0.2118
  569loPI   C5A 9099   7.988   9.345   7.156 -0.1806 -0.2158  0.0557
  569loPI   C6A 9100   8.225   9.116   7.125  0.3535 -0.3936 -0.3256
  569loPI   C1B 9101   7.417   9.281   8.663 -0.1138  0.0111 -0.1173
  569loPI   C2B 9102   7.596   9.224   8.235  0.0398  0.2410  0.1963
  569loPI   C3B 9103   7.779   9.117   7.805 -0.0759 -0.2580  0.1034
  569loPI   C4B 9104   7.939   8.854   7.444  0.1107 -0.2790 -0.1362
  570loPI    C1 9105  16.291  17.149  10.336  0.1420 -0.1159 -0.0512
  570loPI    C2 9106  15.970  17.118  10.573  0.0944 -0.1176 -0.1157
  570loPI    C3 9107  16.335  17.147  10.733  0.0157  0.5137 -0.0227
  570loPI   PO4 9108  16.103  16.985  10.136  0.3557 -0.2001 -0.2164
  570loPI   GL1 9109  15.803  16.958   9.787 -0.0130 -0.2931 -0.0607
  570loPI   GL2 9110  15.540  17.037   9.588 -0.0674 -0.1079 -0.0076
  570loPI   C1A 9111  15.784  16.763   9.239  0.1704 -0.1798 -0.1584
  570loPI   C2A 9112  15.738  16.673   8.897  0.0780 -0.1145  0.1721
  570loPI   C3A 9113  15.938  16.740   8.558 -0.3743 -0.1566 -0.0653
  570loPI   C4A 9114  16.080  16.705   8.133  0.1087 -0.0311  0.0994
  570loPI   C5A 9115  16.157  16.737   7.630  0.1224  0.1016  0.1193
  570loPI   C6A 9116  16.648  16.758   7.585  0.0641 -0.2465  0.3462
  570loPI   C1B 9117  15.317  16.902   9.142 -0.0314 -0.2016  0.1371
  570loPI   C2B 9118  15.206  16.838   8.714  0.1427 -0.0128 -0.2419
  570loPI   C3B 9119  15.457  16.909   8.349  0.1471 -0.0438 -0.2053
  570loPI   C4B 9120  15.609  17.112   8.028  0.2188  0.2577  0.0218
  571loPI    C1 9121  14.746  18.970  10.264  0.0385  0.2729  0.0239
  571loPI    C2 9122  14.946  18.734  10.518 -0.0311  0.0081 -0.1633
  571loPI    C3 9123  15.039  19.122  10.490  0.1499 -0.0159  0.0781
  571loPI   PO4 9124  14.694  18.718  10.009  0.4023 -0.0128 -0.0101
  571loPI   GL1 9125  14.787  18.593   9.527  0.0774  0.2536 -0.2833
  571loPI   GL2 9126  14.558  18.906   9.502  0.2677 -0.2154  0.1782
  571loPI   C1A 9127  14.667  18.397   9.184 -0.0567 -0.1494 -0.0205
  571loPI   C2A 9128  14.729  18.304   8.770  0.2251  0.1850  0.2238
  571loPI   C3A 9129  14.713  18.329   8.338 -0.0910  0.3402  0.0685
  571loPI   C4A 9130  14.682  18.502   7.945 -0.0179  0.0218 -0.1466
  571loPI   C5A 9131  14.455  18.558   7.653  0.0558  0.1430 -0.2142
  571loPI   C6A 9132  14.307  18.144   7.338  0.1651  0.0509  0.2449
  571loPI   C1B 9133  14.520  18.832   9.112 -0.1168 -0.1876 -0.1907
  571loPI   C2B 9134  14.433  18.681   8.731  0.0647  0.1046 -0.0187
  571loPI   C3B 9135  14.415  18.751   8.323 -0.1694 -0.1875 -0.1351
  571loPI   C4B 9136  14.503  19.029   7.981  0.0653 -0.1087 -0.0473
  572loPI    C1 9137   8.668  16.902   9.519 -0.1525 -0.0553 -0.0175
  572loPI    C2 9138   8.501  17.024   9.861  0.0998 -0.0964  0.1229
  572loPI    C3 9139   8.443  16.649   9.732 -0.0701 -0.0537  0.0716
  572loPI   PO4 9140   8.704  17.085   9.410 -0.0710  0.3253 -0.1151
  572loPI   GL1 9141   8.916  17.146   9.087 -0.1939 -0.0337 -0.1884
  572loPI   GL2 9142   9.349  17.249   9.049  0.1665  0.1436  0.2053
  572loPI   C1A 9143   8.926  17.430   8.772  0.2047 -0.0166 -0.1945
  572loPI   C2A 9144   9.255  17.559   8.612  0.4322  0.0219  0.2297
  572loPI   C3A 9145   9.435  17.910   8.388 -0.2995 -0.0470 -0.1283
  572loPI   C4A 9146   9.667  17.893   8.047  0.1172 -0.5040  0.0105
  572loPI   C5A 9147   9.800  17.862   7.659  0.4364  0.0763 -0.0497
  572loPI   C6A 9148   9.479  17.885   7.295 -0.0844  0.0857  0.1239
  572loPI   C1B 9149   9.548  17.061   8.723  0.0272 -0.3480 -0.2686
  572loPI   C2B 9150   9.458  17.138   8.372 -0.2139 -0.2690  0.2158
  572loPI   C3B 9151   9.289  17.411   8.071  0.2798  0.1212  0.6289
  572loPI   C4B 9152   9.202  17.846   7.941  0.2107  0.0828 -0.0724
  573POPI    C1 9153  16.583   5.460  10.466  0.2816 -0.0444 -0.1852
  573POPI    C2 9154  16.818   5.561  10.774  0.0101 -0.3215  0.1201
  573POPI    C3 9155  16.447   5.708  10.749  0.0565 -0.2416 -0.1172
  573POPI   PO4 9156  16.697   5.492  10.290 -0.0415  0.2555  0.0957
  573POPI   GL1 9157  16.885   5.381   9.996  0.1933 -0.1189  0.3327
  573POPI   GL2 9158  17.220   5.542   9.998  0.2632 -0.1227  0.1477
  573POPI   C1A 9159  16.868   5.102   9.725  0.1604  0.0749  0.0105
  573POPI   D2A 9160  17.055   4.692   9.649 -0.0688  0.1695  0.0937
  573POPI   C3A 9161  17.267   4.537   9.349 -0.0217  0.1181  0.0318
  573POPI   C4A 9162  17.235   4.767   8.983 -0.2030  0.0822 -0.1684
  573POPI   C1B 9163  17.237   5.399   9.673 -0.0591 -0.0311  0.2552
  573POPI   C2B 9164  17.515   5.493   9.291 -0.1611  0.1541 -0.0535
  573POPI   C3B 9165  17.897   5.603   8.955  0.0017  0.0317 -0.2965
  573POPI   C4B 9166  18.042   5.768   8.663  0.2283  0.0470  0.0037
  574POPI    C1 9167  11.586   1.960  10.012 -0.0017 -0.0657 -0.1269
  574POPI    C2 9168  11.309   2.059  10.283 -0.1557  0.0778 -0.3340
  574POPI    C3 9169  11.391   1.674  10.213 -0.1571  0.0390 -0.1271
  574POPI   PO4 9170  11.851   2.126  10.053  0.3007 -0.0535  0.0593
  574POPI   GL1 9171  11.940   2.228   9.706 -0.0461  0.0691  0.0252
  574POPI   GL2 9172  12.052   2.458   9.565 -0.2470  0.2738  0.1562
  574POPI   C1A 9173  11.745   2.318   9.227  0.2732 -0.1535 -0.1857
  574POPI   D2A 9174  11.818   2.265   8.868  0.0575 -0.2613 -0.4264
  574POPI   C3A 9175  12.236   2.315   8.662 -0.1453 -0.1015 -0.0040
  574POPI   C4A 9176  12.565   2.558   8.669  0.2900 -0.2993 -0.2523
  574POPI   C1B 9177  12.126   2.615   9.095 -0.1292 -0.2154 -0.0804
  574POPI   C2B 9178  12.104   2.790   8.753 -0.0724 -0.0342  0.0616
  574POPI   C3B 9179  12.025   2.847   8.274  0.2206  0.1145  0.0560
  574POPI   C4B 9180  12.017   2.961   7.820  0.1146 -0.2945 -0.0854
  575POPI    C1 9181  17.267   4.340  10.318 -0.0719  0.0451 -0.0141
  575POPI    C2 9182  17.443   4.651  10.497 -0.0332 -0.0249  0.0704
  575POPI    C3 9183  17.425   4.297  10.683 -0.0496 -0.0813 -0.0380
  575POPI   PO4 9184  17.328   4.373  10.003  0.1477  0.0272  0.0002
  575POPI   GL1 9185  17.512   4.216   9.693 -0.1273  0.0140  0.0391
  575POPI   GL2 9186  17.702   4.426   9.567 -0.1831 -0.2601  0.2874
  575POPI   C1A 9187  17.793   3.949   9.443 -0.4848  0.1548 -0.0145
  575POPI   D2A 9188  17.940   3.961   8.983  0.1377 -0.3298 -0.0882
  575POPI   C3A 9189  17.822   4.208   8.695  0.1341 -0.0099  0.0473
  575POPI   C4A 9190  17.772   4.237   8.289  0.3062 -0.2155 -0.0241
  575POPI   C1B 9191  17.679   4.488   9.116 -0.0419  0.0324  0.0756
  575POPI   C2B 9192  17.732   4.751   8.730 -0.0643 -0.0152  0.3705
  575POPI   C3B 9193  17.968   4.717   8.388  0.3203 -0.0125  0.3775
  575POPI   C4B 9194  18.090   4.455   7.973  0.2419 -0.1988 -0.0598
  576POPI    C1 9195   0.559  12.864  10.309 -0.0011  0.2186  0.1149
  576POPI    C2 9196   0.312  12.909   9.997  0.2565  0.2940 -0.0815
  576POPI    C3 9197   0.195  13.023  10.362 -0.2674 -0.3139 -0.0403
  576POPI   PO4 9198   0.821  12.920  10.163  0.0365 -0.1879 -0.2758
  576POPI   GL1 9199   0.697  12.969   9.696  0.2738  0.0257 -0.0954
  576POPI   GL2 9200   0.861  12.775   9.508 -0.0210 -0.2460 -0.2272
  576POPI   C1A 9201   0.722  13.288   9.405  0.1801  0.1656  0.3366
  576POPI   D2A 9202   0.993  13.564   9.105  0.3443 -0.2632 -0.2031
  576POPI   C3A 9203   0.683  13.908   8.995 -0.3085 -0.4385 -0.2939
  576POPI   C4A 9204   0.535  13.993   8.598  0.1192  0.0809  0.3020
  576POPI   C1B 9205   0.483  12.793   9.285 -0.0891 -0.0748 -0.0009
  576POPI   C2B 9206   0.427  12.728   8.955  0.0137  0.1717  0.2258
  576POPI   C3B 9207   0.641  12.494   8.576 -0.1718  0.0488 -0.2402
  576POPI   C4B 9208   0.893  12.569   8.253 -0.1649 -0.1997  0.0942
  577POPI    C1 9209   6.603   3.528   9.595  0.0491 -0.0577 -0.1861
  577POPI    C2 9210   6.280   3.554   9.361  0.0320  0.3452 -0.1254
  577POPI    C3 9211   6.238   3.514   9.756  0.0611 -0.3076 -0.1770
  577POPI   PO4 9212   6.774   3.452   9.398  0.1092 -0.0902  0.0500
  577POPI   GL1 9213   6.868   3.728   9.022 -0.1831 -0.4876 -0.1155
  577POPI   GL2 9214   6.932   3.529   8.829  0.2415 -0.2541 -0.1275
  577POPI   C1A 9215   6.911   4.021   8.650  0.0908  0.2650  0.1204
  577POPI   D2A 9216   6.659   3.985   8.340 -0.0789 -0.1620  0.0604
  577POPI   C3A 9217   6.579   3.847   7.914  0.3296  0.0873 -0.0756
  577POPI   C4A 9218   6.250   3.582   7.833  0.1912 -0.0866 -0.1910
  577POPI   C1B 9219   7.031   3.626   8.285  0.1250 -0.0240 -0.0423
  577POPI   C2B 9220   7.221   3.640   7.918  0.1130 -0.0481 -0.0368
  577POPI   C3B 9221   7.226   3.699   7.479  0.3789  0.2430  0.1383
  577POPI   C4B 9222   7.362   3.759   7.123 -0.3132  0.3133 -0.1071
  578POPI    C1 9223   9.100   2.705   9.995  0.2007  0.2388 -0.0202
  578POPI    C2 9224   9.202   2.991  10.255  0.3540 -0.0002  0.1869
  578POPI    C3 9225   8.997   2.672  10.380  0.0556  0.0856 -0.0712
  578POPI   PO4 9226   9.269   2.635   9.890 -0.0556  0.1183  0.1977
  578POPI   GL1 9227   9.129   2.766   9.438  0.3662 -0.0801  0.1096
  578POPI   GL2 9228   9.327   2.556   9.280  0.1561  0.1426 -0.2047
  578POPI   C1A 9229   9.136   3.047   9.005  0.0459 -0.0086  0.0042
  578POPI   D2A 9230   9.008   3.228   8.688  0.0280 -0.0109  0.0347
  578POPI   C3A 9231   9.094   3.093   8.221  0.0943 -0.2364 -0.0349
  578POPI   C4A 9232   8.991   2.945   7.841  0.0836  0.0868  0.1773
  578POPI   C1B 9233   9.463   2.213   9.008  0.3115 -0.3276  0.0569
  578POPI   C2B 9234   9.609   2.282   8.634  0.1236 -0.0477  0.4003
  578POPI   C3B 9235   9.723   2.376   8.142  0.2883  0.3275  0.0498
  578POPI   C4B 9236   9.732   2.563   7.665  0.1960 -0.0437 -0.1172
  579POPI    C1 9237   9.654  11.106   9.855  0.0360 -0.0211 -0.1585
  579POPI    C2 9238   9.565  11.484   9.950  0.2406  0.0082 -0.0784
  579POPI    C3 9239   9.922  11.332  10.048  0.1397 -0.2225 -0.0631
  579POPI   PO4 9240   9.291  11.052   9.696 -0.0858 -0.1864 -0.1353
  579POPI   GL1 9241   9.290  10.929   9.286 -0.0872  0.0207 -0.1124
  579POPI   GL2 9242   9.109  10.681   9.112  0.1735  0.1069  0.1965
  579POPI   C1A 9243   9.619  10.790   8.961 -0.2125  0.1651  0.1844
  579POPI   D2A 9244   9.591  10.686   8.509  0.1009  0.3989  0.1402
  579POPI   C3A 9245   9.682  10.809   8.087  0.0108  0.1150 -0.1854
  579POPI   C4A 9246   9.651  11.106   7.944 -0.0387 -0.2317  0.0038
  579POPI   C1B 9247   9.059  10.647   8.594  0.2686  0.3206  0.0312
  579POPI   C2B 9248   8.916  10.652   8.232  0.0752  0.0924 -0.3629
  579POPI   C3B 9249   8.743  10.626   7.934  0.1612  0.1469  0.1539
  579POPI   C4B 9250   8.680  10.696   7.628  0.3323  0.1900 -0.2870
  580POPI    C1 9251   5.150  10.575  10.123 -0.3537 -0.2854 -0.2625
  580POPI    C2 9252   5.027  10.918   9.958 -0.0361  0.0196  0.1163
  580POPI    C3 9253   4.770  10.693  10.166 -0.1719  0.1887  0.1335
  580POPI   PO4 9254   5.268  10.444   9.957 -0.0701 -0.2593  0.2905
  580POPI   GL1 9255   4.949  10.560   9.539  0.2175 -0.4168  0.0459
  580POPI   GL2 9256   4.693  10.703   9.688 -0.1462 -0.2258 -0.1332
  580POPI   C1A 9257   4.880  10.804   9.168 -0.0119 -0.2727  0.2508
  580POPI   D2A 9258   4.619  10.991   8.899  0.0318 -0.2976  0.2064
  580POPI   C3A 9259   4.819  10.989   8.618  0.3464 -0.0926 -0.0739
  580POPI   C4A 9260   5.016  11.434   8.396  0.1517 -0.3252 -0.0177
  580POPI   C1B 9261   4.352  10.831   9.474  0.2143  0.0058  0.0718
  580POPI   C2B 9262   4.129  11.106   9.158 -0.2148 -0.2682 -0.1835
  580POPI   C3B 9263   4.124  11.286   8.754  0.0936 -0.1442  0.2530
  580POPI   C4B 9264   4.037  11.322   8.432 -0.1799 -0.0720  0.0564
  581POPI    C1 9265  10.753  12.249   9.689 -0.1130 -0.0921 -0.0034
  581POPI    C2 9266  10.751  11.854   9.751  0.0938 -0.0454  0.3241
  581POPI    C3 9267  10.521  12.093   9.975  0.0836  0.0348  0.2292
  581POPI   PO4 9268  10.833  12.241   9.329  0.1822 -0.0733 -0.1672
  581POPI   GL1 9269  10.987  12.219   8.993 -0.0099  0.2511 -0.0760
  581POPI   GL2 9270  11.159  11.995   8.969  0.0484 -0.0072 -0.1061
  581POPI   C1A 9271  10.888  12.162   8.470  0.1063  0.1482  0.1460
  581POPI   D2A 9272  11.014  12.405   8.098  0.0792 -0.0808  0.1928
  581POPI   C3A 9273  11.179  12.414   7.698 -0.1092 -0.3515  0.1261
  581POPI   C4A 9274  11.284  12.435   7.322  0.0738 -0.0647 -0.2181
  581POPI   C1B 9275  11.355  12.193   8.577  0.3862 -0.0444  0.1478
  581POPI   C2B 9276  11.503  12.260   8.234  0.1531 -0.2409 -0.0491
  581POPI   C3B 9277  11.577  12.103   7.834 -0.2360  0.1045  0.3227
  581POPI   C4B 9278  11.598  11.900   7.448  0.1828 -0.0688  0.0162
  582POPI    C1 9279  13.254   9.856  10.320  0.0640  0.1531  0.1862
  582POPI    C2 9280  13.274   9.460  10.271 -0.1340  0.1690 -0.0400
  582POPI    C3 9281  13.549   9.648  10.492 -0.1401 -0.1159  0.2166
  582POPI   PO4 9282  13.197   9.923  10.035  0.1001 -0.0717  0.0835
  582POPI   GL1 9283  13.264   9.952   9.559  0.0101  0.3539 -0.1348
  582POPI   GL2 9284  13.004  10.052   9.307  0.2323 -0.3131 -0.3986
  582POPI   C1A 9285  13.584   9.852   9.199 -0.1398  0.2639 -0.0362
  582POPI   D2A 9286  13.707   9.954   8.743  0.3218 -0.2461 -0.3467
  582POPI   C3A 9287  13.553   9.835   8.324  0.0730  0.0173  0.0296
  582POPI   C4A 9288  13.408   9.402   8.133 -0.2908 -0.3345 -0.0946
  582POPI   C1B 9289  13.023  10.343   9.122 -0.3711 -0.0492 -0.3170
  582POPI   C2B 9290  13.154  10.643   8.829 -0.0885  0.2272  0.1167
  582POPI   C3B 9291  13.178  10.691   8.443 -0.2469  0.0415 -0.1412
  582POPI   C4B 9292  13.335  10.347   8.226  0.1121 -0.2843 -0.0758
  583POPI    C1 9293  11.649  13.572   9.814 -0.1436 -0.0024  0.0217
  583POPI    C2 9294  11.859  13.318   9.588 -0.0900 -0.0033  0.0719
  583POPI    C3 9295  11.705  13.196   9.936 -0.2641 -0.0322 -0.0137
  583POPI   PO4 9296  11.725  13.818   9.633 -0.1164  0.1979 -0.0406
  583POPI   GL1 9297  11.611  13.938   9.267 -0.1619  0.1052  0.0695
  583POPI   GL2 9298  11.667  14.342   9.330 -0.0443  0.1214 -0.2212
  583POPI   C1A 9299  11.787  13.586   8.975 -0.1234 -0.0555  0.2308
  583POPI   D2A 9300  11.689  13.597   8.593  0.2794 -0.2046 -0.2066
  583POPI   C3A 9301  11.888  13.728   8.190 -0.1053  0.2960 -0.0821
  583POPI   C4A 9302  11.743  13.761   7.783  0.3084 -0.0987  0.3612
  583POPI   C1B 9303  11.773  14.173   8.841 -0.1770  0.2031  0.1747
  583POPI   C2B 9304  11.870  14.244   8.383  0.4097  0.2582  0.2300
  583POPI   C3B 9305  11.810  14.392   7.956 -0.2333  0.0086  0.3070
  583POPI   C4B 9306  11.619  14.293   7.479 -0.1850  0.0274  0.0834
  584POPI    C1 9307   6.758   7.073   9.631 -0.2892  0.1095 -0.2861
  584POPI    C2 9308   7.051   7.153   9.892 -0.2286 -0.4793 -0.1600
  584POPI    C3 9309   6.733   7.394   9.868 -0.0109 -0.1556  0.1157
  584POPI   PO4 9310   6.796   7.049   9.341 -0.5263  0.0874 -0.2515
  584POPI   GL1 9311   6.700   6.976   8.890 -0.2146  0.0407 -0.2201
  584POPI   GL2 9312   6.997   6.862   8.979 -0.2028 -0.0682  0.2585
  584POPI   C1A 9313   6.607   6.912   8.508 -0.1564 -0.1387  0.2351
  584POPI   D2A 9314   6.796   6.889   8.154  0.0623 -0.1126 -0.1466
  584POPI   C3A 9315   6.826   7.085   7.773 -0.2175  0.0625 -0.0631
  584POPI   C4A 9316   6.943   7.329   7.437 -0.1405  0.0442 -0.0804
  584POPI   C1B 9317   7.168   6.924   8.566 -0.1529  0.1355  0.0651
  584POPI   C2B 9318   7.352   6.851   8.244 -0.5608  0.0889 -0.0822
  584POPI   C3B 9319   7.671   6.791   8.086 -0.2818  0.0671  0.0102
  584POPI   C4B 9320   7.804   6.652   7.727  0.2806  0.1481  0.0947
  585POPI    C1 9321   8.248   8.810  10.154  0.1489 -0.0718 -0.1599
  585POPI    C2 9322   8.170   8.972  10.511 -0.1620 -0.0463 -0.2364
  585POPI    C3 9323   8.220   8.577  10.478  0.0816 -0.0256 -0.1321
  585POPI   PO4 9324   8.087   8.913   9.934  0.2958 -0.1013 -0.1370
  585POPI   GL1 9325   8.196   8.819   9.498  0.0567 -0.2093 -0.1405
  585POPI   GL2 9326   7.936   8.746   9.285  0.1209  0.1106  0.1638
  585POPI   C1A 9327   8.353   9.069   9.110  0.0285 -0.0651  0.0056
  585POPI   D2A 9328   8.558   9.292   8.894 -0.1466  0.0468 -0.0873
  585POPI   C3A 9329   8.690   9.207   8.430 -0.1519  0.0574  0.3025
  585POPI   C4A 9330   8.756   9.107   7.945  0.0891  0.1381  0.2009
  585POPI   C1B 9331   7.864   8.860   8.797  0.3394 -0.1097  0.3082
  585POPI   C2B 9332   7.840   8.693   8.243 -0.2297  0.0081 -0.1626
  585POPI   C3B 9333   7.918   8.571   7.859  0.0281  0.1130 -0.2060
  585POPI   C4B 9334   8.116   8.325   7.589 -0.0144 -0.2511  0.0044
  586POPI    C1 9335   1.989   1.295  10.027  0.0390 -0.1271 -0.0855
  586POPI    C2 9336   1.898   1.420  10.396 -0.0538  0.0507 -0.1671
  586POPI    C3 9337   1.920   1.028  10.317  0.1469  0.0118  0.0698
  586POPI   PO4 9338   1.909   1.461   9.881 -0.1438 -0.1374 -0.1815
  586POPI   GL1 9339   1.744   1.303   9.410  0.2219  0.0046 -0.1627
  586POPI   GL2 9340   1.408   1.348   9.363  0.2487  0.1274  0.0666
  586POPI   C1A 9341   1.755   1.049   9.132  0.1185  0.2536  0.1444
  586POPI   D2A 9342   2.020   1.024   8.891  0.1302  0.2086 -0.1110
  586POPI   C3A 9343   2.085   0.857   8.540 -0.1835 -0.0340 -0.1279
  586POPI   C4A 9344   1.959   0.815   8.069  0.0786  0.1395 -0.0977
  586POPI   C1B 9345   1.422   1.288   8.883 -0.1278  0.0807  0.0449
  586POPI   C2B 9346   1.600   1.139   8.374 -0.2951  0.0443  0.0135
  586POPI   C3B 9347   1.383   1.283   8.031  0.1415 -0.3461 -0.0307
  586POPI   C4B 9348   1.318   1.330   7.532 -0.0589 -0.0028  0.1236
  587POPI    C1 9349   5.616  17.390   9.883  0.0160  0.0818 -0.0230
  587POPI    C2 9350   5.905  17.225  10.105 -0.2039 -0.0043  0.2041
  587POPI    C3 9351   5.709  17.547  10.239 -0.1682  0.0953  0.0203
  587POPI   PO4 9352   5.562  17.178   9.718 -0.1515  0.1556  0.1033
  587POPI   GL1 9353   5.458  17.287   9.314 -0.0849 -0.1391 -0.0073
  587POPI   GL2 9354   5.552  17.027   9.111  0.0416 -0.0866  0.0823
  587POPI   C1A 9355   5.412  17.366   8.834 -0.5779  0.2983  0.0619
  587POPI   D2A 9356   5.386  17.394   8.421  0.2257  0.1707 -0.0513
  587POPI   C3A 9357   5.174  17.327   8.023 -0.0233  0.0759  0.5222
  587POPI   C4A 9358   4.908  17.362   7.746 -0.1509  0.3644 -0.2057
  587POPI   C1B 9359   5.701  16.962   8.645  0.1227 -0.0128  0.0506
  587POPI   C2B 9360   5.602  16.871   8.160 -0.0082 -0.1959 -0.0041
  587POPI   C3B 9361   5.708  16.606   7.758 -0.2670 -0.0457  0.0153
  587POPI   C4B 9362   5.648  16.468   7.358 -0.0094  0.2433 -0.0442
  588DPPI    C1 9363   9.378   4.243  10.168 -0.1183 -0.0598 -0.0317
  588DPPI    C2 9364   9.653   4.487  10.324 -0.1751  0.0334 -0.0765
  588DPPI    C3 9365   9.266   4.538  10.413 -0.1782 -0.0976 -0.0132
  588DPPI   PO4 9366   9.410   4.269   9.907 -0.0836  0.1115 -0.1312
  588DPPI   GL1 9367   9.392   4.091   9.606 -0.1012  0.1411 -0.3498
  588DPPI   GL2 9368   9.691   4.232   9.494 -0.1361  0.0021 -0.1709
  588DPPI   C1A 9369   9.471   3.978   9.110  0.2217  0.1558 -0.1552
  588DPPI   C2A 9370   9.873   4.023   8.912 -0.3913  0.0082  0.1017
  588DPPI   C3A 9371  10.194   3.957   8.621  0.1872  0.1208  0.0682
  588DPPI   C4A 9372  10.467   4.009   8.236 -0.1796 -0.2442 -0.0597
  588DPPI   C1B 9373   9.592   4.464   9.190 -0.3309  0.2514  0.3011
  588DPPI   C2B 9374   9.432   4.753   8.881  0.0461  0.1728  0.7789
  588DPPI   C3B 9375   9.611   5.014   8.574 -0.0514  0.3463  0.3216
  588DPPI   C4B 9376   9.713   5.113   8.147  0.0888 -0.1935  0.0896
  589DPPI    C1 9377   7.458  16.047   9.291  0.2566  0.3025 -0.1199
  589DPPI    C2 9378   7.507  16.272   9.618 -0.1175 -0.1013  0.2278
  589DPPI    C3 9379   7.217  16.360   9.357  0.0965  0.1430  0.0671
  589DPPI   PO4 9380   7.678  15.972   9.130  0.0121 -0.0868  0.0589
  589DPPI   GL1 9381   7.957  16.003   8.717 -0.1268 -0.1374 -0.1795
  589DPPI   GL2 9382   7.748  15.732   8.654 -0.1768  0.2342 -0.2571
  589DPPI   C1A 9383   7.745  16.351   8.389  0.2430 -0.2148 -0.0609
  589DPPI   C2A 9384   7.579  16.519   8.050 -0.2432  0.2174 -0.0849
  589DPPI   C3A 9385   7.366  16.711   7.583  0.1428 -0.1044 -0.0442
  589DPPI   C4A 9386   7.089  16.826   7.343 -0.2711 -0.0061 -0.0744
  589DPPI   C1B 9387   7.281  15.600   8.549  0.0677 -0.0706 -0.1722
  589DPPI   C2B 9388   7.166  15.391   8.133 -0.4866 -0.2778  0.1524
  589DPPI   C3B 9389   7.402  15.320   7.796 -0.1220  0.0890 -0.2518
  589DPPI   C4B 9390   7.636  15.011   7.567  0.3435  0.0366  0.1303
  590DPPI    C1 9391  13.228  18.404  10.065 -0.2800  0.0068  0.0439
  590DPPI    C2 9392  13.364  18.290  10.423 -0.0408 -0.0626 -0.0671
  590DPPI    C3 9393  13.140  18.619  10.390 -0.0591 -0.0525  0.1447
  590DPPI   PO4 9394  13.199  18.215   9.904  0.1101  0.3332  0.2035
  590DPPI   GL1 9395  12.968  18.208   9.538 -0.3016  0.0221  0.1689
  590DPPI   GL2 9396  13.240  17.979   9.494 -0.0068 -0.1149  0.0113
  590DPPI   C1A 9397  12.838  18.414   9.189 -0.1293  0.2728 -0.0028
  590DPPI   C2A 9398  12.992  18.468   8.750  0.1981 -0.0853  0.0156
  590DPPI   C3A 9399  12.862  18.442   8.358 -0.0506 -0.2139 -0.0587
  590DPPI   C4A 9400  12.583  18.477   8.078 -0.4140 -0.2247 -0.1690
  590DPPI   C1B 9401  13.419  17.792   9.113 -0.0245 -0.3283  0.3085
  590DPPI   C2B 9402  13.357  17.856   8.819  0.2020 -0.0286  0.0850
  590DPPI   C3B 9403  13.480  17.608   8.520 -0.3436 -0.1527  0.2725
  590DPPI   C4B 9404  13.686  17.257   8.358  0.2215  0.3424  0.0772
  591DPPI    C1 9405   5.574   3.894   9.859  0.0711  0.2338 -0.1142
  591DPPI    C2 9406   5.330   3.892  10.176 -0.0397 -0.3060 -0.1927
  591DPPI    C3 9407   5.309   4.190   9.909 -0.4180 -0.2009 -0.0526
  591DPPI   PO4 9408   5.555   3.656   9.726  0.0288  0.0427 -0.2108
  591DPPI   GL1 9409   5.542   3.755   9.213 -0.1670  0.3266 -0.2480
  591DPPI   GL2 9410   5.911   3.780   8.979  0.1653 -0.1058  0.1298
  591DPPI   C1A 9411   5.452   3.533   8.762 -0.0229 -0.3066 -0.1832
  591DPPI   C2A 9412   5.502   3.676   8.322 -0.1279 -0.0768  0.1523
  591DPPI   C3A 9413   5.438   3.480   7.965 -0.0366  0.2724 -0.1323
  591DPPI   C4A 9414   5.397   3.323   7.533  0.4248 -0.2177  0.3622
  591DPPI   C1B 9415   6.357   3.626   8.854  0.3309  0.2129  0.2252
  591DPPI   C2B 9416   6.504   3.500   8.369  0.0722 -0.0258  0.0046
  591DPPI   C3B 9417   6.685   3.321   7.977  0.0969 -0.3037 -0.0302
  591DPPI   C4B 9418   6.841   3.534   7.704  0.0492  0.0609 -0.2035
  592DPPI    C1 9419   2.071  14.185  10.166 -0.3460 -0.0750 -0.2011
  592DPPI    C2 9420   1.935  13.863  10.361  0.1738 -0.0425  0.2397
  592DPPI    C3 9421   1.956  14.217  10.547  0.2270  0.1009 -0.0322
  592DPPI   PO4 9422   2.238  14.098  10.009  0.0693  0.0579 -0.0215
  592DPPI   GL1 9423   2.289  14.163   9.589 -0.2146  0.1904  0.2355
  592DPPI   GL2 9424   2.009  14.117   9.305 -0.1636 -0.0132 -0.3054
  592DPPI   C1A 9425   2.399  14.420   9.249  0.2254 -0.1581  0.0516
  592DPPI   C2A 9426   2.270  14.587   8.931  0.0932 -0.1404 -0.1812
  592DPPI   C3A 9427   2.325  14.892   8.710  0.0463 -0.0953  0.3276
  592DPPI   C4A 9428   2.187  15.357   8.784  0.1061 -0.1530  0.2593
  592DPPI   C1B 9429   1.776  14.251   9.014 -0.1491 -0.0440 -0.0412
  592DPPI   C2B 9430   1.870  14.196   8.631 -0.2248  0.2338 -0.2028
  592DPPI   C3B 9431   2.062  14.197   8.202  0.1526  0.1387  0.0033
  592DPPI   C4B 9432   2.278  14.234   7.821  0.0844 -0.1416  0.0615
  593DPPI    C1 9433   9.434  14.178   9.858 -0.0913  0.0460  0.0584
  593DPPI    C2 9434   9.036  14.191   9.898 -0.1102  0.0188 -0.1112
  593DPPI    C3 9435   9.272  14.254  10.215 -0.2496  0.0111 -0.0052
  593DPPI   PO4 9436   9.430  14.032   9.611 -0.3299 -0.4995  0.1699
  593DPPI   GL1 9437   9.619  14.085   9.233  0.3000  0.0845 -0.0720
  593DPPI   GL2 9438   9.752  13.893   9.311 -0.0854  0.0152  0.0854
  593DPPI   C1A 9439   9.456  14.235   8.785  0.1949  0.2843 -0.1125
  593DPPI   C2A 9440   9.368  14.560   8.500 -0.2819  0.0181  0.2347
  593DPPI   C3A 9441   9.485  14.707   8.109 -0.0521  0.1230  0.0708
  593DPPI   C4A 9442   9.554  14.623   7.718 -0.2228  0.2968  0.1570
  593DPPI   C1B 9443   9.497  13.609   9.096  0.1687  0.1282  0.4638
  593DPPI   C2B 9444   9.574  13.663   8.800  0.1275  0.1135  0.1222
  593DPPI   C3B 9445   9.573  13.804   8.335 -0.0515 -0.2611  0.0136
  593DPPI   C4B 9446   9.463  13.655   7.951 -0.2648 -0.1123 -0.3163
  594DPPI    C1 9447  15.641   2.822  10.230  0.0501  0.0570 -0.1410
  594DPPI    C2 9448  15.249   2.836  10.305  0.0394 -0.1161 -0.1607
  594DPPI    C3 9449  15.510   2.974  10.575 -0.0298 -0.1071 -0.0982
  594DPPI   PO4 9450  15.545   2.744   9.961  0.1458 -0.1113  0.0027
  594DPPI   GL1 9451  15.616   2.620   9.466  0.3159 -0.2184 -0.0254
  594DPPI   GL2 9452  15.396   2.544   9.558  0.1114 -0.4106 -0.2166
  594DPPI   C1A 9453  15.531   2.583   8.964 -0.2417  0.1841 -0.0624
  594DPPI   C2A 9454  15.773   2.303   8.597  0.1151 -0.2045 -0.3320
  594DPPI   C3A 9455  16.146   2.321   8.364  0.0269 -0.2161  0.3202
  594DPPI   C4A 9456  16.266   2.509   8.013  0.1973 -0.1440 -0.1791
  594DPPI   C1B 9457  15.138   2.613   9.367  0.5762 -0.1107 -0.3064
  594DPPI   C2B 9458  14.990   2.750   8.919 -0.1085  0.0858 -0.0222
  594DPPI   C3B 9459  14.987   2.932   8.486  0.1619  0.0362 -0.1065
  594DPPI   C4B 9460  15.221   3.023   8.234 -0.0907 -0.0435  0.2406
  595DPPI    C1 9461   2.975  10.490  10.059 -0.3385  0.2009  0.1030
  595DPPI    C2 9462   2.968  10.201   9.782  0.0513  0.2329  0.0542
  595DPPI    C3 9463   2.859  10.121  10.159  0.2223  0.0030  0.0567
  595DPPI   PO4 9464   2.820  10.721   9.921 -0.1301  0.3994  0.0132
  595DPPI   GL1 9465   3.038  10.925   9.538  0.0613  0.1583 -0.0777
  595DPPI   GL2 9466   3.082  10.601   9.530  0.2483 -0.1475 -0.1062
  595DPPI   C1A 9467   3.262  11.310   9.220  0.0255  0.0217 -0.1440
  595DPPI   C2A 9468   3.236  11.260   8.746  0.0372  0.0663 -0.2451
  595DPPI   C3A 9469   3.097  10.856   8.465 -0.1749 -0.1406  0.1998
  595DPPI   C4A 9470   2.815  10.858   8.080 -0.0602 -0.0451  0.0661
  595DPPI   C1B 9471   3.077  10.260   9.154 -0.3953  0.2477  0.2428
  595DPPI   C2B 9472   3.116  10.294   8.743 -0.0862 -0.1563 -0.1160
  595DPPI   C3B 9473   3.037  10.335   8.329 -0.0266  0.0172  0.0526
  595DPPI   C4B 9474   3.141  10.443   7.879 -0.2187 -0.1660 -0.2931
  596DPPI    C1 9475  12.537   5.763  10.590 -0.2067  0.0672  0.0519
  596DPPI    C2 9476  12.774   5.591  10.862 -0.2164 -0.0992 -0.0432
  596DPPI    C3 9477  12.806   5.983  10.788 -0.0401 -0.1015  0.0161
  596DPPI   PO4 9478  12.579   5.640  10.299  0.0876 -0.1142 -0.2069
  596DPPI   GL1 9479  12.500   5.875   9.999 -0.4143 -0.4253 -0.2565
  596DPPI   GL2 9480  12.728   6.144  10.047  0.3028 -0.1579  0.2540
  596DPPI   C1A 9481  12.480   5.613   9.517 -0.3718 -0.0424 -0.3421
  596DPPI   C2A 9482  12.394   5.392   9.198 -0.1696 -0.0408 -0.0024
  596DPPI   C3A 9483  12.449   5.232   8.815  0.1876 -0.3944 -0.2365
  596DPPI   C4A 9484  12.139   5.180   8.469 -0.0351 -0.0153  0.2029
  596DPPI   C1B 9485  12.774   5.961   9.647 -0.3920  0.1147 -0.0408
  596DPPI   C2B 9486  12.881   5.830   9.217  0.1904  0.0652  0.3151
  596DPPI   C3B 9487  12.867   5.516   8.902  0.0096 -0.0605  0.0888
  596DPPI   C4B 9488  12.947   5.116   8.752  0.0549 -0.0629 -0.2592
  597PYPI    C1 9489   1.445  10.260   9.935  0.0291  0.0469 -0.0152
  597PYPI    C2 9490   1.622  10.443  10.244  0.0992  0.0082 -0.0321
  597PYPI    C3 9491   1.304  10.208  10.306  0.0349  0.1014 -0.0053
  597PYPI   PO4 9492   1.339  10.460   9.652  0.0238  0.0974 -0.1971
  597PYPI   GL1 9493   1.257  10.280   9.144 -0.0782  0.1557 -0.0398
  597PYPI   GL2 9494   1.153   9.875   9.330  0.3319 -0.0268 -0.1108
  597PYPI   C1A 9495   1.266  10.480   8.774  0.2596  0.1934  0.0023
  597PYPI   C2A 9496   1.309  10.514   8.415  0.1592 -0.0220  0.1394
  597PYPI   D3A 9497   1.024  10.530   8.159 -0.1096 -0.0244  0.1401
  597PYPI   C4A 9498   1.083  10.897   7.780 -0.4133 -0.0671  0.1173
  597PYPI   C1B 9499   1.404   9.843   8.937 -0.1293 -0.1299  0.3913
  597PYPI   C2B 9500   1.643   9.806   8.455 -0.1913 -0.2390 -0.2104
  597PYPI   C3B 9501   1.507   9.697   8.050  0.0149 -0.2374 -0.1283
  597PYPI   C4B 9502   1.399   9.792   7.631  0.2324  0.3320  0.0050
  598PYPI    C1 9503  11.878  11.503   9.590  0.1236  0.0758 -0.0470
  598PYPI    C2 9504  12.066  11.599   9.929 -0.0633  0.2209  0.0169
  598PYPI    C3 9505  11.666  11.593   9.917 -0.0577  0.2263 -0.2034
  598PYPI   PO4 9506  12.131  11.331   9.463 -0.0964 -0.0311 -0.2437
  598PYPI   GL1 9507  12.352  11.184   9.037 -0.3514 -0.0702  0.0192
  598PYPI   GL2 9508  11.986  11.164   8.967  0.0778  0.0749  0.1128
  598PYPI   C1A 9509  12.252  11.134   8.564 -0.0553  0.2455 -0.0086
  598PYPI   C2A 9510  12.288  11.126   8.106 -0.0471 -0.2109 -0.2798
  598PYPI   D3A 9511  12.393  11.183   7.833 -0.0561 -0.3559 -0.1006
  598PYPI   C4A 9512  12.255  11.039   7.382  0.3786 -0.1888  0.0399
  598PYPI   C1B 9513  11.893  10.847   8.820 -0.2094 -0.0309  0.0293
  598PYPI   C2B 9514  11.705  10.518   8.567  0.2284 -0.0706  0.0831
  598PYPI   C3B 9515  11.548  10.483   8.195  0.0907  0.1678 -0.1643
  598PYPI   C4B 9516  11.327  10.295   7.829 -0.2578  0.1706 -0.0934
  599PYPI    C1 9517   2.945  17.670   9.788 -0.0604 -0.0720  0.0703
  599PYPI    C2 9518   3.164  17.906  10.026  0.0505  0.0910 -0.1879
  599PYPI    C3 9519   3.175  17.508  10.072  0.1209  0.1172  0.0340
  599PYPI   PO4 9520   2.678  17.819   9.774 -0.1971  0.3827 -0.3011
  599PYPI   GL1 9521   2.299  17.646   9.557 -0.1171 -0.1109  0.2528
  599PYPI   GL2 9522   2.398  17.289   9.684 -0.0021 -0.2058 -0.1925
  599PYPI   C1A 9523   2.404  17.700   9.062  0.2307  0.0618  0.2893
  599PYPI   C2A 9524   2.303  17.691   8.707  0.3635  0.2513  0.2409
  599PYPI   D3A 9525   2.348  17.936   8.365  0.4038 -0.0728 -0.0120
  599PYPI   C4A 9526   2.030  18.062   8.067  0.1616 -0.1774 -0.0191
  599PYPI   C1B 9527   2.365  17.176   9.186 -0.2178  0.1701  0.1010
  599PYPI   C2B 9528   2.521  17.273   8.831 -0.0547 -0.0270  0.1724
  599PYPI   C3B 9529   2.544  17.134   8.494 -0.0592  0.0180 -0.1680
  599PYPI   C4B 9530   2.660  17.006   8.088 -0.2151  0.0760 -0.5182
  600PYPI    C1 9531   2.062   1.951   9.956 -0.2131  0.0961  0.1338
  600PYPI    C2 9532   2.297   1.719  10.182  0.0898  0.1581 -0.1098
  600PYPI    C3 9533   2.040   1.972  10.355  0.2636  0.1521  0.1639
  600PYPI   PO4 9534   2.209   1.826   9.704 -0.2835 -0.1684 -0.1984
  600PYPI   GL1 9535   2.252   1.815   9.253  0.1489  0.0939 -0.2034
  600PYPI   GL2 9536   2.316   2.001   8.907  0.2200  0.3015  0.2578
  600PYPI   C1A 9537   2.356   1.479   9.054  0.0023  0.1586 -0.1353
  600PYPI   C2A 9538   2.322   1.341   8.617 -0.1561 -0.2020 -0.2568
  600PYPI   D3A 9539   2.204   1.296   8.259  0.1171 -0.1457 -0.1617
  600PYPI   C4A 9540   2.329   1.058   7.868 -0.2226 -0.1917 -0.0323
  600PYPI   C1B 9541   2.297   1.832   8.407 -0.0694 -0.0552 -0.4091
  600PYPI   C2B 9542   2.365   1.791   7.969  0.1280  0.2644  0.0933
  600PYPI   C3B 9543   2.350   1.446   7.566 -0.1926 -0.2736 -0.0852
  600PYPI   C4B 9544   2.089   1.131   7.368 -0.0316  0.0522 -0.2570
  601PYPI    C1 9545   1.565   0.182  10.518 -0.0801 -0.2264  0.0491
  601PYPI    C2 9546   1.964   0.154  10.503 -0.0803 -0.1266 -0.1783
  601PYPI    C3 9547   1.779   0.178  10.857  0.1265 -0.0143 -0.0758
  601PYPI   PO4 9548   1.564   0.235  10.140  0.0368  0.1476  0.2590
  601PYPI   GL1 9549   1.508  -0.016   9.758 -0.4145  0.0361 -0.0428
  601PYPI   GL2 9550   1.357  -0.309   9.568  0.1231  0.0698 -0.0305
  601PYPI   C1A 9551   1.741   0.020   9.384 -0.2093  0.2495 -0.0260
  601PYPI   C2A 9552   1.928  -0.024   9.013 -0.3253  0.3655 -0.0774
  601PYPI   D3A 9553   1.862  -0.072   8.701 -0.0039 -0.1997  0.1697
  601PYPI   C4A 9554   1.572  -0.156   8.380 -0.1902 -0.0867 -0.2027
  601PYPI   C1B 9555   1.160  -0.447   9.117  0.3127 -0.0294 -0.0632
  601PYPI   C2B 9556   1.055  -0.584   8.731  0.1982 -0.0324  0.4839
  601PYPI   C3B 9557   1.135  -0.469   8.336 -0.2089 -0.0707  0.3038
  601PYPI   C4B 9558   1.052  -0.271   7.915  0.1457  0.0912 -0.1501
  602PYPI    C1 9559   1.126   8.579   9.546  0.2314  0.0008  0.0559
  602PYPI    C2 9560   1.268   8.529   9.175  0.1842  0.0959  0.0247
  602PYPI    C3 9561   1.510   8.481   9.490  0.2177 -0.0117 -0.0171
  602PYPI   PO4 9562   0.817   8.359   9.492  0.0968 -0.1936  0.0581
  602PYPI   GL1 9563   0.510   8.064   9.288 -0.1940  0.1513  0.0052
  602PYPI   GL2 9564   0.433   8.314   9.160  0.0994 -0.4163  0.0049
  602PYPI   C1A 9565   0.459   7.748   8.898 -0.0959  0.1679 -0.3481
  602PYPI   C2A 9566   0.262   7.707   8.513 -0.5214  0.0189  0.0251
  602PYPI   D3A 9567   0.111   7.443   8.281  0.1797  0.0154 -0.1727
  602PYPI   C4A 9568   0.048   7.624   7.825 -0.1026  0.4311 -0.5298
  602PYPI   C1B 9569   0.505   8.227   8.744  0.2017  0.1182 -0.1199
  602PYPI   C2B 9570   0.345   8.232   8.327  0.0100  0.1073  0.2183
  602PYPI   C3B 9571   0.292   8.099   7.877 -0.0676 -0.1105  0.1336
  602PYPI   C4B 9572   0.458   8.262   7.452 -0.0151 -0.5016  0.1383
  603ERGO   ROH 9573   6.257  16.980   8.751  0.0613  0.0072  0.1796
  603ERGO    R1 9574   6.265  16.884   8.484 -0.0155 -0.0115  0.1837
  603ERGO    R2 9575   6.047  16.768   8.362 -0.1030  0.1339  0.1974
  603ERGO    R3 9576   6.092  16.957   8.172  0.0221  0.0939  0.1871
  603ERGO    R4 9577   6.078  16.704   8.023 -0.1032  0.0895  0.2058
  603ERGO    R5 9578   6.240  16.851   8.016 -0.0208 -0.0010  0.2108
  603ERGO    C1 9579   6.140  16.845   7.648  0.0141  0.0263  0.2010
  603ERGO    C2 9580   5.939  16.843   7.398 -0.0528 -0.2584 -0.2140
  604ERGO   ROH 9581   9.043   7.494   9.028 -0.4203  0.1347 -0.1244
  604ERGO    R1 9582   9.159   7.401   8.787 -0.2296  0.0264  0.0074
  604ERGO    R2 9583   9.010   7.350   8.560 -0.0384  0.0131 -0.1136
  604ERGO    R3 9584   9.188   7.519   8.444  0.1272 -0.0826 -0.0054
  604ERGO    R4 9585   9.085   7.356   8.223 -0.1382  0.2348 -0.1340
  604ERGO    R5 9586   9.295   7.387   8.275 -0.0790 -0.0590 -0.1628
  604ERGO    C1 9587   9.296   7.518   7.917 -0.0408  0.2741 -0.0443
  604ERGO    C2 9588   9.156   7.571   7.615 -0.3218 -0.0919 -0.1616
  605ERGO   ROH 9589  12.050  15.727   9.087  0.0696  0.1085 -0.0731
  605ERGO    R1 9590  12.002  15.752   8.809 -0.1160  0.0679 -0.0453
  605ERGO    R2 9591  12.148  15.615   8.619 -0.1677  0.1282 -0.1267
  605ERGO    R3 9592  11.903  15.532   8.537 -0.1797  0.0033  0.0287
  605ERGO    R4 9593  12.033  15.631   8.294 -0.4160  0.1618 -0.0398
  605ERGO    R5 9594  11.839  15.692   8.371 -0.4002  0.0190  0.1239
  605ERGO    C1 9595  11.736  15.563   8.027 -0.5721  0.0642  0.1566
  605ERGO    C2 9596  11.888  15.295   7.745 -0.1440 -0.1074  0.1932
  606ERGO   ROH 9597  16.317  12.213   9.068 -0.0367  0.0365 -0.1002
  606ERGO    R1 9598  16.344  12.317   8.806 -0.2427 -0.0996 -0.1760
  606ERGO    R2 9599  16.577  12.294   8.661 -0.1823  0.2889 -0.1298
  606ERGO    R3 9600  16.413  12.185   8.474  0.0648 -0.2059 -0.0770
  606ERGO    R4 9601  16.633  12.303   8.320 -0.3460  0.5652 -0.1543
  606ERGO    R5 9602  16.420  12.340   8.291 -0.5108 -0.1082 -0.0456
  606ERGO    C1 9603  16.511  12.205   7.946 -0.2094  0.2615 -0.1191
  606ERGO    C2 9604  16.512  12.125   7.615  0.0393 -0.1750 -0.0080
  607ERGO   ROH 9605   8.773   5.782   9.311  0.1448  0.1210 -0.0323
  607ERGO    R1 9606   8.740   5.825   9.033  0.0337  0.0339 -0.0327
  607ERGO    R2 9607   8.952   5.831   8.857 -0.0335  0.0330 -0.1106
  607ERGO    R3 9608   8.809   5.641   8.727 -0.0363 -0.0368 -0.0073
  607ERGO    R4 9609   8.939   5.795   8.514 -0.0559 -0.1279 -0.0937
  607ERGO    R5 9610   8.726   5.752   8.531 -0.0560 -0.1293 -0.0555
  607ERGO    C1 9611   8.797   5.595   8.191 -0.0717 -0.2872  0.0131
  607ERGO    C2 9612   8.773   5.670   7.786  0.1848  0.3043 -0.1189
  608ERGO   ROH 9613   8.531  10.605   9.108 -0.0559 -0.0556 -0.1619
  608ERGO    R1 9614   8.572  10.698   8.844 -0.1058  0.0935 -0.1181
  608ERGO    R2 9615   8.560  10.531   8.624  0.0592  0.1753 -0.1914
  608ERGO    R3 9616   8.379  10.714   8.536 -0.0878  0.0614 -0.1308
  608ERGO    R4 9617   8.431  10.543   8.304 -0.1830  0.0005 -0.1044
  608ERGO    R5 9618   8.446  10.760   8.311 -0.2742  0.0091 -0.1983
  608ERGO    C1 9619   8.187  10.721   8.034 -0.4621 -0.2083  0.0031
  608ERGO    C2 9620   8.164  10.888   7.656  0.0344  0.1212  0.0455
  609ERGO   ROH 9621   7.721   0.538   9.161 -0.2281 -0.0716 -0.0299
  609ERGO    R1 9622   7.846   0.552   8.907 -0.1335 -0.2128  0.0076
  609ERGO    R2 9623   7.722   0.466   8.676 -0.1173 -0.1802 -0.0172
  609ERGO    R3 9624   7.782   0.716   8.589  0.0829 -0.2378 -0.0490
  609ERGO    R4 9625   7.747   0.557   8.344  0.0685 -0.2578 -0.0258
  609ERGO    R5 9626   7.920   0.680   8.396  0.1289 -0.3651  0.0109
  609ERGO    C1 9627   7.817   0.845   8.068  0.3646 -0.3571 -0.0605
  609ERGO    C2 9628   7.788   0.785   7.609  0.3035 -0.3868  0.1111
  610ERGO   ROH 9629   6.842   6.011   9.235  0.0290  0.0192 -0.0412
  610ERGO    R1 9630   6.822   6.101   8.967  0.1621 -0.0013 -0.0578
  610ERGO    R2 9631   6.894   6.357   8.890  0.2541 -0.0304 -0.0495
  610ERGO    R3 9632   7.049   6.223   8.711  0.2967 -0.0796  0.0217
  610ERGO    R4 9633   6.982   6.474   8.577  0.2654 -0.1392 -0.0888
  610ERGO    R5 9634   6.953   6.273   8.498  0.3065 -0.1809 -0.0111
  610ERGO    C1 9635   7.179   6.416   8.227  0.3120 -0.2488 -0.0448
  610ERGO    C2 9636   7.234   6.530   7.904 -0.0021 -0.1057 -0.0678
  611ERGO   ROH 9637   0.781  10.186   8.968  0.0100 -0.2952  0.2359
  611ERGO    R1 9638   0.756  10.094   8.702 -0.0218 -0.1503  0.1878
  611ERGO    R2 9639   0.970  10.079   8.528 -0.0421 -0.0537  0.1518
  611ERGO    R3 9640   0.890   9.821   8.502 -0.0429 -0.0409  0.0222
  611ERGO    R4 9641   1.107   9.850   8.309 -0.0962  0.0759 -0.0193
  611ERGO    R5 9642   0.907   9.776   8.268 -0.1046  0.0957 -0.0087
  611ERGO    C1 9643   1.111   9.474   8.157 -0.1284  0.1634 -0.2405
  611ERGO    C2 9644   1.188   9.266   7.872 -0.0632  0.1094  0.0200
  612ERGO   ROH 9645   6.341   7.500   8.884 -0.0147  0.2125 -0.0295
  612ERGO    R1 9646   6.416   7.570   8.620  0.1198  0.0333 -0.0411
  612ERGO    R2 9647   6.479   7.381   8.428  0.0211 -0.1075  0.0602
  612ERGO    R3 9648   6.288   7.511   8.285  0.1663 -0.0129 -0.0499
  612ERGO    R4 9649   6.396   7.309   8.101 -0.0749 -0.3046  0.1262
  612ERGO    R5 9650   6.379   7.524   8.063  0.1737 -0.3167 -0.0662
  612ERGO    C1 9651   6.169   7.389   7.775  0.0055 -0.3305  0.0613
  612ERGO    C2 9652   6.078   7.240   7.560  0.2894 -0.0403  0.1380
  613ERGO   ROH 9653   2.369  13.757   9.281  0.5245  0.2476 -0.0570
  613ERGO    R1 9654   2.295  13.846   9.022  0.2373 -0.0776 -0.0980
  613ERGO    R2 9655   2.415  14.063   8.900 -0.3104  0.1655 -0.2620
  613ERGO    R3 9656   2.459  13.885   8.699  0.0778  0.1320 -0.1522
  613ERGO    R4 9657   2.462  14.147   8.568 -0.3212  0.0576 -0.2886
  613ERGO    R5 9658   2.340  13.976   8.513  0.0001 -0.1799 -0.2491
  613ERGO    C1 9659   2.530  14.029   8.186  0.0369 -0.0366 -0.2009
  613ERGO    C2 9660   2.760  14.018   7.817  0.3823  0.1520  0.0005
  614ERGO   ROH 9661  15.943  14.619   9.080  0.1964  0.2314  0.0817
  614ERGO    R1 9662  15.845  14.596   8.816  0.1904  0.1969  0.0872
  614ERGO    R2 9663  15.793  14.815   8.657  0.3216  0.1715  0.0112
  614ERGO    R3 9664  15.958  14.688   8.483  0.2524  0.0168  0.0569
  614ERGO    R4 9665  15.808  14.878   8.317  0.4498  0.1405  0.0104
  614ERGO    R5 9666  15.827  14.663   8.284  0.2724  0.1182  0.0288
  614ERGO    C1 9667  15.972  14.794   7.956  0.4595 -0.0228  0.0528
  614ERGO    C2 9668  16.133  14.961   7.682 -0.1668  0.2335 -0.1200
  615ERGO   ROH 9669  12.897  16.372   9.214 -0.2023  0.0427 -0.1083
  615ERGO    R1 9670  12.731  16.382   8.986 -0.1483  0.0551 -0.1496
  615ERGO    R2 9671  12.768  16.566   8.784 -0.1127  0.0845 -0.1272
  615ERGO    R3 9672  12.772  16.344   8.626 -0.0523  0.0982 -0.1417
  615ERGO    R4 9673  12.768  16.570   8.438 -0.1212  0.0987 -0.1253
  615ERGO    R5 9674  12.629  16.401   8.441 -0.0679  0.0634 -0.1339
  615ERGO    C1 9675  12.771  16.365   8.089 -0.0696  0.1197 -0.1379
  615ERGO    C2 9676  12.968  16.574   7.827 -0.0132 -0.0257 -0.1181
  616ERGO   ROH 9677  18.923  12.717   6.067  0.1249 -0.0148 -0.1640
  616ERGO    R1 9678  19.077  12.758   6.301  0.1339 -0.0440 -0.1650
  616ERGO    R2 9679  19.242  12.976   6.334  0.0584  0.0036 -0.1029
  616ERGO    R3 9680  19.099  13.009   6.563  0.0697 -0.1303 -0.0757
  616ERGO    R4 9681  19.369  13.105   6.629  0.0403 -0.0478 -0.0725
  616ERGO    R5 9682  19.254  12.955   6.738  0.1102 -0.1305 -0.1109
  616ERGO    C1 9683  19.308  13.211   7.015  0.0405 -0.2035 -0.0291
  616ERGO    C2 9684  19.391  13.339   7.327  0.0227 -0.1940  0.2667
  617ERGO   ROH 9685   0.508  15.687   9.667 -0.4074 -0.4022  0.0649
  617ERGO    R1 9686   0.361  15.710   9.426 -0.4108  0.2507  0.1108
  617ERGO    R2 9687   0.303  15.954   9.309  0.3979  0.5514  0.2679
  617ERGO    R3 9688   0.420  15.841   9.091 -0.0363  0.2542  0.1752
  617ERGO    R4 9689   0.268  16.068   8.985  0.5698  0.7461  0.3156
  617ERGO    R5 9690   0.255  15.861   8.919 -0.0768  0.7859  0.2616
  617ERGO    C1 9691   0.357  16.029   8.592  0.2623  0.5805  0.2564
  617ERGO    C2 9692   0.326  16.140   8.200 -0.1713 -0.2124  0.3182
  618ERGO   ROH 9693  15.216  18.858   9.289  0.2316 -0.3758  0.0221
  618ERGO    R1 9694  15.155  18.709   9.056  0.2748 -0.1700 -0.1226
  618ERGO    R2 9695  14.942  18.771   8.891  0.1176 -0.2098  0.0700
  618ERGO    R3 9696  15.134  18.774   8.698  0.0105  0.2304 -0.0430
  618ERGO    R4 9697  14.879  18.779   8.551 -0.1202 -0.4379  0.1046
  618ERGO    R5 9698  15.043  18.638   8.523  0.2340 -0.0466  0.0429
  618ERGO    C1 9699  15.023  18.786   8.173 -0.3591 -0.1576  0.0187
  618ERGO    C2 9700  14.986  19.028   7.967 -0.1415  0.0491  0.1318
  619ERGO   ROH 9701   4.837  16.271   9.566 -0.2142 -0.1526 -0.1532
  619ERGO    R1 9702   4.785  16.342   9.297 -0.0357  0.0809 -0.1295
  619ERGO    R2 9703   4.921  16.545   9.168  0.3156 -0.0484  0.0197
  619ERGO    R3 9704   4.973  16.351   8.985  0.0648 -0.0322 -0.0721
  619ERGO    R4 9705   5.060  16.600   8.856  0.5841 -0.1044  0.1267
  619ERGO    R5 9706   4.921  16.453   8.774  0.3598  0.1930 -0.0396
  619ERGO    C1 9707   5.189  16.449   8.503  0.5050 -0.1215  0.1029
  619ERGO    C2 9708   5.381  16.388   8.148  0.0304 -0.3976 -0.2149
  620ERGO   ROH 9709   3.523   3.508   9.236 -0.1391  0.0748  0.1362
  620ERGO    R1 9710   3.490   3.617   8.977  0.1385  0.1478  0.1281
  620ERGO    R2 9711   3.672   3.574   8.773  0.1047 -0.2184  0.1686
  620ERGO    R3 9712   3.451   3.489   8.639 -0.0464  0.2240  0.1194
  620ERGO    R4 9713   3.651   3.537   8.430  0.0982 -0.1521  0.1620
  620ERGO    R5 9714   3.450   3.620   8.438  0.2507  0.2486  0.1288
  620ERGO    C1 9715   3.433   3.436   8.104 -0.0474  0.3018  0.1122
  620ERGO    C2 9716   3.550   3.444   7.873 -0.0970  0.0039 -0.2546
  621ERGO   ROH 9717  13.827   7.700   9.494 -0.0066 -0.0114  0.0866
  621ERGO    R1 9718  13.714   7.577   9.266 -0.1359  0.1153  0.0823
  621ERGO    R2 9719  13.592   7.722   9.065  0.1856  0.2717 -0.0014
  621ERGO    R3 9720  13.768   7.588   8.906  0.0168 -0.0811  0.0962
  621ERGO    R4 9721  13.530   7.627   8.738  0.2592  0.6403 -0.1279
  621ERGO    R5 9722  13.631   7.438   8.779 -0.2568  0.3399 -0.1380
  621ERGO    C1 9723  13.660   7.446   8.399  0.1436  0.5237 -0.1098
  621ERGO    C2 9724  13.713   7.547   8.136 -0.1564  0.0259  0.1097
  622ERGO   ROH 9725   3.555  11.549   9.556  0.0205  0.0336 -0.0583
  622ERGO    R1 9726   3.612  11.664   9.304 -0.1454  0.1361 -0.0490
  622ERGO    R2 9727   3.721  11.520   9.095 -0.0712  0.2776 -0.1013
  622ERGO    R3 9728   3.505  11.614   8.960 -0.1863  0.1149 -0.0355
  622ERGO    R4 9729   3.694  11.534   8.751 -0.0845  0.4471 -0.0950
  622ERGO    R5 9730   3.598  11.728   8.771 -0.3096  0.3362  0.0266
  622ERGO    C1 9731   3.476  11.630   8.424 -0.2002  0.3932 -0.0295
  622ERGO    C2 9732   3.636  11.501   8.088 -0.0910  0.0697  0.3410
  623ERGO   ROH 9733   1.909   5.020   9.311 -0.0162  0.0249  0.0465
  623ERGO    R1 9734   1.967   5.097   9.045  0.0017  0.0400  0.0539
  623ERGO    R2 9735   2.167   4.978   8.895  0.0725  0.1079  0.0884
  623ERGO    R3 9736   1.964   4.937   8.718  0.1152  0.0305  0.0581
  623ERGO    R4 9737   2.196   5.000   8.551  0.0624  0.3474  0.1024
  623ERGO    R5 9738   2.002   5.099   8.545 -0.0281  0.1723  0.1585
  623ERGO    C1 9739   2.023   4.976   8.185  0.0966  0.4141  0.0820
  623ERGO    C2 9740   1.906   4.881   7.902 -0.0585 -0.2039  0.3035
  624ERGO   ROH 9741   7.019  14.235   8.982 -0.1250  0.3758 -0.1771
  624ERGO    R1 9742   7.078  14.178   8.711 -0.0961  0.1420 -0.1235
  624ERGO    R2 9743   7.221  13.954   8.634 -0.1355  0.0438  0.0789
  624ERGO    R3 9744   7.005  13.910   8.475 -0.1221 -0.0339  0.0817
  624ERGO    R4 9745   7.224  13.764   8.345 -0.0580  0.1035  0.0400
  624ERGO    R5 9746   7.094  13.912   8.253 -0.1373  0.0555  0.0776
  624ERGO    C1 9747   7.022  13.612   8.028 -0.0002  0.0655  0.0199
  624ERGO    C2 9748   7.057  13.566   7.708 -0.2568 -0.0687 -0.0070
  625ERGO   ROH 9749  13.935  10.318   9.731 -0.2119  0.0884  0.0087
  625ERGO    R1 9750  13.745  10.267   9.528 -0.2665  0.1824  0.0341
  625ERGO    R2 9751  13.634  10.467   9.373 -0.0826  0.2282 -0.0509
  625ERGO    R3 9752  13.723  10.314   9.167 -0.2242  0.0536  0.0163
  625ERGO    R4 9753  13.573  10.531   9.039  0.1487  0.2388 -0.0921
  625ERGO    R5 9754  13.544  10.317   9.009 -0.1516  0.2792 -0.0567
  625ERGO    C1 9755  13.622  10.424   8.651  0.1504  0.0813 -0.0529
  625ERGO    C2 9756  13.844  10.467   8.403  0.0020 -0.3419 -0.0779
  626ERGO   ROH 9757   5.836  12.760   9.395  0.1884  0.3278 -0.2370
  626ERGO    R1 9758   5.992  12.729   9.162  0.2163  0.0280 -0.1825
  626ERGO    R2 9759   6.193  12.540   9.141  0.1829 -0.0395  0.0614
  626ERGO    R3 9760   6.056  12.465   8.919  0.1984 -0.2671  0.1265
  626ERGO    R4 9761   6.335  12.393   8.863  0.3309  0.3448 -0.0731
  626ERGO    R5 9762   6.204  12.515   8.738 -0.0167  0.1101  0.0452
  626ERGO    C1 9763   6.288  12.236   8.491  0.4316  0.3549 -0.0904
  626ERGO    C2 9764   6.366  11.900   8.290  0.1976  0.1125 -0.0786
  627ERGO   ROH 9765   7.718   3.372   9.038  0.0968  0.2557 -0.0483
  627ERGO    R1 9766   7.915   3.306   8.846  0.0317  0.0539 -0.0482
  627ERGO    R2 9767   7.855   3.175   8.611 -0.1063  0.1327 -0.0585
  627ERGO    R3 9768   7.983   3.387   8.498  0.1274  0.0050 -0.0413
  627ERGO    R4 9769   7.953   3.194   8.280 -0.1512  0.0807 -0.0748
  627ERGO    R5 9770   8.138   3.289   8.345 -0.0205 -0.1536 -0.0930
  627ERGO    C1 9771   8.129   3.404   7.981  0.0421 -0.0696 -0.0681
  627ERGO    C2 9772   8.203   3.449   7.630  0.0683 -0.4088  0.2336
  628ERGO   ROH 9773  17.984  12.468   9.050 -0.0461  0.0992  0.0402
  628ERGO    R1 9774  17.930  12.401   8.780 -0.0262 -0.0080  0.0614
  628ERGO    R2 9775  17.673  12.351   8.688 -0.0235 -0.0486  0.0608
  628ERGO    R3 9776  17.736  12.544   8.507 -0.0096 -0.1160 -0.0053
  628ERGO    R4 9777  17.519  12.394   8.382 -0.0255 -0.1217  0.0521
  628ERGO    R5 9778  17.713  12.437   8.295 -0.0300 -0.1745  0.0314
  628ERGO    C1 9779  17.487  12.600   8.034 -0.0136 -0.2276 -0.0151
  628ERGO    C2 9780  17.356  12.651   7.650  0.0864  0.0285 -0.2492
  629ERGO   ROH 9781   1.965   2.586   8.931  0.1092  0.0101 -0.0304
  629ERGO    R1 9782   2.043   2.415   8.719  0.0053  0.0206 -0.0782
  629ERGO    R2 9783   1.929   2.166   8.678 -0.0500  0.0398 -0.0652
  629ERGO    R3 9784   1.883   2.264   8.429 -0.1263  0.0787 -0.0354
  629ERGO    R4 9785   1.752   2.002   8.431  0.0166  0.0142 -0.0954
  629ERGO    R5 9786   1.899   2.073   8.286 -0.0380  0.1290 -0.0883
  629ERGO    C1 9787   1.606   1.998   8.053 -0.0162  0.0358 -0.0850
  629ERGO    C2 9788   1.468   1.837   7.824  0.0713 -0.1129 -0.1405
  630ERGO   ROH 9789  11.342  12.620   8.793 -0.0332 -0.1067 -0.0874
  630ERGO    R1 9790  11.214  12.713   8.558  0.0249  0.1149 -0.0332
  630ERGO    R2 9791  11.295  12.942   8.426  0.3424  0.0015 -0.0434
  630ERGO    R3 9792  11.310  12.774   8.213 -0.0025 -0.0110 -0.0638
  630ERGO    R4 9793  11.306  13.043   8.096  0.3409  0.0080 -0.0417
  630ERGO    R5 9794  11.173  12.878   8.046  0.0707  0.2042  0.0058
  630ERGO    C1 9795  11.327  12.944   7.703  0.0160 -0.0001 -0.0600
  630ERGO    C2 9796  11.301  12.900   7.387 -0.2418 -0.0335 -0.0724
  631ERGO   ROH 9797  17.440   6.029   7.773  0.0990 -0.1937 -0.0489
  631ERGO    R1 9798  17.400   5.796   7.928  0.0378 -0.1852 -0.0506
  631ERGO    R2 9799  17.153   5.675   7.954 -0.0131 -0.0745  0.0164
  631ERGO    R3 9800  17.288   5.455   7.869 -0.1381 -0.1293 -0.0394
  631ERGO    R4 9801  17.081   5.351   8.051  0.0714 -0.0222  0.2608
  631ERGO    R5 9802  17.296   5.313   8.062  0.0813 -0.0366  0.0202
  631ERGO    C1 9803  17.166   4.956   8.027  0.0038 -0.0430  0.3508
  631ERGO    C2 9804  17.083   4.728   7.825  0.2435 -0.0300 -0.1410
  632ERGO   ROH 9805  17.759  13.834   9.290  0.1272  0.2476  0.0751
  632ERGO    R1 9806  17.887  13.977   9.082  0.1158  0.1547  0.0030
  632ERGO    R2 9807  18.104  13.876   8.943  0.0589  0.0568 -0.0192
  632ERGO    R3 9808  17.949  13.928   8.726  0.0185  0.0333  0.0020
  632ERGO    R4 9809  18.203  13.834   8.615 -0.0049  0.0145 -0.0330
  632ERGO    R5 9810  18.100  14.020   8.565 -0.0101  0.0107 -0.0377
  632ERGO    C1 9811  18.115  13.859   8.220 -0.0800 -0.0321 -0.0211
  632ERGO    C2 9812  18.146  13.762   7.949  0.1399  0.2204 -0.1621
  633ERGO   ROH 9813  12.253  11.716   9.091 -0.1123  0.0911  0.0078
  633ERGO    R1 9814  12.189  11.666   8.820 -0.1041 -0.0234  0.0274
  633ERGO    R2 9815  12.203  11.861   8.625 -0.1279 -0.0989 -0.0474
  633ERGO    R3 9816  12.363  11.679   8.501 -0.1047 -0.1271  0.0217
  633ERGO    R4 9817  12.277  11.862   8.287  0.0234 -0.1049 -0.0154
  633ERGO    R5 9818  12.258  11.644   8.288 -0.0175 -0.1034 -0.0272
  633ERGO    C1 9819  12.470  11.692   7.974  0.1332 -0.1349  0.0679
  633ERGO    C2 9820  12.481  11.814   7.645  0.1095 -0.0531  0.3672
  634PSPI    C1 9821  12.872  17.087   5.010  0.1065 -0.1498 -0.1782
  634PSPI    C2 9822  12.616  17.310   4.798 -0.0229  0.1276  0.2567
  634PSPI    C3 9823  12.968  17.205   4.640 -0.1678  0.2184 -0.1377
  634PSPI   PO4 9824  12.872  17.261   5.237 -0.2614 -0.0330  0.2802
  634PSPI   GL1 9825  12.938  17.047   5.672 -0.2779  0.0893 -0.1618
  634PSPI   GL2 9826  13.151  16.881   5.614  0.0323  0.1560  0.1540
  634PSPI   C1A 9827  12.961  16.936   6.093  0.1127  0.0590  0.1900
  634PSPI   C2A 9828  12.885  17.008   6.467  0.2698 -0.0588 -0.0956
  634PSPI   C3A 9829  12.763  17.429   6.672 -0.0473  0.1091  0.1240
  634PSPI   C4A 9830  12.898  17.530   7.116  0.1135  0.1017  0.0456
  634PSPI   C1B 9831  13.332  16.598   5.962  0.1965 -0.2268  0.3346
  634PSPI   C2B 9832  13.432  16.361   6.341 -0.3169 -0.1141 -0.2143
  634PSPI   C3B 9833  13.293  16.233   6.871  0.4220 -0.4201  0.1541
  634PSPI   C4B 9834  13.504  15.917   7.124  0.0289  0.0096 -0.3565
  635PSPI    C1 9835  13.674   5.701   5.770  0.2030  0.0113  0.1493
  635PSPI    C2 9836  13.438   5.752   5.451  0.1678 -0.0077  0.1722
  635PSPI    C3 9837  13.757   5.512   5.427  0.4470  0.3710  0.0047
  635PSPI   PO4 9838  13.866   5.882   5.825  0.1650  0.0808 -0.0546
  635PSPI   GL1 9839  14.039   5.911   6.183  0.0593  0.3776 -0.3262
  635PSPI   GL2 9840  14.068   6.264   6.078 -0.1701 -0.2639 -0.4029
  635PSPI   C1A 9841  14.256   5.709   6.553  0.2625  0.3445 -0.1581
  635PSPI   C2A 9842  14.311   5.657   7.039 -0.0603 -0.0052 -0.0773
  635PSPI   C3A 9843  14.240   5.503   7.489  0.2587 -0.4320 -0.3825
  635PSPI   C4A 9844  14.035   5.371   7.883 -0.0932  0.2424  0.1703
  635PSPI   C1B 9845  14.157   6.221   6.620 -0.2446 -0.3654  0.2165
  635PSPI   C2B 9846  14.304   6.513   6.980  0.0135  0.1230 -0.0977
  635PSPI   C3B 9847  14.427   6.857   7.295  0.2558 -0.2808  0.1611
  635PSPI   C4B 9848  14.511   7.032   7.630  0.3208  0.1257 -0.0194
  636PSPI    C1 9849   0.470  16.908   5.283  0.0010  0.0513 -0.1955
  636PSPI    C2 9850   0.860  16.866   5.204  0.0276  0.0401 -0.0602
  636PSPI    C3 9851   0.653  17.167   5.039  0.0365 -0.0995 -0.3301
  636PSPI   PO4 9852   0.555  16.793   5.589 -0.5164  0.0923 -0.4078
  636PSPI   GL1 9853   0.573  16.719   5.973  0.0349 -0.2296 -0.0078
  636PSPI   GL2 9854   0.314  16.667   6.121  0.4098  0.2079 -0.1019
  636PSPI   C1A 9855   0.976  16.854   6.390 -0.1019 -0.1500 -0.0001
  636PSPI   C2A 9856   0.943  16.890   6.910  0.2240 -0.4707 -0.0839
  636PSPI   C3A 9857   1.010  17.124   7.262  0.0351  0.1431  0.2522
  636PSPI   C4A 9858   1.021  17.095   7.637  0.0967  0.2256 -0.1202
  636PSPI   C1B 9859   0.600  16.546   6.453 -0.3251 -0.3472 -0.0041
  636PSPI   C2B 9860   0.592  16.516   6.856 -0.1049  0.4153  0.0992
  636PSPI   C3B 9861   0.466  16.527   7.229 -0.0155  0.0741  0.0274
  636PSPI   C4B 9862   0.193  16.400   7.631 -0.0931  0.0944  0.3284
  637PSPI    C1 9863   8.781   8.791   4.705 -0.3267  0.3000  0.0938
  637PSPI    C2 9864   8.409   8.728   4.571 -0.3055  0.0381  0.1539
  637PSPI    C3 9865   8.644   8.418   4.664  0.0136  0.1939 -0.1131
  637PSPI   PO4 9866   8.728   8.940   4.952 -0.2703  0.0202 -0.3147
  637PSPI   GL1 9867   8.668   8.840   5.395 -0.1738  0.1039  0.0859
  637PSPI   GL2 9868   8.763   8.594   5.599 -0.0868 -0.1194 -0.2005
  637PSPI   C1A 9869   8.471   8.976   5.737  0.3906 -0.1099  0.0109
  637PSPI   C2A 9870   8.354   8.814   6.031  0.2186  0.1555  0.1601
  637PSPI   C3A 9871   8.553   8.496   6.344  0.2093  0.0093 -0.1677
  637PSPI   C4A 9872   8.603   8.353   6.722  0.3364  0.1669 -0.0050
  637PSPI   C1B 9873   8.772   8.341   5.974  0.1102  0.0282 -0.0233
  637PSPI   C2B 9874   8.922   8.076   6.324  0.1152 -0.6181  0.0026
  637PSPI   C3B 9875   9.052   7.861   6.708 -0.1125  0.0928  0.3930
  637PSPI   C4B 9876   9.076   7.462   6.855 -0.1598  0.0281  0.0853
  638PSPI    C1 9877  17.105  15.511   5.547  0.0884 -0.0240  0.0665
  638PSPI    C2 9878  17.156  15.600   5.160 -0.1120  0.0253  0.0502
  638PSPI    C3 9879  16.787  15.567   5.311 -0.0357  0.1774  0.2769
  638PSPI   PO4 9880  17.436  15.493   5.595 -0.0880  0.3778 -0.2194
  638PSPI   GL1 9881  17.729  15.616   5.950 -0.2288 -0.0989 -0.2624
  638PSPI   GL2 9882  17.558  15.304   6.091  0.0281 -0.0036  0.3096
  638PSPI   C1A 9883  17.913  15.611   6.364 -0.0834  0.0300 -0.0213
  638PSPI   C2A 9884  18.125  15.381   6.766  0.0427 -0.3762 -0.1103
  638PSPI   C3A 9885  18.180  15.153   7.103  0.1458 -0.0056 -0.1944
  638PSPI   C4A 9886  18.402  15.195   7.426  0.3107  0.0721 -0.2154
  638PSPI   C1B 9887  17.575  14.871   6.207  0.1304 -0.1700  0.1494
  638PSPI   C2B 9888  17.558  14.534   6.491 -0.0661  0.0125  0.2365
  638PSPI   C3B 9889  17.583  14.149   6.855 -0.0953  0.2016 -0.2994
  638PSPI   C4B 9890  17.684  13.894   7.148 -0.1589  0.0670 -0.0457
  639PSPI    C1 9891   5.400  18.712   5.087 -0.4022 -0.1129 -0.0168
  639PSPI    C2 9892   5.136  18.903   4.855 -0.0592  0.0486 -0.2824
  639PSPI    C3 9893   5.382  18.630   4.696  0.0173 -0.0131 -0.0614
  639PSPI   PO4 9894   5.499  18.867   5.220 -0.0462 -0.1159  0.2385
  639PSPI   GL1 9895   5.376  19.176   5.403 -0.1087 -0.0521  0.1578
  639PSPI   GL2 9896   5.743  19.132   5.581  0.0546  0.2287 -0.0781
  639PSPI   C1A 9897   5.443  19.436   5.833 -0.0995  0.0286 -0.1321
  639PSPI   C2A 9898   5.363  19.495   6.344 -0.0888  0.2867 -0.2111
  639PSPI   C3A 9899   5.195  19.802   6.470  0.2363 -0.2714  0.0035
  639PSPI   C4A 9900   4.817  20.008   6.343 -0.1244  0.1191 -0.0656
  639PSPI   C1B 9901   6.154  18.885   5.743 -0.1627 -0.0565  0.0153
  639PSPI   C2B 9902   6.183  18.830   6.136 -0.0031 -0.2171  0.0810
  639PSPI   C3B 9903   6.200  18.817   6.516 -0.0877  0.0694  0.1513
  639PSPI   C4B 9904   5.977  18.907   6.796  0.2168 -0.0249 -0.0139
  640PSPI    C1 9905   7.867   3.216   5.261  0.0018 -0.1482  0.0987
  640PSPI    C2 9906   7.773   3.428   4.935 -0.0113  0.0674  0.2405
  640PSPI    C3 9907   8.082   3.174   4.925 -0.1736 -0.1258 -0.0175
  640PSPI   PO4 9908   7.901   3.442   5.642  0.0791 -0.4956 -0.3604
  640PSPI   GL1 9909   8.017   3.281   6.039 -0.1027  0.0945  0.0430
  640PSPI   GL2 9910   8.347   3.263   5.800  0.0655  0.3399 -0.0373
  640PSPI   C1A 9911   7.954   3.114   6.386 -0.2169 -0.0690  0.0478
  640PSPI   C2A 9912   8.148   2.892   6.690  0.3262  0.1107  0.2403
  640PSPI   C3A 9913   8.348   2.721   6.982 -0.0508 -0.3682  0.1862
  640PSPI   C4A 9914   8.785   2.826   7.219 -0.0414  0.0208  0.2247
  640PSPI   C1B 9915   8.363   2.915   6.114 -0.1083  0.0051 -0.0163
  640PSPI   C2B 9916   8.609   2.788   6.493 -0.0545  0.1466 -0.0313
  640PSPI   C3B 9917   8.877   3.160   6.672 -0.2107  0.1507 -0.1094
  640PSPI   C4B 9918   9.139   3.202   7.033  0.3056 -0.0145 -0.1743
  641PSPI    C1 9919   3.995   2.681   5.309  0.0831  0.0462 -0.0521
  641PSPI    C2 9920   4.208   2.374   5.451  0.0935  0.0702 -0.0157
  641PSPI    C3 9921   4.216   2.460   5.061  0.0946  0.0273 -0.0251
  641PSPI   PO4 9922   3.803   2.641   5.452  0.3652 -0.1719 -0.4502
  641PSPI   GL1 9923   3.595   2.507   5.729 -0.2762  0.0758  0.0228
  641PSPI   GL2 9924   3.914   2.448   5.880 -0.4471 -0.1402 -0.0859
  641PSPI   C1A 9925   3.520   2.524   6.205 -0.0303 -0.1619 -0.0168
  641PSPI   C2A 9926   3.447   2.296   6.569 -0.0923 -0.2727  0.1815
  641PSPI   C3A 9927   3.183   2.391   6.938 -0.0030  0.1788 -0.0662
  641PSPI   C4A 9928   2.919   2.222   7.286  0.0842 -0.1466  0.4038
  641PSPI   C1B 9929   3.824   2.125   6.133 -0.2670 -0.1335  0.1296
  641PSPI   C2B 9930   3.848   1.794   6.515  0.2462  0.0984  0.0589
  641PSPI   C3B 9931   3.888   1.995   6.909 -0.0614 -0.1692 -0.1133
  641PSPI   C4B 9932   4.104   2.325   7.061  0.1625  0.0417 -0.1290
  642PSPI    C1 9933   9.085   9.078   5.299 -0.0190  0.2036  0.0526
  642PSPI    C2 9934   9.228   8.969   4.942 -0.0783  0.3306 -0.0105
  642PSPI    C3 9935   9.327   9.325   5.097  0.0505  0.2224  0.1582
  642PSPI   PO4 9936   9.199   8.880   5.424  0.1176 -0.0369 -0.1948
  642PSPI   GL1 9937   9.412   9.061   5.692  0.0807 -0.4514  0.0236
  642PSPI   GL2 9938   9.387   9.371   5.567 -0.0891  0.4414  0.2314
  642PSPI   C1A 9939   9.395   9.102   6.106  0.0481 -0.0368  0.0760
  642PSPI   C2A 9940   9.763   9.286   6.256  0.2043  0.1305  0.1048
  642PSPI   C3A 9941   9.999   9.572   6.454  0.1364 -0.1497  0.3126
  642PSPI   C4A 9942  10.130   9.844   6.803 -0.2761  0.2192 -0.0001
  642PSPI   C1B 9943   9.182   9.529   5.885  0.0919 -0.0895 -0.2782
  642PSPI   C2B 9944   9.248   9.638   6.262  0.1754  0.0847 -0.0433
  642PSPI   C3B 9945   9.473   9.809   6.667 -0.0031 -0.1091  0.3092
  642PSPI   C4B 9946   9.736   9.646   7.004  0.0463  0.1545  0.4692
  643PSPI    C1 9947   1.392  12.301   5.365  0.2389  0.1154 -0.0576
  643PSPI    C2 9948   1.131  12.264   5.064  0.1742 -0.0288  0.0146
  643PSPI    C3 9949   1.492  12.425   4.998  0.0896  0.1182 -0.0981
  643PSPI   PO4 9950   1.244  12.436   5.606  0.0011 -0.1552 -0.1849
  643PSPI   GL1 9951   1.337  12.459   6.004 -0.3265 -0.1252 -0.0192
  643PSPI   GL2 9952   1.775  12.393   5.923  0.2268  0.2502  0.0337
  643PSPI   C1A 9953   1.240  12.605   6.376  0.1420  0.5097 -0.3448
  643PSPI   C2A 9954   0.933  12.738   6.705 -0.0219 -0.2053  0.0209
  643PSPI   C3A 9955   0.492  12.787   6.906 -0.4514 -0.0838  0.2466
  643PSPI   C4A 9956   0.327  12.802   7.283 -0.2623 -0.3740 -0.0777
  643PSPI   C1B 9957   1.860  12.388   6.313  0.2060 -0.0759  0.0413
  643PSPI   C2B 9958   1.705  12.404   6.727  0.1003  0.0415  0.0135
  643PSPI   C3B 9959   1.352  12.693   7.062  0.0790  0.0053 -0.2572
  643PSPI   C4B 9960   1.509  12.927   7.410  0.2239 -0.1413  0.2244
  644PSPI    C1 9961   7.267  14.456   5.038 -0.0790  0.0065 -0.1227
  644PSPI    C2 9962   6.957  14.203   5.039 -0.0736 -0.0058  0.3099
  644PSPI    C3 9963   7.303  14.095   4.869 -0.2774 -0.0206 -0.1093
  644PSPI   PO4 9964   7.160  14.639   5.223 -0.0794  0.0722  0.0701
  644PSPI   GL1 9965   7.066  14.820   5.543 -0.0411 -0.0951  0.0258
  644PSPI   GL2 9966   7.325  14.979   5.681  0.0576 -0.0483  0.1765
  644PSPI   C1A 9967   6.814  14.770   5.885 -0.1070  0.0500 -0.2505
  644PSPI   C2A 9968   6.534  14.892   6.180  0.0708  0.3267  0.3466
  644PSPI   C3A 9969   6.189  14.944   6.419 -0.1745 -0.3251  0.1645
  644PSPI   C4A 9970   5.753  14.826   6.402  0.3628  0.0126 -0.0539
  644PSPI   C1B 9971   7.279  15.340   5.940  0.0336  0.3335 -0.0480
  644PSPI   C2B 9972   7.614  15.698   6.132  0.2031  0.4194 -0.2064
  644PSPI   C3B 9973   7.578  16.052   6.213 -0.0994  0.3882  0.0724
  644PSPI   C4B 9974   7.740  16.354   6.419 -0.2109 -0.1835 -0.0566
  645PSPI    C1 9975   4.159   3.277   5.305 -0.0522  0.2627  0.1452
  645PSPI    C2 9976   4.176   3.635   5.127  0.1390  0.2278  0.0914
  645PSPI    C3 9977   4.513   3.453   5.243  0.0735 -0.1023 -0.2182
  645PSPI   PO4 9978   4.021   3.212   5.440 -0.0339  0.0349  0.0225
  645PSPI   GL1 9979   3.979   3.265   5.803 -0.3880 -0.3718  0.0404
  645PSPI   GL2 9980   3.825   2.944   5.873  0.1389  0.0274 -0.1270
  645PSPI   C1A 9981   3.870   3.312   6.225  0.2499  0.1004  0.1205
  645PSPI   C2A 9982   3.756   3.544   6.648 -0.0648 -0.0938 -0.0071
  645PSPI   C3A 9983   3.682   3.471   7.091  0.0221  0.1392 -0.1470
  645PSPI   C4A 9984   3.535   3.149   7.470  0.0053  0.0227  0.1335
  645PSPI   C1B 9985   3.907   2.796   6.357 -0.1390 -0.1514 -0.2835
  645PSPI   C2B 9986   3.982   2.876   6.763  0.2386  0.1526 -0.2571
  645PSPI   C3B 9987   3.861   2.899   7.234  0.0401  0.0225 -0.3259
  645PSPI   C4B 9988   4.086   3.148   7.600 -0.1857  0.2587 -0.0232
  646PSPI    C1 9989  12.483   7.156   5.393  0.0900  0.2113  0.1830
  646PSPI    C2 9990  12.551   7.550   5.407 -0.0059  0.2409 -0.1073
  646PSPI    C3 9991  12.669   7.338   5.089  0.2219 -0.0015  0.1340
  646PSPI   PO4 9992  12.228   7.101   5.468 -0.2922  0.0549  0.3287
  646PSPI   GL1 9993  11.866   6.814   5.666 -0.1615 -0.2567 -0.0005
  646PSPI   GL2 9994  11.590   6.830   5.701 -0.0126  0.0672  0.0400
  646PSPI   C1A 9995  11.723   6.920   6.140 -0.1272  0.0921 -0.2708
  646PSPI   C2A 9996  11.509   6.957   6.319  0.1031 -0.2156  0.0974
  646PSPI   C3A 9997  11.356   7.061   6.734 -0.1680  0.2683  0.0627
  646PSPI   C4A 9998  11.381   7.473   7.024  0.3690  0.3149  0.6963
  646PSPI   C1B 9999  11.750   6.451   6.008  0.0748  0.1489  0.0537
  646PSPI   C2B10000  11.726   6.535   6.479 -0.1003  0.1731 -0.0373
  646PSPI   C3B10001  11.784   6.852   6.780  0.0672 -0.1469  0.0910
  646PSPI   C4B10002  11.775   6.853   7.160  0.2232 -0.2737 -0.2802
  647PSPI    C110003  13.038   6.320   5.433  0.0342 -0.0509  0.0165
  647PSPI    C210004  13.297   6.575   5.266 -0.0943 -0.0226 -0.1425
  647PSPI    C310005  13.327   6.183   5.193 -0.2127 -0.0004 -0.3176
  647PSPI   PO410006  13.027   6.340   5.674 -0.1678 -0.1241  0.0547
  647PSPI   GL110007  13.189   6.334   5.994 -0.1852 -0.1697  0.0548
  647PSPI   GL210008  13.062   6.140   6.219 -0.0540  0.0552 -0.0899
  647PSPI   C1A10009  13.416   6.516   6.536 -0.0384  0.5491  0.0312
  647PSPI   C2A10010  13.485   6.297   6.952 -0.2203 -0.4157  0.2389
  647PSPI   C3A10011  13.440   6.216   7.369 -0.2958  0.2027  0.1516
  647PSPI   C4A10012  13.225   6.102   7.627 -0.1365  0.2920 -0.2370
  647PSPI   C1B10013  13.199   5.975   6.619 -0.0705  0.1389 -0.2269
  647PSPI   C2B10014  13.406   5.807   6.962  0.0404 -0.1504 -0.0307
  647PSPI   C3B10015  13.382   5.611   7.372 -0.0232 -0.0101 -0.6559
  647PSPI   C4B10016  13.311   5.202   7.464 -0.1807 -0.0219 -0.3611
  648PSPI    C110017   9.013   3.950   5.500 -0.0459  0.3573  0.0509
  648PSPI    C210018   8.816   3.774   5.200  0.1681  0.1075  0.0529
  648PSPI    C310019   8.716   4.144   5.315 -0.0246  0.1423 -0.2154
  648PSPI   PO410020   9.104   3.785   5.689 -0.2052 -0.3147  0.0691
  648PSPI   GL110021   9.277   3.971   6.080  0.0240  0.0981  0.2300
  648PSPI   GL210022   8.938   4.041   6.087 -0.1263  0.3677  0.0684
  648PSPI   C1A10023   8.976   3.603   6.294 -0.2320  0.2325 -0.2041
  648PSPI   C2A10024   8.754   3.736   6.588 -0.0547 -0.0134  0.1640
  648PSPI   C3A10025   8.532   3.624   7.063 -0.0814 -0.2030  0.0091
  648PSPI   C4A10026   8.107   3.651   7.204  0.0747  0.0530 -0.0141
  648PSPI   C1B10027   9.184   4.196   6.527 -0.2817 -0.0875  0.0691
  648PSPI   C2B10028   9.370   4.311   6.890  0.1171  0.1447  0.0620
  648PSPI   C3B10029   9.818   4.383   7.164  0.1832  0.0269  0.0490
  648PSPI   C4B10030   9.736   4.657   7.438 -0.2367 -0.2904 -0.1949
  649PSPI    C110031   6.688   3.901   5.424  0.2230  0.0989  0.1430
  649PSPI    C210032   6.389   4.092   5.609  0.1517  0.0675  0.0607
  649PSPI    C310033   6.738   4.277   5.550  0.0273  0.2331 -0.1690
  649PSPI   PO410034   6.511   3.641   5.339 -0.1520  0.2284  0.2973
  649PSPI   GL110035   6.561   3.297   5.636 -0.2259 -0.1845 -0.0473
  649PSPI   GL210036   6.339   3.273   5.920  0.0446 -0.1511  0.0734
  649PSPI   C1A10037   6.556   2.822   5.875  0.0469 -0.0227  0.0236
  649PSPI   C2A10038   6.254   2.844   6.325 -0.3858  0.0840  0.0188
  649PSPI   C3A10039   6.199   2.747   6.701 -0.2300  0.2913 -0.3558
  649PSPI   C4A10040   6.398   2.889   7.086  0.0510 -0.0137  0.1212
  649PSPI   C1B10041   6.531   3.345   6.343 -0.0800 -0.1347  0.0272
  649PSPI   C2B10042   6.494   3.182   6.645  0.2446 -0.1573  0.0954
  649PSPI   C3B10043   6.790   3.256   6.919  0.1905 -0.1834  0.1544
  649PSPI   C4B10044   7.084   3.293   7.221  0.1711  0.0235  0.1103
  650PSPI    C110045  16.553   4.903   5.845  0.0839  0.0473 -0.0318
  650PSPI    C210046  16.803   4.595   5.795  0.1168  0.1005 -0.2001
  650PSPI    C310047  16.522   4.672   5.521 -0.1765 -0.0418  0.0543
  650PSPI   PO410048  16.361   4.951   6.137  0.0098 -0.2183 -0.1929
  650PSPI   GL110049  16.284   5.054   6.601  0.3605 -0.0934 -0.0031
  650PSPI   GL210050  16.501   5.258   6.758 -0.4184 -0.2354 -0.1170
  650PSPI   C1A10051  15.912   4.898   6.873  0.2280  0.2953  0.1644
  650PSPI   C2A10052  15.838   4.862   7.295 -0.0020  0.0783 -0.0349
  650PSPI   C3A10053  15.956   4.942   7.653  0.0910 -0.3250  0.1486
  650PSPI   C4A10054  16.414   4.862   7.710  0.3775 -0.1063 -0.2781
  650PSPI   C1B10055  16.865   5.186   7.013 -0.1492  0.4153  0.0257
  650PSPI   C2B10056  17.168   5.202   7.412  0.1937  0.0115  0.3252
  650PSPI   C3B10057  17.453   4.973   7.630  0.0107 -0.0955 -0.1989
  650PSPI   C4B10058  17.669   4.896   8.041  0.0337  0.4012 -0.0555
  651PSPI    C110059  15.869   2.426   5.416 -0.1101 -0.1025 -0.0503
  651PSPI    C210060  15.977   2.703   5.148  0.0395 -0.0095  0.1038
  651PSPI    C310061  15.893   2.331   5.028  0.1897  0.0085 -0.0620
  651PSPI   PO410062  16.081   2.521   5.638 -0.0899  0.2196 -0.0975
  651PSPI   GL110063  16.344   2.617   5.986 -0.1952 -0.0907  0.2624
  651PSPI   GL210064  16.114   2.791   6.077 -0.1490 -0.3037  0.2114
  651PSPI   C1A10065  16.587   2.833   6.306 -0.1384 -0.2479  0.1933
  651PSPI   C2A10066  16.695   2.817   6.689 -0.0252 -0.1766  0.2103
  651PSPI   C3A10067  17.056   2.869   7.023 -0.0703  0.0555  0.2934
  651PSPI   C4A10068  17.525   3.154   7.121  0.0194  0.2566  0.1075
  651PSPI   C1B10069  16.157   3.108   6.452 -0.2284  0.1149 -0.2383
  651PSPI   C2B10070  15.915   3.335   6.714  0.2099  0.0910  0.3267
  651PSPI   C3B10071  15.506   3.374   6.666 -0.3431 -0.4479 -0.1085
  651PSPI   C4B10072  15.110   3.636   6.815 -0.0679 -0.0441  0.0984
  652PSPI    C110073  17.565  11.380   5.313  0.1194  0.0154  0.1229
  652PSPI    C210074  17.769  11.678   5.485 -0.0936  0.2370 -0.0004
  652PSPI    C310075  17.848  11.573   5.107 -0.0736  0.1902  0.0166
  652PSPI   PO410076  17.620  11.170   5.557  0.2411 -0.0604 -0.2198
  652PSPI   GL110077  17.907  10.991   5.950 -0.1439 -0.1628 -0.1111
  652PSPI   GL210078  17.984  11.303   5.899  0.0682 -0.0784  0.3232
  652PSPI   C1A10079  17.604  10.851   6.296 -0.0887 -0.0636 -0.2061
  652PSPI   C2A10080  17.489  10.529   6.788  0.1965 -0.1742  0.3984
  652PSPI   C3A10081  17.508  10.330   7.167  0.0877 -0.3342  0.1381
  652PSPI   C4A10082  17.302  10.008   7.321  0.1696  0.2964  0.0980
  652PSPI   C1B10083  17.840  11.299   6.307 -0.2517 -0.0131 -0.1128
  652PSPI   C2B10084  17.743  11.691   6.471  0.1406 -0.3436  0.0848
  652PSPI   C3B10085  17.549  12.045   6.745  0.0290  0.0853 -0.1533
  652PSPI   C4B10086  17.361  12.400   7.022  0.0777  0.5445 -0.0102
  653PSPI    C110087   1.039  15.831   5.804 -0.1617  0.1942 -0.1278
  653PSPI    C210088   1.343  15.949   5.573  0.1378  0.0053  0.1618
  653PSPI    C310089   1.315  16.081   5.950 -0.0017 -0.1724  0.2149
  653PSPI   PO410090   1.027  15.549   5.713  0.1331  0.0737  0.1874
  653PSPI   GL110091   1.008  15.342   6.011 -0.5244 -0.0373 -0.4038
  653PSPI   GL210092   1.020  15.595   6.208 -0.1185  0.1036  0.4044
  653PSPI   C1A10093   1.142  15.353   6.563  0.0902  0.2896 -0.3115
  653PSPI   C2A10094   1.147  15.199   6.956  0.3019 -0.1376 -0.3160
  653PSPI   C3A10095   1.044  14.778   7.096  0.1455 -0.2533  0.0333
  653PSPI   C4A10096   0.741  14.557   7.465 -0.0845  0.0482 -0.1431
  653PSPI   C1B10097   1.279  15.865   6.405 -0.1348 -0.2848  0.0936
  653PSPI   C2B10098   1.217  15.868   6.867  0.1495  0.1028 -0.0432
  653PSPI   C3B10099   1.255  15.947   7.239  0.2360  0.1538  0.1955
  653PSPI   C4B10100   1.167  16.138   7.626  0.2605  0.1365  0.1450
  654POPI    C110101   0.830   0.613   5.520  0.3290  0.0996  0.2102
  654POPI    C210102   0.842   0.246   5.363 -0.2528  0.0981  0.1465
  654POPI    C310103   1.020   0.550   5.174 -0.3048 -0.0385 -0.1280
  654POPI   PO410104   0.788   0.573   5.770  0.1037  0.0689  0.3588
  654POPI   GL110105   0.657   0.544   6.254 -0.0849  0.0354  0.2669
  654POPI   GL210106   0.751   0.165   6.313  0.2140  0.5925 -0.4437
  654POPI   C1A10107   0.842   0.336   6.754  0.1441  0.0937 -0.0702
  654POPI   D2A10108   1.002   0.253   7.138  0.0959 -0.0781 -0.2220
  654POPI   C3A10109   0.838   0.118   7.626  0.2279 -0.5405  0.0664
  654POPI   C4A10110   0.638   0.071   8.065  0.0789  0.1200 -0.0121
  654POPI   C1B10111   0.476   0.177   6.535 -0.0917 -0.0287 -0.1115
  654POPI   C2B10112   0.469   0.005   6.956 -0.1046  0.0065  0.4511
  654POPI   C3B10113   0.415   0.168   7.334  0.3326  0.0457 -0.0371
  654POPI   C4B10114   0.269   0.311   7.749  0.3118 -0.1684  0.2017
  655POPI    C110115   7.611   1.688   4.889 -0.0547  0.1456 -0.1671
  655POPI    C210116   7.408   1.487   5.168  0.2577  0.1478  0.0664
  655POPI    C310117   7.409   1.358   4.790 -0.2767  0.2186  0.0334
  655POPI   PO410118   7.719   1.883   5.107  0.1598  0.3684  0.0473
  655POPI   GL110119   7.596   1.718   5.565 -0.2051 -0.3856 -0.1745
  655POPI   GL210120   7.782   1.567   5.514 -0.1900  0.0196 -0.0632
  655POPI   C1A10121   7.486   1.658   5.929  0.3299  0.0911  0.3396
  655POPI   D2A10122   7.567   1.500   6.424  0.1777 -0.1504 -0.2262
  655POPI   C3A10123   7.421   1.422   6.746  0.0700 -0.2482  0.1078
  655POPI   C4A10124   7.146   1.332   7.130  0.1621 -0.0241 -0.0433
  655POPI   C1B10125   7.883   1.277   5.920  0.0009 -0.3653  0.2215
  655POPI   C2B10126   8.045   1.230   6.417 -0.1387  0.1654  0.0891
  655POPI   C3B10127   8.115   1.470   6.789 -0.1568 -0.0247 -0.3329
  655POPI   C4B10128   8.299   1.588   7.216  0.1867  0.2471 -0.2955
  656POPI    C110129  11.580  10.711   4.921 -0.0252 -0.0538 -0.1736
  656POPI    C210130  11.267  10.469   4.861 -0.0309 -0.0685 -0.0851
  656POPI    C310131  11.326  10.783   4.620 -0.0024 -0.1793 -0.2232
  656POPI   PO410132  11.570  10.834   5.177  0.1163  0.1533 -0.0275
  656POPI   GL110133  11.423  10.828   5.624  0.2805 -0.0000  0.0089
  656POPI   GL210134  11.597  11.086   5.827  0.1380 -0.0132  0.3280
  656POPI   C1A10135  11.425  10.734   6.106  0.0268 -0.2402 -0.1365
  656POPI   D2A10136  11.483  10.643   6.502 -0.2367 -0.1640 -0.0718
  656POPI   C3A10137  11.129  10.703   6.768 -0.0233  0.1686 -0.0426
  656POPI   C4A10138  10.654  10.947   6.664  0.3385  0.1778 -0.0874
  656POPI   C1B10139  11.619  11.215   6.329  0.0102 -0.2952 -0.1928
  656POPI   C2B10140  11.484  11.541   6.681 -0.3435  0.1886  0.0336
  656POPI   C3B10141  11.646  11.842   6.374  0.0321  0.1225  0.1007
  656POPI   C4B10142  11.800  11.910   5.928  0.1315  0.2149 -0.1945
  657POPI    C110143  12.873  13.989   4.868 -0.1109 -0.1777 -0.1560
  657POPI    C210144  13.190  13.782   4.737  0.1470  0.1554 -0.0714
  657POPI    C310145  12.888  13.865   4.488  0.0786 -0.2443 -0.1279
  657POPI   PO410146  13.065  14.156   5.141  0.3508  0.2424  0.0842
  657POPI   GL110147  13.042  13.990   5.574  0.3263 -0.0797 -0.1480
  657POPI   GL210148  13.341  13.967   5.750 -0.1911  0.0028  0.0825
  657POPI   C1A10149  12.989  13.590   5.851 -0.2034 -0.0133  0.1687
  657POPI   D2A10150  13.059  13.170   6.130  0.3155 -0.1546 -0.2235
  657POPI   C3A10151  12.936  13.128   6.525 -0.0533 -0.2309 -0.3174
  657POPI   C4A10152  13.157  13.339   6.901  0.0925  0.1492  0.0284
  657POPI   C1B10153  13.181  13.940   6.117 -0.0833 -0.0038  0.2399
  657POPI   C2B10154  13.127  14.031   6.560  0.2576  0.0802 -0.0432
  657POPI   C3B10155  13.068  14.119   6.960  0.1660  0.0439 -0.1370
  657POPI   C4B10156  12.605  13.973   7.081  0.0362  0.2579 -0.3046
  658POPI    C110157   6.263   4.347   5.174 -0.1792  0.2284 -0.1358
  658POPI    C210158   6.365   3.992   5.020 -0.1423  0.1710  0.0197
  658POPI    C310159   6.635   4.286   5.040 -0.0613  0.0843  0.2431
  658POPI   PO410160   6.040   4.293   5.310  0.1479 -0.1617  0.1392
  658POPI   GL110161   5.804   4.207   5.665  0.0010  0.1699  0.1029
  658POPI   GL210162   5.723   3.849   5.788 -0.0091 -0.1631  0.0469
  658POPI   C1A10163   6.083   4.117   6.011 -0.0671  0.2599 -0.0576
  658POPI   D2A10164   6.187   3.765   6.187  0.0443 -0.1722 -0.3952
  658POPI   C3A10165   6.297   3.678   6.628 -0.0569 -0.0491 -0.4361
  658POPI   C4A10166   6.340   3.496   7.004 -0.3783  0.2154 -0.0485
  658POPI   C1B10167   5.688   3.849   6.239 -0.0430  0.0814  0.4034
  658POPI   C2B10168   5.790   3.794   6.598 -0.0714  0.4040  0.4227
  658POPI   C3B10169   5.622   3.768   7.012  0.3577  0.1508 -0.1484
  658POPI   C4B10170   5.229   3.765   7.270  0.0692 -0.1324 -0.1455
  659POPI    C110171   4.923  18.263   4.792  0.0613  0.2514 -0.0791
  659POPI    C210172   4.791  18.625   4.685 -0.2280  0.2295  0.1857
  659POPI    C310173   4.599  18.298   4.559  0.0921  0.1588 -0.1363
  659POPI   PO410174   4.971  18.407   5.094 -0.3274  0.4132 -0.2734
  659POPI   GL110175   5.314  18.308   5.365 -0.0641  0.0091 -0.3029
  659POPI   GL210176   5.199  18.595   5.562 -0.0120  0.0051 -0.0570
  659POPI   C1A10177   5.148  18.087   5.818  0.0375  0.1403 -0.0443
  659POPI   D2A10178   5.130  17.988   6.247  0.0738 -0.1868 -0.0951
  659POPI   C3A10179   4.817  18.239   6.430  0.1644  0.1121 -0.3079
  659POPI   C4A10180   4.788  18.653   6.559  0.1673 -0.1488 -0.0548
  659POPI   C1B10181   5.498  18.625   5.952  0.0155 -0.2490 -0.0602
  659POPI   C2B10182   5.653  19.002   6.178 -0.1889  0.0231 -0.2711
  659POPI   C3B10183   5.888  19.402   6.064 -0.0034  0.0046  0.1278
  659POPI   C4B10184   5.978  19.641   5.681 -0.1183 -0.0344 -0.3505
  660POPI    C110185  16.307  13.443   5.128 -0.2113  0.0771  0.2944
  660POPI    C210186  16.075  13.148   4.988 -0.0476  0.0853 -0.0013
  660POPI    C310187  16.422  13.232   4.808 -0.1121  0.4867  0.0536
  660POPI   PO410188  16.434  13.484   5.389  0.1585 -0.2245  0.1627
  660POPI   GL110189  16.548  13.808   5.734  0.0815  0.3059 -0.5707
  660POPI   GL210190  16.333  13.565   5.863  0.0720 -0.1253  0.5187
  660POPI   C1A10191  16.710  14.285   5.845  0.1128  0.0290  0.0930
  660POPI   D2A10192  17.042  14.586   6.104  0.0269 -0.1294  0.1333
  660POPI   C3A10193  17.102  14.678   6.588  0.2088  0.3602 -0.2906
  660POPI   C4A10194  17.290  14.592   6.995 -0.1448 -0.1203 -0.0066
  660POPI   C1B10195  16.136  13.417   6.144  0.1111 -0.2330  0.7173
  660POPI   C2B10196  15.845  13.237   6.268 -0.1946 -0.0286 -0.4228
  660POPI   C3B10197  15.521  12.940   6.365 -0.2059  0.1128 -0.1052
  660POPI   C4B10198  15.489  12.480   6.340 -0.1726 -0.1928 -0.1993
  661POPI    C110199  14.744   4.701   5.655  0.0200 -0.0293  0.0140
  661POPI    C210200  14.983   4.387   5.591  0.0290  0.0359 -0.2845
  661POPI    C310201  14.674   4.457   5.347 -0.1288  0.1125 -0.0663
  661POPI   PO410202  14.690   4.600   5.989 -0.1104  0.1903  0.1022
  661POPI   GL110203  14.542   4.526   6.293  0.2924  0.2372  0.0659
  661POPI   GL210204  14.247   4.407   6.300  0.1915 -0.2415 -0.0532
  661POPI   C1A10205  14.555   4.305   6.668 -0.0349 -0.1135 -0.0510
  661POPI   D2A10206  14.791   4.029   6.827  0.1959  0.2088  0.3020
  661POPI   C3A10207  15.145   4.110   6.913  0.2539 -0.0887 -0.4527
  661POPI   C4A10208  15.406   4.323   6.850 -0.2355  0.2699  0.1649
  661POPI   C1B10209  13.995   4.330   6.710 -0.3393 -0.0321  0.0698
  661POPI   C2B10210  13.952   4.228   7.101 -0.0993 -0.0573  0.0109
  661POPI   C3B10211  13.805   3.895   7.457 -0.1106  0.0682 -0.0783
  661POPI   C4B10212  13.919   3.508   7.707 -0.1027  0.1574  0.2947
  662POPI    C110213   1.622   7.154   4.997  0.0149 -0.2763  0.0100
  662POPI    C210214   1.319   7.109   4.740  0.1606  0.0862 -0.2327
  662POPI    C310215   1.683   6.972   4.646  0.0649 -0.4129  0.0888
  662POPI   PO410216   1.517   7.471   5.101 -0.0499  0.1349  0.2218
  662POPI   GL110217   1.529   7.421   5.531 -0.1216  0.0095  0.1172
  662POPI   GL210218   1.312   7.242   5.833  0.0282 -0.4835 -0.3583
  662POPI   C1A10219   1.741   7.507   5.858 -0.0831 -0.0943 -0.2692
  662POPI   D2A10220   1.643   7.920   6.090 -0.1499  0.0331  0.0405
  662POPI   C3A10221   1.244   7.977   6.440 -0.1447 -0.1179 -0.0074
  662POPI   C4A10222   1.005   8.146   6.801 -0.1429 -0.0574  0.2622
  662POPI   C1B10223   1.326   7.481   6.239 -0.2977 -0.2601  0.1981
  662POPI   C2B10224   1.401   7.351   6.600  0.0929  0.1886  0.2765
  662POPI   C3B10225   1.482   7.379   7.051  0.2339 -0.2124 -0.2779
  662POPI   C4B10226   1.129   7.441   7.365  0.1634  0.1646 -0.0511
  663POPI    C110227  15.184  14.597   5.363 -0.1480 -0.0904  0.1857
  663POPI    C210228  14.957  14.412   5.091 -0.0971  0.0703  0.0319
  663POPI    C310229  14.867  14.784   5.207  0.0981  0.1432 -0.0457
  663POPI   PO410230  15.474  14.474   5.341 -0.1395  0.2180  0.2074
  663POPI   GL110231  15.565  14.069   5.514  0.1950 -0.0564  0.1229
  663POPI   GL210232  15.331  13.828   5.464  0.0665  0.0305  0.0355
  663POPI   C1A10233  15.382  13.990   5.998 -0.1120  0.2107  0.0193
  663POPI   D2A10234  15.137  13.847   6.419  0.0500  0.0010  0.2621
  663POPI   C3A10235  15.201  13.967   6.804 -0.1402 -0.3932 -0.0464
  663POPI   C4A10236  15.248  14.060   7.246 -0.2190  0.1335  0.0260
  663POPI   C1B10237  15.221  13.530   5.758 -0.5437  0.4248 -0.2175
  663POPI   C2B10238  15.242  13.459   6.099  0.1026  0.2283 -0.2440
  663POPI   C3B10239  15.489  13.551   6.460 -0.4666 -0.1217 -0.2236
  663POPI   C4B10240  15.597  13.609   6.888  0.1204  0.2032  0.1484
  664POPI    C110241   9.904  16.096   5.255 -0.0187  0.0165  0.0934
  664POPI    C210242   9.811  15.953   4.894 -0.2585 -0.0653  0.1852
  664POPI    C310243   9.857  15.703   5.202 -0.0576  0.0046  0.2139
  664POPI   PO410244   9.775  16.278   5.319  0.0366  0.0057  0.0835
  664POPI   GL110245   9.431  16.290   5.758  0.3196 -0.0655  0.1232
  664POPI   GL210246   9.560  16.633   5.756 -0.0385  0.1101  0.0670
  664POPI   C1A10247   9.559  16.280   6.148 -0.1436 -0.1109  0.3206
  664POPI   D2A10248   9.757  16.364   6.515  0.0174  0.0698 -0.1507
  664POPI   C3A10249  10.022  16.185   6.747  0.0041 -0.2407 -0.0935
  664POPI   C4A10250  10.065  15.803   6.903  0.0651  0.2062 -0.1225
  664POPI   C1B10251   9.631  16.784   6.148  0.0314  0.1618 -0.4163
  664POPI   C2B10252   9.473  16.778   6.599 -0.2285 -0.2864 -0.3396
  664POPI   C3B10253   9.320  16.859   7.079 -0.1238 -0.1905  0.1839
  664POPI   C4B10254   9.369  16.907   7.498  0.0349 -0.2773  0.1869
  665POPI    C110255  15.318  16.518   5.114 -0.0470  0.0713 -0.0298
  665POPI    C210256  15.307  16.755   4.792 -0.2263 -0.0517 -0.1159
  665POPI    C310257  15.524  16.419   4.785 -0.1682 -0.0153 -0.0803
  665POPI   PO410258  15.370  16.675   5.270  0.3757  0.0626 -0.1086
  665POPI   GL110259  15.283  16.721   5.785  0.0703  0.0261  0.1181
  665POPI   GL210260  15.188  16.480   6.052 -0.1166  0.1809  0.0149
  665POPI   C1A10261  15.609  16.937   6.025  0.1428  0.1515  0.0573
  665POPI   D2A10262  15.543  17.099   6.343  0.1400 -0.1593 -0.2746
  665POPI   C3A10263  15.687  16.829   6.689 -0.1238 -0.1089 -0.1729
  665POPI   C4A10264  15.735  17.006   7.098  0.0340 -0.4073  0.2450
  665POPI   C1B10265  15.066  16.603   6.412 -0.1150 -0.2615  0.0794
  665POPI   C2B10266  14.991  16.638   6.905 -0.0297  0.1587  0.1137
  665POPI   C3B10267  14.906  16.521   7.165 -0.1844  0.3291  0.0716
  665POPI   C4B10268  14.737  16.532   7.491 -0.1943  0.1894  0.2274
  666POPI    C110269  13.292   2.115   5.703  0.2607 -0.2584  0.0682
  666POPI    C210270  13.162   1.915   6.024  0.2370 -0.3168  0.0224
  666POPI    C310271  13.319   1.716   5.714  0.2699 -0.2597  0.0024
  666POPI   PO410272  13.344   2.422   5.843 -0.3255 -0.1357 -0.2456
  666POPI   GL110273  13.394   2.463   6.324  0.1441  0.0707  0.1929
  666POPI   GL210274  13.122   2.602   6.282 -0.0043 -0.0747 -0.0488
  666POPI   C1A10275  13.220   2.156   6.556  0.0437  0.0859 -0.0779
  666POPI   D2A10276  12.990   1.710   6.609  0.0792  0.1034 -0.1106
  666POPI   C3A10277  12.611   1.526   6.791  0.1485 -0.1160  0.0637
  666POPI   C4A10278  12.216   1.685   7.006 -0.0022  0.3925  0.5449
  666POPI   C1B10279  12.889   2.598   6.575  0.0301  0.0391 -0.3147
  666POPI   C2B10280  12.631   2.726   6.874  0.0375 -0.0410 -0.1560
  666POPI   C3B10281  12.425   2.787   7.334  0.0497 -0.2669 -0.0073
  666POPI   C4B10282  12.436   2.705   7.779  0.1763 -0.1783  0.1701
  667POPI    C110283   6.883   7.621   5.281  0.2956 -0.1377 -0.0318
  667POPI    C210284   6.763   7.865   4.986  0.1565 -0.0348  0.1080
  667POPI    C310285   6.781   7.470   4.925  0.1133 -0.0153 -0.0334
  667POPI   PO410286   7.158   7.754   5.295 -0.0032 -0.1921 -0.1583
  667POPI   GL110287   7.433   7.818   5.687 -0.0849 -0.0105  0.1379
  667POPI   GL210288   7.794   7.929   5.556  0.1718  0.1187 -0.0453
  667POPI   C1A10289   7.657   7.693   6.092  0.2167 -0.1783 -0.3125
  667POPI   D2A10290   7.850   7.848   6.404  0.2812 -0.0294  0.0163
  667POPI   C3A10291   8.173   7.607   6.672  0.0911 -0.3666  0.0492
  667POPI   C4A10292   8.592   7.797   6.859  0.0286 -0.0761 -0.1572
  667POPI   C1B10293   8.012   7.905   5.763  0.2729 -0.6877 -0.1481
  667POPI   C2B10294   8.123   7.601   6.057 -0.3559 -0.0311 -0.0535
  667POPI   C3B10295   8.368   7.276   6.183  0.2922 -0.1016 -0.1633
  667POPI   C4B10296   8.320   7.009   6.567  0.4058 -0.1741  0.2508
  668POPI    C110297   8.094  17.014   5.044  0.0725 -0.0684 -0.1841
  668POPI    C210298   8.232  16.754   5.315  0.0706  0.0077 -0.1095
  668POPI    C310299   8.176  16.638   4.936 -0.0925 -0.1476 -0.0395
  668POPI   PO410300   8.328  17.170   5.077  0.2334 -0.1650 -0.2993
  668POPI   GL110301   8.413  17.326   5.444  0.3997 -0.2067 -0.1899
  668POPI   GL210302   8.596  17.540   5.474 -0.3534  0.1091  0.2230
  668POPI   C1A10303   8.370  17.142   5.849 -0.1519 -0.0541  0.3025
  668POPI   D2A10304   8.303  16.944   6.222  0.4246  0.0483 -0.0143
  668POPI   C3A10305   8.140  17.271   6.490 -0.1414  0.1165 -0.1162
  668POPI   C4A10306   8.018  17.508   6.855 -0.3249  0.0900 -0.4436
  668POPI   C1B10307   8.403  17.630   5.943 -0.1200 -0.1436 -0.1401
  668POPI   C2B10308   8.277  17.758   6.349 -0.0469 -0.4136  0.0824
  668POPI   C3B10309   8.596  18.083   6.531  0.0444  0.2755 -0.2412
  668POPI   C4B10310   8.587  18.423   6.784 -0.0289  0.0229 -0.0386
  669POPI    C110311  17.710  18.615   5.804  0.0318 -0.0251 -0.0589
  669POPI    C210312  17.357  18.711   5.967 -0.0323 -0.0661 -0.1719
  669POPI    C310313  17.438  18.330   5.874  0.0319 -0.0532 -0.1702
  669POPI   PO410314  17.870  18.695   5.941 -0.5381  0.0180 -0.0942
  669POPI   GL110315  17.965  18.650   6.342 -0.2976  0.1502 -0.1235
  669POPI   GL210316  17.884  18.396   6.426 -0.2765  0.0451 -0.0280
  669POPI   C1A10317  17.878  18.811   6.782  0.0593 -0.0326  0.1132
  669POPI   D2A10318  17.666  18.782   7.223  0.3613  0.1973  0.3214
  669POPI   C3A10319  17.412  18.565   7.515  0.2639 -0.0594 -0.0857
  669POPI   C4A10320  17.070  18.209   7.617  0.0832  0.0245  0.3559
  669POPI   C1B10321  17.763  18.296   6.774 -0.0202  0.2747 -0.0896
  669POPI   C2B10322  17.860  18.244   7.322  0.1297 -0.0852 -0.2190
  669POPI   C3B10323  17.923  17.860   7.673 -0.1947 -0.1761  0.2299
  669POPI   C4B10324  17.854  17.605   8.026  0.2695 -0.1062  0.3377
  670POPI    C110325  18.672   5.524   5.433 -0.0306  0.0328  0.0742
  670POPI    C210326  19.007   5.342   5.313  0.0895  0.3451 -0.0749
  670POPI    C310327  18.757   5.497   5.043 -0.2535 -0.0152  0.0275
  670POPI   PO410328  18.636   5.656   5.605 -0.1407  0.2219  0.0994
  670POPI   GL110329  18.435   5.600   5.951  0.1081 -0.0701  0.0387
  670POPI   GL210330  18.659   5.302   5.974 -0.1783  0.0683 -0.1527
  670POPI   C1A10331  18.388   5.827   6.398  0.1300 -0.1668 -0.1579
  670POPI   D2A10332  18.242   5.732   6.813 -0.1243 -0.1700 -0.1691
  670POPI   C3A10333  18.124   6.024   7.025 -0.0097 -0.0287  0.2302
  670POPI   C4A10334  17.803   6.122   7.287 -0.1822  0.1654 -0.0760
  670POPI   C1B10335  18.757   5.094   6.354  0.0926 -0.0612 -0.2327
  670POPI   C2B10336  18.777   4.801   6.726  0.0186  0.1006  0.0911
  670POPI   C3B10337  18.805   4.374   6.898  0.1715  0.1309  0.1220
  670POPI   C4B10338  18.775   3.955   6.672 -0.3040 -0.0207  0.1881
  671POPI    C110339  15.098  15.789   5.294 -0.0278 -0.0378  0.0092
  671POPI    C210340  14.913  16.112   5.148  0.0710 -0.0235 -0.0861
  671POPI    C310341  15.197  16.153   5.428 -0.1102 -0.0501  0.1044
  671POPI   PO410342  14.791  15.604   5.420 -0.1654 -0.0327 -0.0042
  671POPI   GL110343  14.711  15.415   5.775  0.4057 -0.1312  0.3312
  671POPI   GL210344  15.026  15.392   5.928  0.1906  0.0270 -0.0711
  671POPI   C1A10345  14.705  15.129   6.156 -0.0937  0.2941  0.0364
  671POPI   D2A10346  14.510  14.836   6.452  0.1085 -0.0988  0.3142
  671POPI   C3A10347  14.458  14.473   6.459 -0.2456 -0.2381 -0.2734
  671POPI   C4A10348  14.190  14.310   6.567  0.2402  0.2696 -0.1913
  671POPI   C1B10349  15.076  15.478   6.418  0.3849  0.0369 -0.0909
  671POPI   C2B10350  14.956  15.706   6.856  0.3535  0.3999 -0.1343
  671POPI   C3B10351  14.565  15.863   7.043  0.3759  0.2832  0.1401
  671POPI   C4B10352  14.466  16.281   7.116 -0.1442  0.2377  0.0185
  672POPI    C110353  10.102   3.958   5.546 -0.0901 -0.1243 -0.0125
  672POPI    C210354  10.200   4.345   5.574 -0.0757 -0.1141 -0.1929
  672POPI    C310355   9.846   4.239   5.421 -0.1858 -0.1647  0.0898
  672POPI   PO410356  10.217   3.893   5.849 -0.3476 -0.1631  0.1975
  672POPI   GL110357   9.975   3.894   6.188  0.0111  0.0076  0.0062
  672POPI   GL210358  10.157   4.195   6.273  0.2520  0.0196 -0.3567
  672POPI   C1A10359   9.770   4.085   6.523 -0.0422 -0.2411 -0.1776
  672POPI   D2A10360   9.672   3.933   6.942 -0.1502 -0.1249  0.5185
  672POPI   C3A10361   9.461   4.023   7.266  0.1245 -0.2097 -0.1342
  672POPI   C4A10362   9.519   4.246   7.619  0.2370  0.3663  0.3684
  672POPI   C1B10363  10.150   4.273   6.726  0.0096  0.1798  0.0924
  672POPI   C2B10364  10.349   4.120   7.060  0.3266 -0.1659  0.0148
  672POPI   C3B10365  10.455   3.742   7.157 -0.0805 -0.1490 -0.1230
  672POPI   C4B10366  10.594   3.436   6.872  0.0866 -0.1381 -0.3091
  673POPI    C110367  17.963   8.129   5.215 -0.0757 -0.1687 -0.3481
  673POPI    C210368  17.987   7.737   5.291  0.0054 -0.0973  0.0124
  673POPI    C310369  17.629   7.913   5.265 -0.0268 -0.1437  0.1347
  673POPI   PO410370  18.151   8.277   5.448  0.2284 -0.1102  0.1147
  673POPI   GL110371  18.087   8.410   5.917 -0.0071 -0.1784 -0.1838
  673POPI   GL210372  17.740   8.301   5.974  0.0369 -0.3367  0.0381
  673POPI   C1A10373  18.198   8.778   6.132 -0.0678  0.0956  0.1510
  673POPI   D2A10374  18.349   8.872   6.562 -0.1050  0.2415 -0.0451
  673POPI   C3A10375  18.439   9.134   6.927 -0.4603 -0.1216 -0.1042
  673POPI   C4A10376  18.841   9.290   6.878  0.1324 -0.2440 -0.1317
  673POPI   C1B10377  17.698   7.949   6.203 -0.0010 -0.1765  0.2449
  673POPI   C2B10378  17.710   7.662   6.512  0.1909  0.1260 -0.1162
  673POPI   C3B10379  17.505   7.738   6.973  0.2199  0.1262 -0.0171
  673POPI   C4B10380  17.284   7.634   7.372 -0.0315 -0.1625  0.1019
  674POPI    C110381  14.772   1.244   5.793  0.0026  0.0416 -0.1823
  674POPI    C210382  14.998   1.561   5.697  0.0312 -0.0093 -0.2858
  674POPI    C310383  14.881   1.305   5.413 -0.0210 -0.0729 -0.2079
  674POPI   PO410384  14.895   1.089   5.888 -0.1294  0.0630  0.1153
  674POPI   GL110385  15.140   1.165   6.193  0.0274 -0.1066  0.4220
  674POPI   GL210386  15.026   1.467   6.209  0.0424  0.0586 -0.2654
  674POPI   C1A10387  14.978   0.949   6.563  0.2065 -0.4086 -0.1050
  674POPI   D2A10388  14.893   0.977   7.026 -0.0024 -0.1388 -0.2948
  674POPI   C3A10389  14.528   0.995   7.300  0.0793  0.0646 -0.2956
  674POPI   C4A10390  14.431   0.831   7.729 -0.1897  0.0862 -0.1125
  674POPI   C1B10391  15.156   1.427   6.726 -0.3017 -0.1085 -0.1804
  674POPI   C2B10392  15.231   1.447   7.144  0.3068  0.1555  0.1893
  674POPI   C3B10393  15.049   1.137   7.495 -0.0186  0.1438  0.0421
  674POPI   C4B10394  14.708   1.247   7.772  0.1583 -0.0920 -0.1490
  675POPI    C110395   6.360   2.129   4.927 -0.0029 -0.0281  0.2392
  675POPI    C210396   6.716   1.990   4.807 -0.2052 -0.4699  0.1288
  675POPI    C310397   6.481   2.187   4.550 -0.0086 -0.0981  0.2264
  675POPI   PO410398   6.303   2.030   5.183  0.1202  0.0984 -0.2923
  675POPI   GL110399   6.376   2.077   5.592  0.1566 -0.1517 -0.3359
  675POPI   GL210400   6.490   1.826   5.644  0.0921  0.0400 -0.0774
  675POPI   C1A10401   6.458   2.220   6.045  0.3133  0.2576  0.1620
  675POPI   D2A10402   6.687   2.488   6.335 -0.1559  0.0710  0.0941
  675POPI   C3A10403   6.552   2.434   6.742  0.1920 -0.1406  0.0999
  675POPI   C4A10404   6.616   2.019   6.970 -0.0108  0.0558  0.2259
  675POPI   C1B10405   6.667   1.717   5.991  0.0251 -0.0833 -0.0670
  675POPI   C2B10406   6.618   1.419   6.266  0.0159 -0.1705  0.3117
  675POPI   C3B10407   6.281   1.130   6.458 -0.1361  0.0047 -0.4286
  675POPI   C4B10408   6.201   1.083   6.899 -0.1601  0.1951  0.2805
  676POPI    C110409   5.099  14.191   5.620 -0.2058  0.2001  0.0247
  676POPI    C210410   5.317  14.483   5.786  0.1187 -0.1619  0.2506
  676POPI    C310411   5.393  14.363   5.412 -0.0826  0.1067  0.1204
  676POPI   PO410412   4.959  14.034   5.853  0.0586  0.0199 -0.0038
  676POPI   GL110413   5.054  13.789   6.258  0.6502 -0.0060  0.1707
  676POPI   GL210414   5.128  13.586   6.359  0.0796  0.2764  0.1680
  676POPI   C1A10415   4.875  14.086   6.482  0.0946 -0.1315 -0.1166
  676POPI   D2A10416   4.987  13.975   6.917  0.1791 -0.0230  0.3247
  676POPI   C3A10417   5.178  13.912   7.368  0.1015 -0.0095 -0.0927
  676POPI   C4A10418   5.342  13.617   7.740  0.2346 -0.0339  0.1698
  676POPI   C1B10419   5.357  13.944   6.611 -0.0417 -0.1998 -0.1918
  676POPI   C2B10420   5.515  13.970   6.955  0.1548 -0.2426 -0.3114
  676POPI   C3B10421   5.682  13.768   7.369 -0.1963 -0.0374 -0.1161
  676POPI   C4B10422   5.966  13.938   7.712  0.0320 -0.0384 -0.2833
  677POPI    C110423   3.086   4.979   5.384 -0.1025  0.0548  0.2008
  677POPI    C210424   3.446   5.038   5.221 -0.1742 -0.2027 -0.0586
  677POPI    C310425   3.410   4.819   5.554 -0.0734 -0.0262  0.0702
  677POPI   PO410426   2.987   5.181   5.520  0.2119  0.3017  0.1818
  677POPI   GL110427   2.892   5.120   5.880  0.1499  0.1454  0.1273
  677POPI   GL210428   2.990   5.484   5.984  0.1229  0.3112 -0.2631
  677POPI   C1A10429   2.762   5.244   6.312  0.1712 -0.1020  0.0534
  677POPI   D2A10430   2.447   5.450   6.692 -0.0514  0.0709  0.0505
  677POPI   C3A10431   2.297   5.081   6.954 -0.3422  0.2059 -0.1485
  677POPI   C4A10432   1.998   4.803   7.198  0.0703 -0.0845 -0.3162
  677POPI   C1B10433   3.272   5.535   6.325 -0.4923  0.0986  0.0211
  677POPI   C2B10434   3.491   5.728   6.569 -0.0611  0.0201  0.1521
  677POPI   C3B10435   3.781   5.781   6.876  0.1090  0.0013 -0.0177
  677POPI   C4B10436   4.123   5.739   7.306  0.2556 -0.0073  0.1671
  678POPI    C110437   8.969  13.411   5.191 -0.1222 -0.1074  0.1799
  678POPI    C210438   8.842  13.063   5.041 -0.0943 -0.0885  0.1120
  678POPI    C310439   8.628  13.250   5.322 -0.0791 -0.1898  0.1911
  678POPI   PO410440   9.206  13.364   5.304 -0.2233  0.1695 -0.1017
  678POPI   GL110441   9.482  13.182   5.624 -0.1400  0.0134 -0.0359
  678POPI   GL210442   9.577  13.587   5.742 -0.0272 -0.1856  0.1256
  678POPI   C1A10443   9.604  13.167   6.068 -0.0165 -0.0759  0.0075
  678POPI   D2A10444   9.684  13.241   6.581  0.0681  0.2228 -0.0223
  678POPI   C3A10445   9.527  12.830   6.805  0.0388  0.3331 -0.1351
  678POPI   C4A10446   9.407  12.671   7.200 -0.5556  0.0116  0.0839
  678POPI   C1B10447  10.000  13.438   5.725 -0.0281 -0.2675 -0.3895
  678POPI   C2B10448  10.048  13.412   6.102 -0.2028 -0.1777  0.0790
  678POPI   C3B10449  10.164  13.322   6.457  0.0003 -0.2042  0.1567
  678POPI   C4B10450  10.154  13.336   6.907  0.6319  0.1666 -0.3644
  679POPI    C110451   3.547   1.199   4.932  0.2904  0.3062  0.1143
  679POPI    C210452   3.315   1.139   4.612  0.1971 -0.0297  0.2406
  679POPI    C310453   3.395   1.512   4.735 -0.0217  0.0950  0.0133
  679POPI   PO410454   3.512   1.005   5.100 -0.0808 -0.3090  0.2298
  679POPI   GL110455   3.927   0.716   5.252 -0.1466 -0.2923  0.3548
  679POPI   GL210456   3.689   0.714   5.470  0.1740  0.0364 -0.1634
  679POPI   C1A10457   4.077   0.551   5.792  0.0094 -0.2823  0.0986
  679POPI   D2A10458   4.421   0.892   6.017  0.5055  0.1584 -0.2474
  679POPI   C3A10459   4.432   1.088   6.534 -0.0176 -0.0996 -0.2636
  679POPI   C4A10460   4.592   1.510   6.650  0.2845  0.2612  0.3772
  679POPI   C1B10461   3.524   0.872   5.840  0.1571  0.0926  0.0315
  679POPI   C2B10462   3.315   1.033   6.171 -0.2239  0.0001  0.1351
  679POPI   C3B10463   3.030   1.317   6.329  0.0103 -0.4395  0.0871
  679POPI   C4B10464   2.845   1.541   6.777  0.2319  0.1934 -0.0172
  680POPI    C110465  15.389   1.847   5.801 -0.0306  0.0470  0.3496
  680POPI    C210466  15.536   2.218   5.779  0.0319  0.0087  0.0875
  680POPI    C310467  15.215   2.117   5.563  0.1453 -0.1482 -0.0109
  680POPI   PO410468  15.542   1.699   5.793 -0.0951  0.0979 -0.3737
  680POPI   GL110469  15.848   1.670   6.136 -0.2395 -0.1173 -0.0855
  680POPI   GL210470  15.559   1.462   6.344 -0.1502 -0.1341 -0.2264
  680POPI   C1A10471  15.922   1.912   6.473 -0.1000  0.1665 -0.1174
  680POPI   D2A10472  15.896   1.938   6.886 -0.1536 -0.0776  0.0326
  680POPI   C3A10473  16.014   1.966   7.252 -0.1885  0.0563 -0.0009
  680POPI   C4A10474  15.868   1.767   7.685  0.1831 -0.0323  0.3220
  680POPI   C1B10475  15.624   1.455   6.823 -0.1475  0.3058 -0.3519
  680POPI   C2B10476  15.726   1.496   7.261  0.1633  0.0580 -0.2054
  680POPI   C3B10477  15.455   1.452   7.688  0.0766  0.1885  0.2340
  680POPI   C4B10478  15.433   1.697   8.094 -0.2980  0.0568 -0.1520
  681POPI    C110479  13.140   3.376   5.589 -0.0546  0.4282  0.4296
  681POPI    C210480  13.472   3.532   5.429 -0.0147  0.0506  0.1297
  681POPI    C310481  13.125   3.552   5.231 -0.0537 -0.0488  0.1869
  681POPI   PO410482  13.209   3.460   5.893 -0.2454  0.1501  0.1155
  681POPI   GL110483  13.110   3.141   6.309  0.2226  0.0346  0.0665
  681POPI   GL210484  13.458   2.964   6.269  0.0793 -0.2506 -0.3181
  681POPI   C1A10485  12.967   3.290   6.743 -0.3418 -0.0190 -0.2592
  681POPI   D2A10486  12.809   3.163   7.229  0.1816  0.1102 -0.1813
  681POPI   C3A10487  13.134   3.337   7.513  0.1721 -0.0009  0.2328
  681POPI   C4A10488  13.285   3.431   7.916  0.5124 -0.2258 -0.2383
  681POPI   C1B10489  13.327   2.903   6.650 -0.0358 -0.1157 -0.0184
  681POPI   C2B10490  13.279   2.920   7.129 -0.0804  0.0531  0.0550
  681POPI   C3B10491  13.294   2.865   7.566 -0.0533 -0.0841  0.0831
  681POPI   C4B10492  13.300   2.933   7.993  0.0508  0.0133  0.1110
  682POPI    C110493   4.882  15.572   5.370 -0.1349 -0.0386 -0.3147
  682POPI    C210494   4.598  15.386   5.581  0.0823  0.0431  0.0586
  682POPI    C310495   4.644  15.304   5.192 -0.3884 -0.0374  0.0139
  682POPI   PO410496   5.106  15.532   5.578  0.0325  0.0988 -0.1429
  682POPI   GL110497   4.925  15.347   5.960 -0.0886  0.0262 -0.0310
  682POPI   GL210498   4.860  15.028   6.005  0.0732  0.5161  0.0569
  682POPI   C1A10499   5.338  15.386   6.261  0.0058 -0.1689  0.0115
  682POPI   D2A10500   5.821  15.312   6.391 -0.1080  0.1189  0.0865
  682POPI   C3A10501   5.919  15.254   6.730 -0.1458 -0.2623  0.1566
  682POPI   C4A10502   5.959  15.401   7.197  0.1887  0.0602 -0.0368
  682POPI   C1B10503   5.066  14.920   6.417  0.0681  0.0021 -0.3493
  682POPI   C2B10504   5.462  14.980   6.781  0.3508 -0.2100 -0.2995
  682POPI   C3B10505   5.735  14.910   7.110 -0.2571 -0.0115  0.0793
  682POPI   C4B10506   5.938  14.933   7.443 -0.2254  0.0653 -0.0252
  683POPI    C110507   8.287   0.756   4.658  0.1215 -0.0523 -0.0033
  683POPI    C210508   8.154   0.950   4.335 -0.2189  0.1590  0.2560
  683POPI    C310509   8.532   1.000   4.457 -0.1035  0.1190 -0.0738
  683POPI   PO410510   8.076   0.793   4.894 -0.0694 -0.1717 -0.0703
  683POPI   GL110511   8.154   0.800   5.348 -0.0049 -0.1034 -0.0974
  683POPI   GL210512   8.242   1.112   5.501  0.3765  0.0706  0.1068
  683POPI   C1A10513   7.709   0.889   5.535 -0.1196  0.2455  0.2007
  683POPI   D2A10514   7.405   1.095   5.793  0.0637 -0.0028  0.1111
  683POPI   C3A10515   7.072   1.393   5.861 -0.3768  0.0888 -0.0559
  683POPI   C4A10516   6.658   1.314   5.695  0.4514  0.0378  0.1646
  683POPI   C1B10517   8.317   1.485   5.811 -0.0128 -0.0158 -0.1277
  683POPI   C2B10518   8.538   1.382   6.240  0.3190 -0.0685  0.1281
  683POPI   C3B10519   8.588   1.324   6.694  0.1073  0.0008 -0.0023
  683POPI   C4B10520   8.567   1.201   6.993 -0.0967  0.0669 -0.1674
  684POPI    C110521  13.257   0.638   5.764 -0.0621  0.1358 -0.1319
  684POPI    C210522  13.089   0.990   5.673  0.2080  0.2050 -0.3766
  684POPI    C310523  13.422   0.873   5.485  0.2412 -0.0861 -0.1432
  684POPI   PO410524  12.987   0.490   5.752  0.0757 -0.3653  0.0600
  684POPI   GL110525  12.767   0.738   6.054 -0.0143  0.2821  0.0828
  684POPI   GL210526  13.062   0.922   6.178  0.1169  0.0549 -0.2068
  684POPI   C1A10527  12.430   0.702   6.300  0.1462  0.0701 -0.0928
  684POPI   D2A10528  12.096   0.654   6.656 -0.1060 -0.2900 -0.0348
  684POPI   C3A10529  12.152   0.749   7.016  0.2422 -0.0027  0.2749
  684POPI   C4A10530  11.917   1.048   7.266  0.4161 -0.0934  0.2752
  684POPI   C1B10531  13.018   1.129   6.645  0.2045  0.1347  0.0906
  684POPI   C2B10532  13.108   1.442   7.015 -0.1192  0.0192 -0.0655
  684POPI   C3B10533  13.194   1.860   7.078 -0.1295  0.0704 -0.2204
  684POPI   C4B10534  13.531   2.084   7.431  0.3889 -0.2990 -0.3945
  685POPI    C110535  17.955   1.185   5.492 -0.2057  0.0513 -0.0470
  685POPI    C210536  17.689   1.475   5.423 -0.2407  0.0382  0.0312
  685POPI    C310537  17.778   1.213   5.135 -0.2532  0.0904 -0.0206
  685POPI   PO410538  17.947   1.069   5.651 -0.1606 -0.1785  0.1786
  685POPI   GL110539  18.082   1.240   6.039  0.0282 -0.1188 -0.2613
  685POPI   GL210540  18.355   1.159   6.180 -0.2890  0.2769  0.2226
  685POPI   C1A10541  18.043   1.256   6.528 -0.0222 -0.2178  0.1614
  685POPI   D2A10542  18.043   1.548   6.861 -0.0724 -0.0928 -0.1005
  685POPI   C3A10543  18.058   1.489   7.294  0.0098 -0.2461  0.1773
  685POPI   C4A10544  18.390   1.449   7.635 -0.2161  0.1033 -0.0842
  685POPI   C1B10545  18.523   1.142   6.552  0.0292  0.2939  0.0838
  685POPI   C2B10546  18.415   1.214   7.015 -0.3349  0.0959 -0.1392
  685POPI   C3B10547  18.149   1.022   7.432  0.5078  0.3235  0.0632
  685POPI   C4B10548  17.942   0.892   7.813  0.1504  0.2999  0.0488
  686POPI    C110549   8.851   1.569   4.976  0.0396 -0.1110  0.0072
  686POPI    C210550   9.157   1.642   5.224  0.1445 -0.0802 -0.1296
  686POPI    C310551   9.060   1.909   4.942  0.0154 -0.1074 -0.1119
  686POPI   PO410552   8.684   1.564   5.142 -0.4894  0.0344 -0.0563
  686POPI   GL110553   8.756   1.368   5.573 -0.0572  0.2560 -0.0303
  686POPI   GL210554   8.712   1.694   5.710 -0.0837  0.0061 -0.3216
  686POPI   C1A10555   8.979   1.219   5.868  0.2782 -0.1254 -0.2653
  686POPI   D2A10556   9.026   1.014   6.191 -0.0050 -0.0339 -0.0127
  686POPI   C3A10557   8.832   0.975   6.526 -0.2807 -0.1900 -0.2546
  686POPI   C4A10558   8.662   0.556   6.673 -0.0901  0.1013 -0.0099
  686POPI   C1B10559   8.945   1.659   6.026 -0.1069  0.0561 -0.1727
  686POPI   C2B10560   8.945   1.605   6.510  0.0519  0.1575  0.2552
  686POPI   C3B10561   9.156   1.830   6.810 -0.0513 -0.3534 -0.1100
  686POPI   C4B10562   9.347   1.936   7.111 -0.1022 -0.0293  0.1345
  687POPI    C110563  12.017  12.026   4.841  0.1792 -0.4113  0.0766
  687POPI    C210564  11.680  11.953   4.638  0.0706  0.2715 -0.0124
  687POPI    C310565  12.029  11.810   4.504 -0.1230 -0.0808 -0.1540
  687POPI   PO410566  11.888  11.932   5.232 -0.0777  0.1853  0.0615
  687POPI   GL110567  11.848  12.279   5.527 -0.0122  0.0567 -0.2324
  687POPI   GL210568  11.925  12.583   5.571 -0.1500  0.2425  0.2921
  687POPI   C1A10569  11.623  12.370   5.905  0.3590 -0.1374  0.2336
  687POPI   D2A10570  11.266  12.334   6.259  0.1097 -0.0312  0.2072
  687POPI   C3A10571  11.107  12.482   6.603  0.2385 -0.0843 -0.2999
  687POPI   C4A10572  10.858  12.403   7.048 -0.2892 -0.3125 -0.1211
  687POPI   C1B10573  12.023  12.744   5.936 -0.0409  0.4637  0.0190
  687POPI   C2B10574  12.065  12.737   6.345  0.0118  0.0045 -0.0713
  687POPI   C3B10575  12.040  12.670   6.798 -0.0728 -0.3294  0.1033
  687POPI   C4B10576  12.244  12.313   7.065  0.0850  0.2810 -0.2894
  688POPI    C110577  17.176   1.956   5.224 -0.0758 -0.1411  0.1488
  688POPI    C210578  16.817   2.095   5.335 -0.0984  0.0099 -0.1046
  688POPI    C310579  16.843   1.803   5.063 -0.0347 -0.1660  0.0872
  688POPI   PO410580  17.261   1.810   5.421  0.0006 -0.0908 -0.1644
  688POPI   GL110581  17.159   2.020   5.810 -0.0428  0.2964  0.1657
  688POPI   GL210582  17.246   2.353   5.901 -0.5277  0.2885  0.0176
  688POPI   C1A10583  17.120   2.122   6.296 -0.0585 -0.0666 -0.4963
  688POPI   D2A10584  17.135   2.470   6.655  0.0305  0.2221 -0.1072
  688POPI   C3A10585  16.753   2.457   7.032  0.2337  0.2598  0.0591
  688POPI   C4A10586  16.658   2.778   7.279  0.1277 -0.2587 -0.0239
  688POPI   C1B10587  17.049   2.680   6.093 -0.2226 -0.1261 -0.1162
  688POPI   C2B10588  17.127   3.003   6.184  0.1183  0.0176 -0.1010
  688POPI   C3B10589  17.236   3.116   6.526  0.1307  0.0267  0.0692
  688POPI   C4B10590  17.052   3.321   6.830  0.1243  0.2116  0.0434
  689POPI    C110591   1.321  10.317   5.203  0.0114 -0.0003  0.0498
  689POPI    C210592   1.673  10.495   5.133 -0.0853  0.1764  0.0089
  689POPI    C310593   1.550  10.195   4.898 -0.0357  0.2227 -0.0766
  689POPI   PO410594   1.350  10.309   5.494 -0.1381 -0.2290  0.3041
  689POPI   GL110595   0.966  10.108   5.725 -0.0392 -0.1375 -0.1428
  689POPI   GL210596   0.691   9.989   5.983 -0.0958  0.2715 -0.0663
  689POPI   C1A10597   1.183  10.088   6.166  0.0829  0.0797  0.0073
  689POPI   D2A10598   1.069  10.039   6.695 -0.2226 -0.1643  0.0028
  689POPI   C3A10599   0.876  10.106   7.015 -0.0189 -0.0141  0.0398
  689POPI   C4A10600   0.676   9.947   7.335 -0.1261 -0.1213  0.1255
  689POPI   C1B10601   0.842  10.374   6.374 -0.1193  0.1770 -0.2027
  689POPI   C2B10602   0.626  10.511   6.661  0.0744 -0.1279  0.0290
  689POPI   C3B10603   0.395  10.330   7.017 -0.3212 -0.0067  0.0123
  689POPI   C4B10604  -0.004  10.280   7.295  0.3661 -0.0127  0.1713
  690POPI    C110605   1.897   3.187   5.208 -0.2620 -0.2409  0.0417
  690POPI    C210606   2.039   2.996   4.887  0.0640  0.0123  0.0304
  690POPI    C310607   1.709   3.220   4.857 -0.0893 -0.2205 -0.0498
  690POPI   PO410608   1.898   3.054   5.505  0.1082 -0.2638 -0.0344
  690POPI   GL110609   1.839   2.849   5.877  0.0463  0.0895 -0.2428
  690POPI   GL210610   1.828   3.101   6.059  0.1901 -0.1667  0.1301
  690POPI   C1A10611   1.590   2.687   6.063  0.1602 -0.1470  0.1359
  690POPI   D2A10612   1.497   2.900   6.389  0.0684 -0.0803  0.1013
  690POPI   C3A10613   1.853   3.223   6.586 -0.2241  0.5093 -0.0046
  690POPI   C4A10614   2.222   3.484   6.724  0.1023  0.0446 -0.0700
  690POPI   C1B10615   2.140   2.850   6.422 -0.3770  0.2335  0.1219
  690POPI   C2B10616   2.240   3.014   6.813  0.0771 -0.1939 -0.0677
  690POPI   C3B10617   2.018   3.109   7.100 -0.1496 -0.3156 -0.3009
  690POPI   C4B10618   1.606   3.087   7.094 -0.0200  0.1613 -0.2265
  691POPI    C110619  11.578   1.565   5.190  0.2055  0.1406 -0.2623
  691POPI    C210620  11.753   1.217   5.101  0.3357  0.1876 -0.1920
  691POPI    C310621  11.407   1.316   4.927  0.2129 -0.0510 -0.0878
  691POPI   PO410622  11.588   1.584   5.553 -0.0474 -0.2978  0.0527
  691POPI   GL110623  11.855   1.761   6.028  0.1307 -0.1674 -0.1574
  691POPI   GL210624  11.722   1.394   6.021 -0.0293 -0.2848 -0.0279
  691POPI   C1A10625  11.753   1.968   6.259 -0.3061  0.1884 -0.0189
  691POPI   D2A10626  11.789   1.979   6.763 -0.3951 -0.0091 -0.4621
  691POPI   C3A10627  11.689   1.561   7.029  0.1973 -0.0497 -0.0664
  691POPI   C4A10628  11.356   1.196   6.937 -0.0266  0.0514 -0.2116
  691POPI   C1B10629  11.845   1.112   6.259  0.1005 -0.3104  0.0141
  691POPI   C2B10630  11.959   1.136   6.710  0.0277  0.1141 -0.2802
  691POPI   C3B10631  12.340   1.202   7.054  0.1630 -0.2947 -0.1372
  691POPI   C4B10632  12.240   1.364   7.544 -0.1638 -0.3663  0.0171
  692POPI    C110633   0.166   4.444   5.429  0.0318 -0.0996  0.1491
  692POPI    C210634  -0.128   4.231   5.259  0.1046 -0.2443  0.2023
  692POPI    C310635  -0.149   4.327   5.647  0.0303 -0.0786  0.1585
  692POPI   PO410636   0.340   4.395   5.422  0.1869 -0.0604  0.0490
  692POPI   GL110637   0.372   4.046   5.802 -0.0995 -0.1931  0.2186
  692POPI   GL210638   0.311   4.357   5.931 -0.1424 -0.4418 -0.2708
  692POPI   C1A10639   0.644   3.739   6.032  0.0734  0.0288  0.1207
  692POPI   D2A10640   0.484   3.591   6.473 -0.2383  0.2787 -0.0247
  692POPI   C3A10641   0.818   3.575   6.777  0.1388  0.2687 -0.2960
  692POPI   C4A10642   1.042   3.299   7.038  0.3901  0.1669 -0.3533
  692POPI   C1B10643  -0.044   4.282   6.165 -0.0579 -0.2633  0.0776
  692POPI   C2B10644  -0.353   4.450   6.351  0.1814  0.3154 -0.2912
  692POPI   C3B10645  -0.785   4.274   6.501 -0.1364 -0.0833  0.1541
  692POPI   C4B10646  -1.030   4.166   6.227  0.3069  0.0122 -0.3232
  693POPI    C110647   3.463   9.182   5.120 -0.1958  0.1000 -0.0678
  693POPI    C210648   3.373   8.819   4.980 -0.0345  0.0765 -0.1122
  693POPI    C310649   3.227   9.144   4.799 -0.0957  0.0368 -0.1346
  693POPI   PO410650   3.398   9.257   5.372  0.0837 -0.1157  0.2619
  693POPI   GL110651   3.430   9.343   5.849  0.1433 -0.3815 -0.4594
  693POPI   GL210652   3.661   9.328   5.978 -0.2515 -0.1866  0.1930
  693POPI   C1A10653   3.133   9.339   6.180  0.0342  0.0866 -0.3442
  693POPI   D2A10654   3.118   9.278   6.591  0.3740  0.1067 -0.1824
  693POPI   C3A10655   3.080   9.597   6.852  0.2323  0.1509 -0.0763
  693POPI   C4A10656   3.068   9.912   7.066  0.2586 -0.1106 -0.2289
  693POPI   C1B10657   3.595   9.086   6.407  0.0447 -0.0025 -0.2714
  693POPI   C2B10658   3.823   8.858   6.768  0.1378 -0.4284  0.1856
  693POPI   C3B10659   3.689   8.712   7.201  0.2274  0.0458  0.2338
  693POPI   C4B10660   3.742   8.372   7.395  0.0095  0.1144 -0.1923
  694POPI    C110661  12.905  15.312   4.645  0.0959 -0.0065  0.0138
  694POPI    C210662  12.538  15.173   4.719  0.1712 -0.2068  0.0178
  694POPI    C310663  12.621  15.339   4.365  0.0013  0.1038  0.1197
  694POPI   PO410664  13.057  15.161   4.956 -0.0606 -0.1475 -0.0016
  694POPI   GL110665  13.280  15.312   5.237  0.2019  0.0854  0.0189
  694POPI   GL210666  13.224  15.067   5.391  0.3015 -0.1150 -0.2170
  694POPI   C1A10667  13.377  15.475   5.629 -0.2685 -0.0825  0.2548
  694POPI   D2A10668  13.116  15.518   6.045  0.0562  0.2825 -0.1373
  694POPI   C3A10669  13.302  15.876   6.373  0.0996  0.1006 -0.0798
  694POPI   C4A10670  13.644  15.975   6.583 -0.0568 -0.2407 -0.0366
  694POPI   C1B10671  12.877  15.005   5.642  0.2795  0.1006 -0.2128
  694POPI   C2B10672  12.675  15.285   5.998 -0.2716  0.0691  0.2462
  694POPI   C3B10673  12.625  15.705   6.143 -0.2299  0.4769 -0.2817
  694POPI   C4B10674  12.927  16.071   6.096 -0.1245  0.0128 -0.4017
  695POPI    C110675  12.717   2.892   5.284 -0.0657 -0.0004 -0.1538
  695POPI    C210676  12.702   3.286   5.348 -0.0646  0.0392 -0.3892
  695POPI    C310677  12.471   3.121   5.067  0.2734 -0.0598 -0.6149
  695POPI   PO410678  12.671   2.755   5.606  0.2042 -0.1822  0.1002
  695POPI   GL110679  12.666   2.762   6.080  0.0915 -0.0971  0.0049
  695POPI   GL210680  12.369   2.818   6.032  0.1384  0.2334  0.1650
  695POPI   C1A10681  12.604   3.074   6.402 -0.4600 -0.5378 -0.3884
  695POPI   D2A10682  12.489   3.225   6.835  0.3772 -0.0697 -0.0569
  695POPI   C3A10683  12.225   3.514   6.925 -0.0546  0.1294  0.1341
  695POPI   C4A10684  11.830   3.786   7.067  0.1614 -0.0025 -0.0411
  695POPI   C1B10685  12.333   2.647   6.433 -0.4412 -0.1723 -0.4100
  695POPI   C2B10686  12.132   2.853   6.774 -0.1580 -0.0992  0.1351
  695POPI   C3B10687  12.031   3.050   7.123 -0.1391  0.0463  0.1278
  695POPI   C4B10688  12.312   3.264   7.361 -0.0112 -0.0683  0.0761
  696POPI    C110689   5.446   8.455   5.067 -0.1754  0.0768 -0.2519
  696POPI    C210690   5.054   8.398   5.013 -0.2104 -0.0977  0.1545
  696POPI    C310691   5.303   8.085   5.011 -0.0975 -0.0078  0.0883
  696POPI   PO410692   5.554   8.613   5.348  0.0283  0.4895 -0.3449
  696POPI   GL110693   5.445   8.679   5.721  0.1168 -0.0582  0.2470
  696POPI   GL210694   5.687   8.777   5.834 -0.1621  0.0532 -0.3248
  696POPI   C1A10695   5.401   8.410   6.039  0.1597 -0.0109 -0.2464
  696POPI   D2A10696   5.549   8.172   6.274 -0.1479  0.2613 -0.0001
  696POPI   C3A10697   5.499   7.815   6.364 -0.0917  0.1037 -0.0499
  696POPI   C4A10698   5.674   7.454   6.264 -0.0311  0.1631  0.3009
  696POPI   C1B10699   5.766   8.675   6.283  0.0380  0.2277  0.0662
  696POPI   C2B10700   5.734   8.714   6.804  0.1375 -0.1044  0.2514
  696POPI   C3B10701   5.796   8.557   7.308  0.1333 -0.1446  0.1664
  696POPI   C4B10702   6.054   8.612   7.624  0.2217  0.1128 -0.0918
  697POPI    C110703  15.281   6.798   5.569  0.0221  0.1735 -0.0956
  697POPI    C210704  15.283   6.426   5.717  0.1988  0.1991 -0.0311
  697POPI    C310705  15.537   6.526   5.425 -0.0797  0.1767 -0.2862
  697POPI   PO410706  15.324   6.925   5.774 -0.2061  0.0418  0.3652
  697POPI   GL110707  15.515   6.976   6.111 -0.1874 -0.1236  0.0556
  697POPI   GL210708  15.908   6.959   6.084 -0.1214 -0.0538 -0.5791
  697POPI   C1A10709  15.618   7.288   6.324  0.4029  0.0408  0.3063
  697POPI   D2A10710  15.754   7.714   6.466 -0.1770  0.0449 -0.0279
  697POPI   C3A10711  15.807   7.813   6.929  0.0378  0.1987 -0.0604
  697POPI   C4A10712  15.506   7.825   7.256 -0.1940 -0.0387  0.2424
  697POPI   C1B10713  15.783   6.863   6.520  0.1195 -0.0572 -0.0545
  697POPI   C2B10714  15.768   7.275   6.807  0.1028 -0.1466 -0.2257
  697POPI   C3B10715  15.555   7.340   7.246 -0.2306  0.2346 -0.0832
  697POPI   C4B10716  15.857   7.521   7.572 -0.1544 -0.1370  0.2681
  698POPI    C110717   3.757   8.632   4.678  0.1007 -0.0991  0.0350
  698POPI    C210718   3.843   9.003   4.803 -0.0228  0.0398 -0.2811
  698POPI    C310719   4.023   8.855   4.478  0.0443 -0.1895 -0.1421
  698POPI   PO410720   3.759   8.524   4.991 -0.1330 -0.0119  0.4123
  698POPI   GL110721   3.554   8.420   5.400  0.0952  0.1269 -0.1563
  698POPI   GL210722   3.443   8.092   5.279  0.2869  0.0906  0.1051
  698POPI   C1A10723   3.394   8.319   5.842 -0.0679 -0.1457 -0.1744
  698POPI   D2A10724   2.954   8.118   5.995 -0.0073 -0.0392  0.0367
  698POPI   C3A10725   3.054   7.983   6.458  0.1338  0.1396 -0.2813
  698POPI   C4A10726   3.093   8.195   6.770 -0.0284  0.3656 -0.1953
  698POPI   C1B10727   3.213   7.784   5.522 -0.0161 -0.0182  0.2124
  698POPI   C2B10728   2.873   7.600   5.858  0.1674  0.1066  0.4604
  698POPI   C3B10729   2.590   7.691   6.105  0.0917 -0.1910 -0.1828
  698POPI   C4B10730   2.234   8.037   6.235 -0.0129 -0.0530 -0.1362
  699POPI    C110731  14.055  18.248   5.355  0.2192  0.1618  0.1672
  699POPI    C210732  14.102  18.041   5.016 -0.0109  0.1470  0.1424
  699POPI    C310733  14.212  18.426   5.032 -0.1595  0.1969 -0.0039
  699POPI   PO410734  13.897  18.054   5.557  0.0458 -0.2831 -0.0718
  699POPI   GL110735  13.885  18.140   5.993  0.1583 -0.0658  0.1427
  699POPI   GL210736  13.504  18.075   6.056  0.1130  0.1373  0.1812
  699POPI   C1A10737  13.937  17.939   6.413 -0.2968  0.0842  0.2758
  699POPI   D2A10738  13.909  17.954   6.973 -0.1391 -0.1154  0.0661
  699POPI   C3A10739  13.780  17.857   7.390 -0.1922  0.0631  0.1109
  699POPI   C4A10740  13.715  17.513   7.605  0.2744  0.1272  0.3569
  699POPI   C1B10741  13.383  18.072   6.467  0.1495 -0.2564 -0.1780
  699POPI   C2B10742  13.407  18.382   6.830 -0.1207 -0.0280 -0.0414
  699POPI   C3B10743  12.997  18.555   6.911  0.0825  0.1597 -0.0042
  699POPI   C4B10744  12.771  18.418   7.206 -0.0153 -0.2160  0.0294
  700POPI    C110745  10.833  18.716   5.408  0.0499 -0.0623 -0.2448
  700POPI    C210746  10.826  18.809   5.797  0.0664 -0.4909 -0.1358
  700POPI    C310747  11.145  18.903   5.574 -0.1268  0.1611 -0.1598
  700POPI   PO410748  10.752  18.479   5.378  0.1280  0.0410  0.0667
  700POPI   GL110749  10.541  18.390   5.794  0.2046  0.0922 -0.1153
  700POPI   GL210750  10.389  18.685   6.051 -0.0411  0.1725  0.2157
  700POPI   C1A10751  10.023  18.423   5.822 -0.1014 -0.0679 -0.4524
  700POPI   D2A10752   9.818  18.696   6.103  0.0130  0.2588 -0.2414
  700POPI   C3A10753   9.894  19.107   6.101  0.1661 -0.3191  0.2578
  700POPI   C4A10754   9.804  19.581   6.004  0.3616 -0.0025  0.0520
  700POPI   C1B10755  10.667  19.019   6.193 -0.0956  0.0138 -0.3548
  700POPI   C2B10756  11.074  18.880   6.339 -0.2071 -0.1445 -0.1277
  700POPI   C3B10757  11.362  18.583   6.269  0.3089  0.0711 -0.1808
  700POPI   C4B10758  11.704  18.437   6.348 -0.1273  0.1796  0.0736
  701POPS   CNO10759   1.541   3.835   5.300  0.1937 -0.2845 -0.1258
  701POPS   PO410760   1.015   3.786   5.270  0.1679  0.3095 -0.1400
  701POPS   GL110761   1.053   3.968   5.686  0.0427 -0.0175 -0.3013
  701POPS   GL210762   1.299   3.693   5.871  0.1205 -0.0833  0.1433
  701POPS   C1A10763   0.878   4.193   6.023  0.1963 -0.2516  0.0389
  701POPS   D2A10764   0.423   4.211   6.349 -0.0878  0.1295 -0.0927
  701POPS   C3A10765   0.488   4.536   6.648  0.2829 -0.1004 -0.1164
  701POPS   C4A10766   0.572   4.936   6.607  0.2264 -0.1362  0.2089
  701POPS   C1B10767   1.316   3.337   6.148  0.3299  0.1031  0.1321
  701POPS   C2B10768   0.932   3.204   6.306  0.2406 -0.5945 -0.0123
  701POPS   C3B10769   0.727   3.097   6.566  0.3355 -0.1713  0.2366
  701POPS   C4B10770   0.555   2.956   6.839  0.0218 -0.0978 -0.0730
  702POPS   CNO10771  18.825  10.865   4.893 -0.0309  0.0838 -0.0668
  702POPS   PO410772  19.100  10.619   4.919  0.1669 -0.0763 -0.5123
  702POPS   GL110773  19.192  10.857   5.404 -0.2167 -0.1310 -0.0503
  702POPS   GL210774  18.896  10.790   5.647  0.0028 -0.0546  0.1186
  702POPS   C1A10775  19.353  10.760   5.760 -0.3141  0.2498 -0.1673
  702POPS   D2A10776  19.293  10.365   5.996 -0.2721  0.1107  0.1036
  702POPS   C3A10777  19.066  10.364   6.365  0.2462 -0.0353 -0.0706
  702POPS   C4A10778  18.681  10.165   6.451  0.1612  0.0499  0.3035
  702POPS   C1B10779  18.930  11.039   5.924  0.1331 -0.2691  0.2903
  702POPS   C2B10780  18.910  11.469   6.040  0.1800  0.0001 -0.1724
  702POPS   C3B10781  18.750  11.828   6.212  0.0630  0.0227  0.1298
  702POPS   C4B10782  18.924  12.280   6.237  0.2950  0.0559 -0.0548
  703POPS   CNO10783  18.189   2.118   5.463 -0.2033 -0.0075  0.0944
  703POPS   PO410784  18.136   2.151   5.938  0.0906 -0.0549  0.2538
  703POPS   GL110785  17.810   2.304   6.194  0.5297  0.0844  0.0946
  703POPS   GL210786  17.568   2.006   6.116 -0.0697 -0.1837 -0.0286
  703POPS   C1A10787  17.574   2.590   6.383  0.1037 -0.1101  0.0157
  703POPS   D2A10788  17.624   2.560   6.828  0.1599  0.1213  0.0803
  703POPS   C3A10789  17.316   2.270   7.056 -0.2515  0.0142 -0.2593
  703POPS   C4A10790  17.073   2.339   7.430  0.1735  0.1104 -0.0495
  703POPS   C1B10791  17.548   2.083   6.554 -0.2558  0.1825  0.1362
  703POPS   C2B10792  17.640   1.837   6.908 -0.0620  0.0546 -0.0019
  703POPS   C3B10793  17.605   1.668   7.328  0.0753 -0.5563 -0.0617
  703POPS   C4B10794  17.765   1.460   7.697 -0.0026  0.1941 -0.1902
  704POPS   CNO10795   1.613  13.762   5.119 -0.0999  0.0405  0.0685
  704POPS   PO410796   2.011  13.546   5.207  0.0249  0.2599  0.1008
  704POPS   GL110797   2.082  13.559   5.631  0.0288 -0.1341 -0.1507
  704POPS   GL210798   2.020  13.816   5.776  0.3956 -0.0914  0.1306
  704POPS   C1A10799   1.798  13.403   5.876 -0.0251  0.2449  0.0279
  704POPS   D2A10800   1.756  13.310   6.269 -0.0586 -0.0498 -0.1120
  704POPS   C3A10801   2.027  13.405   6.627  0.1601  0.4280 -0.2904
  704POPS   C4A10802   1.961  13.644   7.117 -0.1402 -0.0785 -0.0895
  704POPS   C1B10803   1.960  13.771   6.257 -0.1715  0.3448  0.2509
  704POPS   C2B10804   2.105  13.908   6.670 -0.1012  0.0986  0.0601
  704POPS   C3B10805   2.106  14.128   7.042  0.0882 -0.5201 -0.2980
  704POPS   C4B10806   1.962  14.332   7.365  0.1571  0.0313  0.2012
  705POPS   CNO10807   3.273  14.104   4.956  0.1775 -0.2875  0.4974
  705POPS   PO410808   3.582  13.926   5.346 -0.2552 -0.0013 -0.1796
  705POPS   GL110809   3.665  13.820   5.718  0.2257 -0.2030  0.0833
  705POPS   GL210810   3.383  13.962   5.854 -0.1678  0.2020  0.3865
  705POPS   C1A10811   3.815  13.770   6.138  0.4344 -0.1186 -0.1161
  705POPS   D2A10812   3.953  13.854   6.570  0.5510 -0.1694 -0.0860
  705POPS   C3A10813   3.638  13.979   6.697  0.3901  0.1316  0.1218
  705POPS   C4A10814   3.340  13.812   6.924  0.0145 -0.1584  0.0093
  705POPS   C1B10815   3.276  13.973   6.350  0.0399 -0.1660  0.1443
  705POPS   C2B10816   3.063  14.099   6.640 -0.1149 -0.0669 -0.1782
  705POPS   C3B10817   2.868  14.128   6.990  0.1382  0.3077 -0.1465
  705POPS   C4B10818   2.942  14.136   7.371  0.0575  0.1028 -0.0792
  706POPS   CNO10819   5.582  18.082   4.934  0.1997 -0.1961 -0.3336
  706POPS   PO410820   5.965  18.113   4.830 -0.1144  0.3321  0.1160
  706POPS   GL110821   5.930  17.962   5.279 -0.1876 -0.2690  0.1758
  706POPS   GL210822   6.181  17.706   5.498  0.1938 -0.0766 -0.1365
  706POPS   C1A10823   5.683  17.973   5.676 -0.1584  0.4980 -0.0572
  706POPS   D2A10824   5.581  17.834   6.041  0.2342 -0.0982  0.4259
  706POPS   C3A10825   5.853  17.680   6.329 -0.0909 -0.0501 -0.2833
  706POPS   C4A10826   6.289  17.679   6.546 -0.0285 -0.0432  0.1722
  706POPS   C1B10827   6.496  17.652   5.752  0.0229  0.3703  0.2472
  706POPS   C2B10828   6.658  17.731   6.062 -0.1320 -0.1065 -0.1735
  706POPS   C3B10829   6.766  17.450   6.420 -0.1650 -0.2293  0.2539
  706POPS   C4B10830   6.647  17.341   6.869  0.1976 -0.1715 -0.0725
  707POPS   CNO10831   3.740  12.768   5.254 -0.1799  0.0695  0.1334
  707POPS   PO410832   4.170  13.003   5.385  0.3926  0.2914 -0.3072
  707POPS   GL110833   4.046  13.028   5.852  0.4153  0.0197 -0.3563
  707POPS   GL210834   4.064  13.331   5.861 -0.0412  0.0301  0.0516
  707POPS   C1A10835   4.209  12.818   6.228  0.0889  0.0905  0.2180
  707POPS   D2A10836   4.355  12.943   6.654  0.1426  0.1260  0.0816
  707POPS   C3A10837   4.127  13.019   7.077 -0.2133  0.2499  0.1646
  707POPS   C4A10838   3.986  13.125   7.428 -0.1178 -0.0991 -0.0178
  707POPS   C1B10839   3.897  13.218   6.286  0.2383 -0.1648  0.1033
  707POPS   C2B10840   3.781  13.365   6.700 -0.0893 -0.1487  0.0265
  707POPS   C3B10841   3.616  13.265   7.041 -0.0045  0.0188  0.1351
  707POPS   C4B10842   3.497  13.252   7.500 -0.1210  0.1184 -0.2479
  708POPS   CNO10843  12.486   9.037   5.812  0.1434  0.0509 -0.2190
  708POPS   PO410844  12.215   9.214   5.547  0.3166  0.0552 -0.1543
  708POPS   GL110845  12.153   9.467   5.917  0.0996  0.2614  0.1044
  708POPS   GL210846  12.273   9.623   6.196  0.2350  0.3394 -0.0984
  708POPS   C1A10847  11.864   9.360   6.283  0.3049 -0.0163  0.0724
  708POPS   D2A10848  11.831   9.214   6.716 -0.0482  0.0837  0.0152
  708POPS   C3A10849  11.606   8.911   6.607  0.1919  0.1029 -0.0557
  708POPS   C4A10850  11.442   8.821   6.136 -0.4137 -0.1553 -0.0158
  708POPS   C1B10851  12.703   9.667   6.452  0.0890  0.2967 -0.1243
  708POPS   C2B10852  12.639   9.806   6.877 -0.0609 -0.2195  0.0016
  708POPS   C3B10853  12.631   9.698   7.316 -0.0396 -0.1336 -0.0284
  708POPS   C4B10854  12.739   9.218   7.331  0.0376 -0.1057  0.1950
  709POPS   CNO10855   4.200   8.802   5.111  0.0886 -0.0421 -0.2144
  709POPS   PO410856   4.337   8.838   5.522 -0.1468 -0.4163 -0.1703
  709POPS   GL110857   4.083   8.750   5.882  0.2376  0.2587  0.0670
  709POPS   GL210858   3.952   8.506   5.736 -0.0905 -0.0213  0.0038
  709POPS   C1A10859   4.105   8.769   6.350 -0.0169  0.1889  0.0231
  709POPS   D2A10860   4.470   8.787   6.597  0.1311  0.3102  0.0417
  709POPS   C3A10861   4.832   9.211   6.520  0.3267  0.4839 -0.0285
  709POPS   C4A10862   5.018   9.518   6.316  0.0558 -0.1735 -0.0430
  709POPS   C1B10863   3.628   8.616   6.153  0.0187 -0.2212 -0.0173
  709POPS   C2B10864   3.349   8.352   6.363  0.3025 -0.2123 -0.0665
  709POPS   C3B10865   3.094   8.651   6.560  0.2611 -0.2310  0.1650
  709POPS   C4B10866   3.303   8.938   6.885 -0.0475  0.0464  0.2514
  710POPS   CNO10867   2.461  18.005   5.500 -0.1227  0.0957  0.1090
  710POPS   PO410868   2.018  18.168   5.476  0.0988  0.0386  0.3010
  710POPS   GL110869   2.117  18.222   5.821  0.0990 -0.2896 -0.2065
  710POPS   GL210870   2.228  17.977   5.988 -0.1448 -0.0152  0.0278
  710POPS   C1A10871   2.001  18.451   6.202  0.2054  0.2324  0.1006
  710POPS   D2A10872   1.903  18.483   6.538  0.1676 -0.2060  0.0247
  710POPS   C3A10873   2.232  18.551   6.803  0.1976  0.1732  0.0394
  710POPS   C4A10874   2.095  18.438   7.217 -0.0571 -0.1969  0.0979
  710POPS   C1B10875   2.242  17.648   6.282  0.0661  0.1653 -0.2535
  710POPS   C2B10876   2.414  17.487   6.693  0.1673  0.0357  0.0258
  710POPS   C3B10877   2.510  17.140   7.093  0.1126  0.1552 -0.0693
  710POPS   C4B10878   2.539  17.240   7.544  0.0367 -0.1860  0.2070
  711POPS   CNO10879  18.324  14.664   5.290 -0.1576 -0.6081 -0.0760
  711POPS   PO410880  17.836  14.493   5.191  0.0777  0.1805 -0.1760
  711POPS   GL110881  17.860  14.386   5.622  0.0024  0.0472 -0.1528
  711POPS   GL210882  18.066  14.713   5.826 -0.2008  0.1071  0.2172
  711POPS   C1A10883  17.793  14.361   6.061 -0.0500 -0.1124 -0.0529
  711POPS   D2A10884  17.722  14.102   6.366 -0.0167  0.1636 -0.2824
  711POPS   C3A10885  17.458  13.667   6.471  0.1167  0.1310 -0.0469
  711POPS   C4A10886  17.587  13.371   6.735 -0.2398 -0.2831 -0.5399
  711POPS   C1B10887  18.003  15.174   6.068  0.0092 -0.2282 -0.1952
  711POPS   C2B10888  18.382  15.297   6.340  0.4205 -0.1281 -0.2370
  711POPS   C3B10889  18.587  15.139   6.741 -0.0756 -0.5044  0.1245
  711POPS   C4B10890  18.593  14.834   7.139  0.1276 -0.1186 -0.0332
  712POPS   CNO10891   9.959   7.554   5.109  0.3040 -0.1419 -0.2200
  712POPS   PO410892  10.311   7.387   5.181  0.3542 -0.2080 -0.0455
  712POPS   GL110893  10.367   7.127   5.588  0.1213 -0.3433  0.0504
  712POPS   GL210894  10.639   7.244   5.596 -0.2260  0.0722 -0.0107
  712POPS   C1A10895  10.151   6.911   6.022 -0.0997  0.3168 -0.1187
  712POPS   D2A10896   9.809   6.788   6.399 -0.0788  0.3487  0.3706
  712POPS   C3A10897   9.859   6.781   6.816  0.0607  0.1960 -0.2058
  712POPS   C4A10898  10.124   6.979   7.076 -0.4004  0.0562  0.1674
  712POPS   C1B10899  10.597   7.193   6.068  0.1510  0.0102 -0.1670
  712POPS   C2B10900  10.556   7.280   6.515  0.0312  0.1707 -0.1361
  712POPS   C3B10901  10.506   7.406   6.861 -0.1284  0.2309  0.0523
  712POPS   C4B10902  10.357   7.370   7.268 -0.1275  0.1276  0.0975
  713POPS   CNO10903  12.539  13.579   4.933  0.2573  0.2278 -0.0791
  713POPS   PO410904  12.165  13.783   5.001  0.1175 -0.0387  0.0623
  713POPS   GL110905  12.109  13.655   5.426 -0.1050  0.0824  0.1184
  713POPS   GL210906  11.851  13.452   5.502 -0.0464 -0.2942  0.3276
  713POPS   C1A10907  12.530  13.556   5.734  0.0762  0.1495  0.2379
  713POPS   D2A10908  12.604  13.287   5.928  0.0417 -0.1661 -0.0490
  713POPS   C3A10909  12.342  13.277   6.207  0.1002 -0.3164  0.3276
  713POPS   C4A10910  12.208  13.495   6.498 -0.0250 -0.1345 -0.1861
  713POPS   C1B10911  11.934  13.542   5.952  0.0942  0.3302 -0.2042
  713POPS   C2B10912  11.855  13.187   6.321  0.0529 -0.1704  0.0643
  713POPS   C3B10913  11.625  13.170   6.686 -0.0954 -0.2766  0.0729
  713POPS   C4B10914  11.474  12.839   6.919  0.0628 -0.2829 -0.0257
  714POPS   CNO10915   9.048   7.812   5.005  0.1201  0.3634  0.0038
  714POPS   PO410916   9.309   8.103   5.177  0.3256 -0.1003 -0.1261
  714POPS   GL110917   9.178   8.267   5.627 -0.0511 -0.4137 -0.2526
  714POPS   GL210918   9.251   8.579   5.811  0.0956 -0.2009  0.0744
  714POPS   C1A10919   9.377   8.113   5.997 -0.1605 -0.0644 -0.1167
  714POPS   D2A10920   9.493   8.215   6.347  0.1334  0.3166 -0.0127
  714POPS   C3A10921   9.490   8.151   6.747  0.1088 -0.1322 -0.0464
  714POPS   C4A10922   9.433   7.742   7.043 -0.2431  0.0159 -0.1061
  714POPS   C1B10923   9.127   8.591   6.190 -0.2811 -0.1266  0.0357
  714POPS   C2B10924   9.129   8.431   6.610  0.0331  0.2336  0.2232
  714POPS   C3B10925   8.966   8.573   6.990 -0.0908  0.0823 -0.0577
  714POPS   C4B10926   8.595   8.777   7.020  0.0301  0.0590 -0.0158
  715POPS   CNO10927   6.598  13.120   5.816 -0.1145 -0.1995  0.4164
  715POPS   PO410928   6.869  13.073   5.510 -0.3328 -0.2679  0.0303
  715POPS   GL110929   6.841  12.711   5.689  0.0029 -0.1643  0.1944
  715POPS   GL210930   7.130  12.603   5.784  0.1042 -0.2954 -0.1166
  715POPS   C1A10931   6.788  12.787   6.122  0.1902 -0.2557 -0.0649
  715POPS   D2A10932   6.388  12.699   6.432 -0.1567  0.1503 -0.1431
  715POPS   C3A10933   6.535  12.359   6.527  0.0340  0.1161  0.1707
  715POPS   C4A10934   6.570  12.321   6.904  0.1048 -0.2436  0.0213
  715POPS   C1B10935   7.481  12.872   5.988 -0.0964  0.0918 -0.0296
  715POPS   C2B10936   7.866  12.986   6.198  0.0274 -0.1320 -0.3075
  715POPS   C3B10937   8.289  12.817   6.306 -0.3233 -0.4559 -0.1409
  715POPS   C4B10938   8.522  12.437   6.452  0.0046  0.3845  0.2087
  716POPS   CNO10939  12.665   0.241   5.441  0.1209  0.0326 -0.4179
  716POPS   PO410940  13.018   0.081   5.435 -0.3022  0.0903 -0.0439
  716POPS   GL110941  12.848   0.028   5.967  0.2744 -0.0222 -0.0656
  716POPS   GL210942  12.968  -0.230   6.153 -0.1014  0.0877  0.0925
  716POPS   C1A10943  12.654   0.240   6.378  0.1845  0.0298 -0.4651
  716POPS   D2A10944  12.618   0.374   6.738  0.2325  0.1603 -0.1540
  716POPS   C3A10945  12.596   0.825   6.798  0.3272 -0.0764  0.0439
  716POPS   C4A10946  12.451   1.123   6.502  0.0701  0.0318  0.2830
  716POPS   C1B10947  13.056  -0.090   6.537  0.0324 -0.1918  0.3907
  716POPS   C2B10948  12.966  -0.059   6.872 -0.0132  0.1476  0.2347
  716POPS   C3B10949  12.746   0.046   7.266 -0.1652 -0.0066  0.0887
  716POPS   C4B10950  12.323   0.312   7.197 -0.0970  0.1144  0.0713
  717POPS   CNO10951   3.640   6.268   5.178  0.2017  0.0136 -0.0066
  717POPS   PO410952   3.219   6.348   5.040 -0.1597 -0.0076  0.0757
  717POPS   GL110953   3.154   6.619   5.377  0.1727  0.1198 -0.0453
  717POPS   GL210954   2.900   6.767   5.436  0.1596  0.2570 -0.0105
  717POPS   C1A10955   3.504   6.721   5.621  0.1958 -0.0854  0.3609
  717POPS   D2A10956   3.891   6.851   5.726 -0.0855  0.0275  0.1548
  717POPS   C3A10957   3.978   7.305   5.674  0.0489  0.1071 -0.0415
  717POPS   C4A10958   3.799   7.650   5.555 -0.0194 -0.2047  0.0638
  717POPS   C1B10959   3.119   7.074   5.658 -0.0074 -0.0492  0.1177
  717POPS   C2B10960   3.411   7.305   5.785  0.2460 -0.5312  0.0355
  717POPS   C3B10961   3.699   7.241   6.083  0.0250 -0.1746  0.3347
  717POPS   C4B10962   4.176   7.123   6.227  0.0497 -0.0233  0.1685
  718POPS   CNO10963   3.229  14.950   5.215  0.3203  0.1994  0.1167
  718POPS   PO410964   3.223  15.076   5.536  0.2991 -0.1113 -0.0259
  718POPS   GL110965   3.204  15.329   5.955 -0.1235 -0.0680 -0.1670
  718POPS   GL210966   2.953  15.582   6.020  0.1998  0.1888  0.0605
  718POPS   C1A10967   3.383  15.333   6.231  0.0814 -0.2015  0.2133
  718POPS   D2A10968   3.239  15.313   6.613  0.3854  0.0669 -0.2121
  718POPS   C3A10969   3.428  15.332   6.975  0.4581 -0.1662  0.2372
  718POPS   C4A10970   3.669  15.461   7.268 -0.0593 -0.0261 -0.1525
  718POPS   C1B10971   2.887  15.537   6.417 -0.1325 -0.0554  0.5602
  718POPS   C2B10972   2.831  15.555   6.860 -0.2705 -0.0304 -0.0881
  718POPS   C3B10973   2.721  15.542   7.282 -0.0367 -0.0008 -0.1409
  718POPS   C4B10974   2.708  15.362   7.640 -0.1902 -0.0641 -0.0279
  719POPS   CNO10975  14.793  18.991   5.692  0.0551 -0.2390  0.0733
  719POPS   PO410976  15.264  19.165   5.658  0.0313  0.0172  0.1390
  719POPS   GL110977  15.091  19.262   6.050  0.3617  0.1733  0.1994
  719POPS   GL210978  15.352  19.083   6.099 -0.0954  0.1770 -0.0494
  719POPS   C1A10979  14.962  19.180   6.481  0.1537 -0.2922  0.0141
  719POPS   D2A10980  14.610  18.853   6.713  0.3133  0.0031 -0.2342
  719POPS   C3A10981  14.296  18.661   7.084 -0.1338 -0.2269  0.2701
  719POPS   C4A10982  14.074  18.756   7.405  0.2468  0.0068  0.0644
  719POPS   C1B10983  15.338  18.877   6.488 -0.0476 -0.0327 -0.0385
  719POPS   C2B10984  15.083  18.486   6.550  0.2080 -0.3026  0.4567
  719POPS   C3B10985  14.614  18.441   6.449 -0.1494 -0.2748  0.0160
  719POPS   C4B10986  14.327  18.217   6.660 -0.1498  0.3256 -0.0957
  720POPS   CNO10987   1.019  14.001   5.309 -0.0149 -0.2617 -0.0895
  720POPS   PO410988   0.799  13.978   5.624 -0.2061  0.1675 -0.2579
  720POPS   GL110989   1.056  13.753   5.858  0.2541 -0.1057 -0.0688
  720POPS   GL210990   1.056  13.404   5.796 -0.5397 -0.1680 -0.0361
  720POPS   C1A10991   1.362  13.777   6.086  0.0723 -0.0307  0.2317
  720POPS   D2A10992   1.544  13.702   6.505 -0.0164  0.0259  0.0204
  720POPS   C3A10993   1.512  13.501   6.850 -0.0922  0.2985  0.1811
  720POPS   C4A10994   1.494  13.437   7.215 -0.2867 -0.0235 -0.2472
  720POPS   C1B10995   0.995  13.439   6.216 -0.2031 -0.0571 -0.1735
  720POPS   C2B10996   1.077  13.710   6.651  0.0286  0.0727 -0.2755
  720POPS   C3B10997   1.247  13.876   7.047 -0.0253  0.1588 -0.0840
  720POPS   C4B10998   1.173  14.243   7.252  0.0635 -0.2519 -0.0661
  721POPS   CNO10999   9.919   0.718   5.079  0.2286  0.1164  0.1638
  721POPS   PO411000   9.516   0.771   5.272  0.2087  0.0073  0.1258
  721POPS   GL111001   9.379   0.603   5.639  0.2418 -0.1552  0.2053
  721POPS   GL211002   9.059   0.670   5.618 -0.0444 -0.2906  0.0393
  721POPS   C1A11003   9.288   0.540   6.106 -0.0357  0.2801  0.0131
  721POPS   D2A11004   9.178   0.618   6.535 -0.3703  0.0302  0.0832
  721POPS   C3A11005   9.389   0.671   6.871 -0.0774 -0.1437  0.0246
  721POPS   C4A11006   9.521   0.669   7.244  0.1204 -0.0708  0.1434
  721POPS   C1B11007   8.690   0.894   5.717  0.1881 -0.0038  0.0979
  721POPS   C2B11008   8.255   0.919   5.955  0.0175 -0.0296 -0.4458
  721POPS   C3B11009   8.199   0.758   6.370 -0.0896 -0.1851  0.0406
  721POPS   C4B11010   8.294   0.860   6.757 -0.1221  0.2985 -0.1187
  722POPS   CNO11011   4.589  10.558   5.048 -0.0350  0.4337  0.0456
  722POPS   PO411012   4.972  10.401   5.256  0.0032  0.1160 -0.2114
  722POPS   GL111013   5.018  10.416   5.666  0.1906 -0.0021 -0.4223
  722POPS   GL211014   4.963  10.066   5.719 -0.3206 -0.1118 -0.0935
  722POPS   C1A11015   5.308  10.538   5.984 -0.3257  0.2402  0.1850
  722POPS   D2A11016   5.526  10.438   6.419  0.1123 -0.4318  0.0870
  722POPS   C3A11017   5.681  10.616   6.722  0.1852 -0.0464 -0.5642
  722POPS   C4A11018   5.546  10.819   7.163 -0.0425  0.3994  0.0616
  722POPS   C1B11019   5.188  10.015   6.088  0.1393  0.0901  0.0372
  722POPS   C2B11020   5.200  10.067   6.552 -0.0853 -0.1227 -0.1177
  722POPS   C3B11021   5.449  10.209   6.895 -0.0360  0.0032 -0.4064
  722POPS   C4B11022   5.829  10.306   7.118 -0.0059 -0.0565 -0.1263
  723POPS   CNO11023  18.334  11.601   4.987  0.1697  0.2038  0.2171
  723POPS   PO411024  18.588  11.676   5.347  0.0088  0.5506  0.0509
  723POPS   GL111025  18.267  11.734   5.695 -0.2624 -0.1401 -0.3017
  723POPS   GL211026  18.433  11.581   5.815  0.3003 -0.0536  0.1307
  723POPS   C1A11027  17.913  11.786   5.923  0.2094  0.3182  0.0120
  723POPS   D2A11028  17.444  11.959   6.154 -0.2432  0.0877 -0.0130
  723POPS   C3A11029  16.892  11.692   6.098  0.1900  0.1130 -0.1865
  723POPS   C4A11030  16.423  11.496   6.156 -0.2986 -0.1292 -0.1479
  723POPS   C1B11031  18.302  11.652   6.227  0.1175  0.0499 -0.2740
  723POPS   C2B11032  18.198  11.545   6.641  0.0639  0.1678 -0.0996
  723POPS   C3B11033  18.272  11.226   6.934  0.2292 -0.1309 -0.1337
  723POPS   C4B11034  18.321  10.815   7.038  0.2055 -0.1209  0.0077
  724POPS   CNO11035   8.094   8.165   5.224  0.0577 -0.3133  0.0910
  724POPS   PO411036   7.842   8.466   5.026  0.3912  0.1849 -0.1095
  724POPS   GL111037   7.670   8.553   5.405  0.1118  0.2280  0.0382
  724POPS   GL211038   7.372   8.353   5.548 -0.1641 -0.2146  0.1055
  724POPS   C1A11039   7.637   8.796   5.687  0.3817 -0.1279 -0.0101
  724POPS   D2A11040   7.897   8.972   5.946  0.1818  0.2459 -0.0624
  724POPS   C3A11041   7.863   8.746   6.246 -0.0367 -0.3440  0.1935
  724POPS   C4A11042   8.117   8.784   6.583  0.0421 -0.0789  0.1263
  724POPS   C1B11043   7.255   8.439   5.815  0.0861 -0.2076 -0.2997
  724POPS   C2B11044   7.332   8.693   6.115 -0.2316  0.2145 -0.2383
  724POPS   C3B11045   7.453   8.902   6.469 -0.2513  0.1150  0.2149
  724POPS   C4B11046   7.848   9.275   6.594  0.1199 -0.0642  0.0588
  725POPS   CNO11047   2.126   5.889   4.937  0.3716  0.0374 -0.0481
  725POPS   PO411048   2.119   6.314   5.077  0.0054  0.4449  0.0020
  725POPS   GL111049   2.276   6.435   5.502  0.1495 -0.0029 -0.5759
  725POPS   GL211050   2.257   6.186   5.634  0.2196  0.0297  0.1105
  725POPS   C1A11051   2.580   6.266   5.995  0.2438  0.1122  0.1328
  725POPS   D2A11052   2.582   6.179   6.530 -0.2751 -0.2758  0.0533
  725POPS   C3A11053   2.700   6.582   6.716 -0.2293 -0.3081  0.1887
  725POPS   C4A11054   3.100   6.612   6.960 -0.0479 -0.3358 -0.0691
  725POPS   C1B11055   2.353   5.819   5.931 -0.0709  0.2956 -0.2443
  725POPS   C2B11056   2.585   5.776   6.271 -0.0663 -0.0931  0.1443
  725POPS   C3B11057   2.790   5.702   6.572  0.2641 -0.0702 -0.1439
  725POPS   C4B11058   2.962   5.410   6.866  0.2865  0.0835 -0.1332
  726POPS   CNO11059   8.162  13.509   5.071 -0.2260  0.3321 -0.0816
  726POPS   PO411060   8.061  13.417   5.473 -0.1976 -0.2333 -0.1274
  726POPS   GL111061   7.915  13.480   5.858 -0.4603 -0.1098 -0.0313
  726POPS   GL211062   7.591  13.393   5.985 -0.1598  0.1362 -0.2354
  726POPS   C1A11063   8.124  13.413   6.200  0.2312  0.1318  0.0342
  726POPS   D2A11064   8.265  13.241   6.598  0.2476  0.1025 -0.0080
  726POPS   C3A11065   8.387  13.337   7.009 -0.5428 -0.0767 -0.0260
  726POPS   C4A11066   8.202  13.634   7.359 -0.0578  0.1540  0.0449
  726POPS   C1B11067   7.736  13.515   6.474  0.1524  0.0248 -0.1139
  726POPS   C2B11068   7.457  13.645   6.817 -0.2141  0.0641 -0.3000
  726POPS   C3B11069   7.243  13.925   7.143  0.1395 -0.3565 -0.1588
  726POPS   C4B11070   6.775  13.677   7.318 -0.2936  0.0771 -0.0923
  727POPS   CNO11071   0.524  14.791   5.485 -0.1069 -0.2893 -0.1459
  727POPS   PO411072   0.178  14.458   5.498  0.6214 -0.1878 -0.0094
  727POPS   GL111073   0.153  14.575   5.923  0.3588 -0.0285  0.2980
  727POPS   GL211074   0.464  14.308   6.023  0.1535  0.2517 -0.0773
  727POPS   C1A11075   0.152  14.639   6.366  0.0587 -0.3502 -0.0741
  727POPS   D2A11076   0.318  14.584   6.793 -0.0826 -0.1626  0.0752
  727POPS   C3A11077   0.523  14.916   7.100  0.1831 -0.0118 -0.3885
  727POPS   C4A11078   0.253  14.951   7.560  0.3247 -0.1231  0.2158
  727POPS   C1B11079   0.206  14.057   6.306  0.5162  0.0263 -0.1611
  727POPS   C2B11080   0.169  14.014   6.754 -0.0099 -0.0968 -0.0720
  727POPS   C3B11081  -0.227  14.187   6.967  0.0014  0.0666  0.0783
  727POPS   C4B11082  -0.647  14.332   7.028 -0.0458  0.0985 -0.2875
  728POPS   CNO11083   7.293   6.810   5.631  0.1289  0.0430  0.2124
  728POPS   PO411084   7.513   6.800   5.272  0.1308  0.3486  0.1751
  728POPS   GL111085   7.660   7.129   5.532  0.0248 -0.2540 -0.2280
  728POPS   GL211086   7.906   7.405   5.622 -0.2794  0.0363  0.1775
  728POPS   C1A11087   7.701   7.172   6.026 -0.2863 -0.0955 -0.0326
  728POPS   D2A11088   7.816   7.277   6.496 -0.1478 -0.2739  0.0835
  728POPS   C3A11089   7.541   6.953   6.689 -0.4851 -0.2909 -0.0478
  728POPS   C4A11090   7.329   6.771   7.009  0.3047 -0.1331 -0.1192
  728POPS   C1B11091   8.160   7.052   5.652  0.0469 -0.1255 -0.1888
  728POPS   C2B11092   8.261   6.766   5.903  0.2591  0.1459 -0.0348
  728POPS   C3B11093   8.403   6.706   6.205 -0.0896  0.0605  0.2821
  728POPS   C4B11094   8.613   6.613   6.390 -0.1633  0.4976  0.0061
  729POPS   CNO11095   8.659   2.995   5.538  0.1716 -0.1595  0.0602
  729POPS   PO411096   9.153   2.975   5.374 -0.0223  0.3747  0.2141
  729POPS   GL111097   9.165   2.916   5.842 -0.3891 -0.1349 -0.1784
  729POPS   GL211098   9.503   2.902   5.912 -0.1220 -0.1779 -0.0499
  729POPS   C1A11099   9.108   2.831   6.379  0.0616 -0.0306 -0.0964
  729POPS   D2A11100   9.238   2.796   6.846 -0.0833  0.4679  0.1088
  729POPS   C3A11101   9.447   2.430   6.918 -0.2305  0.0120  0.1066
  729POPS   C4A11102   9.506   2.114   6.644 -0.1195  0.5934 -0.1315
  729POPS   C1B11103   9.439   2.543   6.153  0.3672  0.1663  0.1332
  729POPS   C2B11104   9.581   2.649   6.509 -0.0944 -0.0320  0.3430
  729POPS   C3B11105   9.777   2.753   6.839 -0.2940  0.1268 -0.0869
  729POPS   C4B11106   9.600   3.008   7.141  0.1199  0.0537  0.0953
  730POPS   CNO11107   1.399   3.090   5.744 -0.0499  0.0755  0.1701
  730POPS   PO411108   0.922   2.865   5.806  0.3687 -0.2296 -0.1906
  730POPS   GL111109   1.058   2.537   6.104 -0.1621  0.0159 -0.0159
  730POPS   GL211110   0.716   2.503   6.226 -0.1385  0.1076  0.0336
  730POPS   C1A11111   1.127   2.629   6.508 -0.1680 -0.1394  0.0760
  730POPS   D2A11112   1.225   2.907   6.857  0.0144  0.0224  0.1855
  730POPS   C3A11113   1.033   2.891   7.279  0.1431  0.0957  0.0513
  730POPS   C4A11114   0.627   3.108   7.300 -0.0437 -0.3051 -0.3208
  730POPS   C1B11115   0.804   2.187   6.455 -0.0981 -0.2409 -0.0414
  730POPS   C2B11116   1.152   2.140   6.753  0.0199  0.0225 -0.2903
  730POPS   C3B11117   1.493   2.374   6.830 -0.0930  0.1846  0.2201
  730POPS   C4B11118   1.747   2.465   6.498  0.5063  0.0657 -0.2346
  731POPS   CNO11119  11.574  15.531   4.570 -0.1543 -0.3293 -0.1598
  731POPS   PO411120  11.633  15.108   4.835 -0.1260 -0.1016  0.1805
  731POPS   GL111121  11.502  14.946   5.248  0.1187 -0.1889 -0.2913
  731POPS   GL211122  11.569  15.139   5.548  0.0357  0.0744  0.1311
  731POPS   C1A11123  11.193  14.836   5.602  0.0700  0.0098 -0.0826
  731POPS   D2A11124  11.140  14.577   5.999  0.2032 -0.1469 -0.0130
  731POPS   C3A11125  10.750  14.311   6.020  0.0634 -0.1581  0.1352
  731POPS   C4A11126  10.331  14.322   5.902 -0.0156 -0.1393 -0.1101
  731POPS   C1B11127  11.476  15.017   6.014  0.2763  0.2306  0.0146
  731POPS   C2B11128  11.582  14.932   6.357 -0.0298 -0.3119 -0.0788
  731POPS   C3B11129  11.723  14.921   6.821  0.2540 -0.1670  0.3244
  731POPS   C4B11130  11.887  15.092   7.243 -0.0978  0.0809 -0.1500
  732POPS   CNO11131  14.689   8.440   5.440  0.3035  0.0353 -0.2286
  732POPS   PO411132  14.708   8.315   5.895  0.4126 -0.0801 -0.0304
  732POPS   GL111133  14.821   8.247   6.489 -0.0263 -0.2013  0.2431
  732POPS   GL211134  14.585   8.490   6.595  0.1087  0.1392  0.2801
  732POPS   C1A11135  14.936   8.280   6.839 -0.1164  0.2280  0.4226
  732POPS   D2A11136  15.033   8.054   7.127  0.1169  0.1455 -0.2907
  732POPS   C3A11137  14.893   7.761   7.422 -0.3394  0.3122 -0.1458
  732POPS   C4A11138  14.797   7.976   7.812  0.1343  0.4040  0.1669
  732POPS   C1B11139  14.529   8.743   6.817 -0.0970  0.1422 -0.1909
  732POPS   C2B11140  14.317   8.973   7.118 -0.0968  0.0306  0.2158
  732POPS   C3B11141  14.006   9.144   7.319  0.2898 -0.2110 -0.1444
  732POPS   C4B11142  13.760   9.551   7.070 -0.0789  0.3349  0.0791
  733POPS   CNO11143  11.502  13.020   4.779  0.3301  0.1777 -0.2698
  733POPS   PO411144  11.311  13.298   4.555 -0.2580 -0.2277 -0.1985
  733POPS   GL111145  11.288  13.525   4.838 -0.0611 -0.1930  0.5160
  733POPS   GL211146  11.100  13.351   5.034  0.2998 -0.0748  0.4205
  733POPS   C1A11147  11.373  13.790   5.271 -0.1189  0.1868  0.0824
  733POPS   D2A11148  11.134  14.043   5.439 -0.0946  0.4043 -0.1817
  733POPS   C3A11149  11.253  14.080   5.833 -0.2979  0.1202  0.2920
  733POPS   C4A11150  11.356  14.129   6.277 -0.0084  0.1817  0.2782
  733POPS   C1B11151  11.378  13.269   5.359  0.0224 -0.3527  0.0880
  733POPS   C2B11152  11.406  13.543   5.664  0.2498 -0.1637  0.1836
  733POPS   C3B11153  11.529  13.704   6.094  0.0505  0.0203  0.1548
  733POPS   C4B11154  11.462  13.578   6.467 -0.0250 -0.2115 -0.0838
  734POPS   CNO11155   1.556   0.640   5.169 -0.0294 -0.0965 -0.1864
  734POPS   PO411156   1.810   0.714   5.509 -0.1370  0.1464  0.1940
  734POPS   GL111157   1.956   0.706   5.922 -0.0188  0.0834  0.4469
  734POPS   GL211158   2.002   0.933   6.125 -0.1558  0.4543  0.2584
  734POPS   C1A11159   2.350   0.577   6.112  0.0745 -0.2000 -0.2134
  734POPS   D2A11160   2.490   0.621   6.529 -0.1573 -0.2824  0.2372
  734POPS   C3A11161   2.247   0.871   6.859  0.0274 -0.0861  0.2600
  734POPS   C4A11162   2.467   1.273   7.055  0.1601 -0.0038  0.3941
  734POPS   C1B11163   2.320   1.218   6.364  0.2851  0.3042 -0.1901
  734POPS   C2B11164   2.374   1.584   6.704  0.2380  0.1353  0.1156
  734POPS   C3B11165   2.289   1.766   7.168 -0.1414 -0.0505 -0.1728
  734POPS   C4B11166   2.389   2.183   7.419  0.0648  0.1307 -0.0870
  735POPS   CNO11167   5.480  13.966   5.825  0.3516  0.1014  0.0573
  735POPS   PO411168   5.885  14.121   5.679  0.2678 -0.1740  0.0125
  735POPS   GL111169   6.197  14.210   5.835  0.0048 -0.1517  0.1309
  735POPS   GL211170   6.315  14.547   5.786  0.0756 -0.0659 -0.3062
  735POPS   C1A11171   6.184  14.472   6.246  0.1030 -0.0211 -0.0324
  735POPS   D2A11172   6.380  14.558   6.678 -0.0224 -0.0101 -0.1113
  735POPS   C3A11173   6.301  14.999   6.948 -0.0656 -0.1424  0.0370
  735POPS   C4A11174   6.366  15.413   6.930  0.0653 -0.2386  0.0360
  735POPS   C1B11175   6.636  14.321   6.082  0.5338  0.0258  0.1510
  735POPS   C2B11176   6.686  14.067   6.462  0.0535 -0.0339  0.2244
  735POPS   C3B11177   6.479  14.047   6.930 -0.2023 -0.2709 -0.0836
  735POPS   C4B11178   6.230  14.033   7.332  0.0494 -0.0173  0.3190
  736POPS   CNO11179   2.145   9.749   5.598  0.1202  0.2545  0.0037
  736POPS   PO411180   2.580   9.477   5.516  0.1162  0.0433  0.2077
  736POPS   GL111181   2.275   9.250   5.775 -0.0932  0.2463 -0.0839
  736POPS   GL211182   2.278   9.374   5.955 -0.0888 -0.0996  0.2546
  736POPS   C1A11183   1.973   9.017   6.022 -0.2989 -0.5008  0.1724
  736POPS   D2A11184   2.063   9.171   6.442  0.2397 -0.1395  0.4296
  736POPS   C3A11185   2.005   9.108   6.839  0.0423 -0.0667 -0.1908
  736POPS   C4A11186   1.870   9.132   7.315 -0.3450  0.1757 -0.0638
  736POPS   C1B11187   2.123   9.694   6.187 -0.0566  0.1827  0.0733
  736POPS   C2B11188   1.989   9.636   6.560 -0.4038  0.2778 -0.1659
  736POPS   C3B11189   1.788   9.596   6.863  0.1483 -0.1206  0.0500
  736POPS   C4B11190   1.686   9.612   7.267  0.1228  0.0510  0.1814
  737POPS   CNO11191   8.950   5.171   4.831 -0.2881 -0.3736  0.1642
  737POPS   PO411192   9.045   5.447   5.149 -0.3285  0.0054  0.1584
  737POPS   GL111193   9.275   5.274   5.481  0.0513  0.0122  0.6140
  737POPS   GL211194   9.391   5.468   5.717 -0.0545  0.0687  0.0718
  737POPS   C1A11195   9.194   5.026   5.923 -0.3776  0.0390 -0.3495
  737POPS   D2A11196   9.182   4.893   6.385 -0.0259 -0.2010 -0.0128
  737POPS   C3A11197   9.128   5.094   6.798  0.0058  0.0859  0.8103
  737POPS   C4A11198   9.300   5.416   7.136 -0.1335  0.0823 -0.0039
  737POPS   C1B11199   9.678   5.607   6.035 -0.2240 -0.0530  0.0603
  737POPS   C2B11200   9.740   5.843   6.469 -0.3659  0.3397 -0.0127
  737POPS   C3B11201   9.553   5.976   6.771  0.0321 -0.0600 -0.1943
  737POPS   C4B11202   9.385   6.353   6.907 -0.2235  0.1922  0.0578
  738POPS   CNO11203  18.731  17.898   5.776  0.0104 -0.0227 -0.2204
  738POPS   PO411204  18.298  17.888   5.996  0.0987 -0.2663 -0.0666
  738POPS   GL111205  18.523  18.079   6.345  0.1695  0.1581  0.0923
  738POPS   GL211206  18.867  18.038   6.223  0.0334  0.0869 -0.3676
  738POPS   C1A11207  18.603  18.059   6.786  0.0399  0.1240 -0.2593
  738POPS   D2A11208  18.808  18.132   7.125  0.0787 -0.0072  0.1728
  738POPS   C3A11209  19.188  18.326   7.121  0.6003 -0.2337 -0.1862
  738POPS   C4A11210  19.373  18.500   7.505  0.1156 -0.1363 -0.1105
  738POPS   C1B11211  19.091  17.916   6.656  0.0251  0.0299 -0.1917
  738POPS   C2B11212  19.248  17.817   7.024 -0.1776 -0.2847 -0.0872
  738POPS   C3B11213  19.125  17.851   7.418 -0.1947 -0.3865  0.2246
  738POPS   C4B11214  19.238  17.926   7.818 -0.2406  0.0523  0.1019
  739POPS   CNO11215  14.045  13.789   4.993  0.0616  0.0918  0.1630
  739POPS   PO411216  13.801  13.431   5.070  0.0023  0.1158 -0.4958
  739POPS   GL111217  14.079  13.531   5.542 -0.1575 -0.1776 -0.3167
  739POPS   GL211218  14.016  13.247   5.765 -0.0804  0.0298 -0.3091
  739POPS   C1A11219  14.280  13.736   5.901 -0.2915  0.0905  0.1753
  739POPS   D2A11220  14.392  14.090   6.160 -0.0646  0.1044  0.1644
  739POPS   C3A11221  14.837  14.120   6.110 -0.1894  0.0485 -0.0404
  739POPS   C4A11222  14.963  14.547   6.167 -0.4211  0.0281 -0.0035
  739POPS   C1B11223  14.442  13.184   5.860 -0.0923  0.1686 -0.0782
  739POPS   C2B11224  14.756  13.074   6.106 -0.0655  0.0532  0.1874
  739POPS   C3B11225  15.079  13.130   6.425  0.1784  0.4310 -0.3885
  739POPS   C4B11226  15.157  12.909   6.840 -0.0886 -0.0659  0.0149
  740POPS   CNO11227   4.446   0.059   5.013 -0.0238  0.0524 -0.4235
  740POPS   PO411228   4.447  -0.378   5.167  0.5606 -0.1471  0.0926
  740POPS   GL111229   4.465  -0.127   5.478 -0.2619 -0.2061 -0.2570
  740POPS   GL211230   4.659  -0.081   5.667  0.3649  0.0732  0.1936
  740POPS   C1A11231   4.226   0.103   5.739  0.3729 -0.1152  0.0304
  740POPS   D2A11232   3.731   0.057   5.902 -0.3103  0.2526  0.1825
  740POPS   C3A11233   3.531   0.356   5.899  0.2915 -0.2862  0.0960
  740POPS   C4A11234   3.270   0.524   6.122  0.2054 -0.2537  0.1017
  740POPS   C1B11235   4.643  -0.326   6.016  0.1833 -0.3913  0.1067
  740POPS   C2B11236   4.419  -0.199   6.443 -0.1786 -0.2451 -0.2227
  740POPS   C3B11237   4.351   0.028   6.679 -0.5572  0.1238 -0.0694
  740POPS   C4B11238   4.090   0.316   6.947 -0.0088 -0.0772  0.2481
  741POPS   CNO11239  13.408   7.940   5.287  0.2332 -0.0555 -0.1573
  741POPS   PO411240  13.356   8.133   5.655  0.4197  0.0509  0.2509
  741POPS   GL111241  13.241   8.387   6.089 -0.1366 -0.2382  0.1481
  741POPS   GL211242  13.487   8.519   6.196 -0.2893  0.0085  0.1170
  741POPS   C1A11243  13.199   8.399   6.548  0.0720 -0.1034  0.0888
  741POPS   D2A11244  13.549   8.414   6.935 -0.2173 -0.2338  0.1198
  741POPS   C3A11245  13.763   8.192   7.151 -0.2723  0.3771  0.2852
  741POPS   C4A11246  13.693   7.750   7.441  0.2648  0.0434  0.0325
  741POPS   C1B11247  13.794   8.449   6.493  0.0984 -0.1611  0.0428
  741POPS   C2B11248  13.999   8.442   6.762  0.0525 -0.0098  0.0426
  741POPS   C3B11249  14.239   8.275   7.020 -0.2534  0.2578  0.1564
  741POPS   C4B11250  14.622   8.383   7.195  0.0640  0.1197 -0.0126
  742POPS   CNO11251  10.397   2.888   5.151  0.0073  0.0453  0.0171
  742POPS   PO411252  10.608   3.097   5.424  0.4874 -0.0116 -0.1306
  742POPS   GL111253  10.810   2.972   5.787  0.2334  0.1632 -0.3306
  742POPS   GL211254  10.673   3.194   6.069 -0.0698  0.1061 -0.4473
  742POPS   C1A11255  10.838   2.633   6.111 -0.2548 -0.0900  0.0462
  742POPS   D2A11256  10.997   2.535   6.463  0.2505 -0.5634  0.0094
  742POPS   C3A11257  10.712   2.502   6.801  0.0323 -0.4527  0.0003
  742POPS   C4A11258  10.475   2.255   6.980  0.4812 -0.0970  0.1108
  742POPS   C1B11259  10.415   3.237   6.456 -0.2110  0.0794  0.1569
  742POPS   C2B11260  10.087   3.223   6.831 -0.1919  0.3054 -0.1767
  742POPS   C3B11261  10.080   3.413   7.232 -0.2000 -0.1455 -0.0805
  742POPS   C4B11262  10.232   3.464   7.596 -0.4924 -0.1810  0.2411
  743POPS   CNO11263  15.615  18.487   5.769  0.1362  0.3002 -0.0332
  743POPS   PO411264  15.779  18.919   5.574  0.1934 -0.1063  0.2853
  743POPS   GL111265  16.020  18.916   5.902  0.0576 -0.0620 -0.0188
  743POPS   GL211266  16.192  18.595   5.930 -0.1472  0.0277 -0.0913
  743POPS   C1A11267  16.017  18.976   6.375 -0.2132  0.1766 -0.0002
  743POPS   D2A11268  16.111  19.197   6.550 -0.0902  0.1798  0.0710
  743POPS   C3A11269  15.849  19.101   6.928  0.0094 -0.0866 -0.1009
  743POPS   C4A11270  15.599  18.871   7.206  0.3396 -0.2834  0.2337
  743POPS   C1B11271  16.297  18.362   6.291 -0.2224 -0.1411 -0.2270
  743POPS   C2B11272  16.347  18.258   6.694 -0.0264 -0.0740  0.1872
  743POPS   C3B11273  16.458  18.253   7.045  0.0229 -0.1617  0.1037
  743POPS   C4B11274  16.554  18.082   7.494 -0.5979 -0.0058  0.1537
  744POPS   CNO11275  16.557   7.945   5.405 -0.1056 -0.2591  0.2156
  744POPS   PO411276  16.397   7.633   5.589 -0.3063  0.2394  0.2247
  744POPS   GL111277  16.478   7.739   5.921  0.0445 -0.1422  0.0535
  744POPS   GL211278  16.627   7.536   6.131 -0.1437 -0.1387 -0.0877
  744POPS   C1A11279  16.421   8.017   6.236  0.0541  0.0379  0.1827
  744POPS   D2A11280  16.617   8.257   6.553  0.1624 -0.2570 -0.0007
  744POPS   C3A11281  17.028   8.535   6.622 -0.1262  0.0311 -0.2086
  744POPS   C4A11282  17.218   8.987   6.712 -0.1665 -0.0753  0.1756
  744POPS   C1B11283  16.851   7.806   6.506  0.0309  0.3198  0.1320
  744POPS   C2B11284  16.940   7.977   6.920  0.1259 -0.0254 -0.0396
  744POPS   C3B11285  17.274   8.244   7.024  0.1674 -0.0803 -0.3387
  744POPS   C4B11286  17.536   8.484   7.253 -0.0125  0.2811  0.0145
  745POPS   CNO11287  10.258  10.464   5.023 -0.0973  0.1781  0.1358
  745POPS   PO411288  10.618  10.740   5.208  0.1189  0.3204  0.0420
  745POPS   GL111289  10.743  10.659   5.586 -0.4617 -0.0477  0.1714
  745POPS   GL211290  10.949  10.969   5.646  0.2308  0.0550 -0.0059
  745POPS   C1A11291  10.613  10.621   5.969  0.3476 -0.1278  0.0307
  745POPS   D2A11292  10.749  10.546   6.424  0.1368  0.2610  0.0431
  745POPS   C3A11293  10.711  10.492   6.902  0.0519 -0.4105 -0.2124
  745POPS   C4A11294  10.846  10.862   7.178  0.0627  0.0463  0.3412
  745POPS   C1B11295  11.139  11.135   6.028 -0.0016 -0.0715 -0.0975
  745POPS   C2B11296  11.052  10.950   6.358 -0.0394 -0.4526  0.0020
  745POPS   C3B11297  11.110  11.249   6.740  0.1873  0.0544 -0.0666
  745POPS   C4B11298  11.281  11.584   7.106 -0.1215 -0.3926 -0.1095
  746POPS   CNO11299   7.677   5.106   4.866  0.2685  0.0180 -0.0413
  746POPS   PO411300   7.310   5.047   5.245 -0.1199  0.0581 -0.0214
  746POPS   GL111301   7.192   4.833   5.646  0.1619 -0.1200  0.0680
  746POPS   GL211302   7.325   4.980   5.881 -0.0875  0.0966 -0.1931
  746POPS   C1A11303   6.890   4.624   6.042 -0.1084 -0.0074 -0.0109
  746POPS   D2A11304   7.001   4.532   6.524 -0.1047  0.2378 -0.0307
  746POPS   C3A11305   6.684   4.313   6.772 -0.0892  0.2162  0.1340
  746POPS   C4A11306   6.356   4.167   7.016  0.3686 -0.3634 -0.0597
  746POPS   C1B11307   7.254   4.899   6.303  0.3493  0.0876 -0.0212
  746POPS   C2B11308   7.109   4.953   6.701 -0.2852 -0.0847 -0.1690
  746POPS   C3B11309   7.329   5.295   6.917  0.0738 -0.1128  0.0812
  746POPS   C4B11310   7.574   5.334   7.286  0.2123  0.3248  0.1047
  747POPS   CNO11311   3.381  11.284   5.675 -0.0198 -0.4010 -0.1093
  747POPS   PO411312   3.066  11.064   5.536 -0.3117 -0.0918 -0.1653
  747POPS   GL111313   2.621  10.949   5.846  0.0303  0.1566  0.0707
  747POPS   GL211314   2.388  10.811   5.888  0.0605 -0.0612  0.0114
  747POPS   C1A11315   2.576  11.314   6.144 -0.0216 -0.0794  0.2473
  747POPS   D2A11316   2.584  11.315   6.552 -0.0132 -0.1785  0.1941
  747POPS   C3A11317   2.675  10.990   6.899 -0.1074  0.0417 -0.1040
  747POPS   C4A11318   2.524  10.668   7.139  0.1604 -0.2191 -0.0716
  747POPS   C1B11319   2.320  10.890   6.418 -0.1334 -0.1812 -0.0685
  747POPS   C2B11320   2.173  10.925   6.773  0.1177  0.1319  0.0627
  747POPS   C3B11321   2.132  11.078   7.198  0.0836  0.0429  0.0972
  747POPS   C4B11322   1.971  10.795   7.535 -0.1887  0.3129  0.3871
  748POPS   CNO11323   4.400  14.929   5.658 -0.0478 -0.3340  0.1272
  748POPS   PO411324   4.107  15.154   5.584 -0.1906 -0.4041  0.0538
  748POPS   GL111325   4.291  15.259   6.071 -0.0445  0.2944  0.3613
  748POPS   GL211326   4.407  15.071   6.205 -0.1437 -0.1118 -0.0486
  748POPS   C1A11327   4.205  15.478   6.376  0.0687 -0.2074  0.1391
  748POPS   D2A11328   4.157  15.881   6.334  0.0371  0.0948  0.0827
  748POPS   C3A11329   4.261  16.135   6.657  0.1822 -0.0546 -0.0569
  748POPS   C4A11330   4.385  16.166   7.036  0.0306 -0.1488 -0.0997
  748POPS   C1B11331   4.461  15.082   6.716 -0.0037 -0.2151  0.1327
  748POPS   C2B11332   4.285  15.208   7.126  0.4065 -0.1986  0.0627
  748POPS   C3B11333   4.420  15.473   7.490 -0.0229 -0.0780  0.0896
  748POPS   C4B11334   4.724  15.665   7.794 -0.0878  0.1263  0.0944
  749POPS   CNO11335   4.522  17.835   4.703 -0.2547  0.1073  0.2978
  749POPS   PO411336   4.592  17.549   5.035 -0.1121 -0.1695  0.1372
  749POPS   GL111337   4.438  17.637   5.404 -0.1159  0.2612  0.1842
  749POPS   GL211338   4.427  17.331   5.658  0.0522 -0.2017  0.3413
  749POPS   C1A11339   4.797  17.667   5.717 -0.0002 -0.4103 -0.0770
  749POPS   D2A11340   4.640  17.791   6.155  0.1348 -0.0502  0.1237
  749POPS   C3A11341   4.848  17.695   6.474  0.0052 -0.1823 -0.2360
  749POPS   C4A11342   5.112  17.922   6.780 -0.0189  0.1531 -0.0714
  749POPS   C1B11343   4.665  17.304   6.067  0.2648 -0.1554  0.0867
  749POPS   C2B11344   4.824  17.201   6.474  0.1323  0.0986  0.0552
  749POPS   C3B11345   5.004  17.400   6.912 -0.1389 -0.1561  0.0755
  749POPS   C4B11346   5.162  17.432   7.273 -0.2635  0.0326  0.5064
  750POPS   CNO11347   4.911   7.907   5.269  0.0747 -0.3846 -0.1137
  750POPS   PO411348   5.019   7.570   5.158 -0.0147 -0.3422 -0.0146
  750POPS   GL111349   4.585   7.544   5.390 -0.0199  0.1330  0.1119
  750POPS   GL211350   4.375   7.847   5.297 -0.1636 -0.1492  0.1369
  750POPS   C1A11351   4.390   7.587   5.707  0.1361  0.0942 -0.1733
  750POPS   D2A11352   4.116   7.613   6.064 -0.0481  0.1302 -0.0639
  750POPS   C3A11353   4.172   7.845   6.510  0.0868 -0.2761  0.1431
  750POPS   C4A11354   4.281   7.881   6.849  0.1027  0.1000 -0.3557
  750POPS   C1B11355   4.098   8.018   5.686  0.1950 -0.0677 -0.1271
  750POPS   C2B11356   3.834   7.967   5.965  0.0707 -0.2389 -0.1822
  750POPS   C3B11357   3.636   7.949   6.352 -0.1934 -0.0905 -0.1322
  750POPS   C4B11358   3.485   7.756   6.688  0.4703  0.0223  0.1187
  751POPS   CNO11359   8.984  11.707   5.765  0.0287  0.1307 -0.2080
  751POPS   PO411360   8.873  11.354   5.484 -0.0388 -0.2782  0.0230
  751POPS   GL111361   8.995  11.051   5.799 -0.0035 -0.0906  0.0383
  751POPS   GL211362   9.237  11.090   6.019  0.1762 -0.2498  0.1153
  751POPS   C1A11363   8.628  10.968   6.030  0.1540  0.3083 -0.0005
  751POPS   D2A11364   8.553  11.017   6.329 -0.0633  0.0767  0.2433
  751POPS   C3A11365   8.432  11.285   6.594 -0.2658  0.5058 -0.3103
  751POPS   C4A11366   8.357  11.685   6.870  0.0910  0.2947  0.0119
  751POPS   C1B11367   9.094  10.948   6.357 -0.0336 -0.6759  0.0355
  751POPS   C2B11368   8.777  10.865   6.754  0.1837 -0.1443 -0.1820
  751POPS   C3B11369   8.846  10.614   7.065  0.2689  0.2277 -0.0932
  751POPS   C4B11370   8.702  10.255   7.370 -0.0372  0.3165  0.0548
  752POPS   CNO11371  10.648   1.799   5.152 -0.0647 -0.2672 -0.1996
  752POPS   PO411372  10.857   2.194   5.095 -0.0639  0.2179  0.2226
  752POPS   GL111373  10.775   2.271   5.574 -0.1012  0.1623 -0.0315
  752POPS   GL211374  11.005   2.405   5.747  0.1012  0.0018  0.1889
  752POPS   C1A11375  10.493   2.253   5.953 -0.1308 -0.1597 -0.0292
  752POPS   D2A11376  10.478   2.295   6.455 -0.0267  0.0408  0.2770
  752POPS   C3A11377  10.109   2.362   6.699  0.1880 -0.0471 -0.0879
  752POPS   C4A11378   9.945   2.093   6.967 -0.1320 -0.0849 -0.1030
  752POPS   C1B11379  10.951   2.127   6.107 -0.1043 -0.0032 -0.2261
  752POPS   C2B11380  10.921   2.033   6.499 -0.0336 -0.1171 -0.1958
  752POPS   C3B11381  10.582   1.780   6.751  0.1023 -0.1123  0.0929
  752POPS   C4B11382  10.220   1.710   6.906  0.0169 -0.0544 -0.2349
  753POPS   CNO11383   5.851   8.961   5.295  0.1966  0.0186 -0.0997
  753POPS   PO411384   6.251   9.227   5.219 -0.0928  0.1925  0.2018
  753POPS   GL111385   6.039   9.206   5.667 -0.2522 -0.2037 -0.2074
  753POPS   GL211386   5.926   9.562   5.679 -0.0685  0.1061 -0.4099
  753POPS   C1A11387   5.798   9.176   6.085  0.1888  0.0145 -0.0103
  753POPS   D2A11388   5.469   9.160   6.456 -0.1297 -0.3963 -0.3758
  753POPS   C3A11389   5.303   8.891   6.673 -0.1163 -0.2046 -0.0161
  753POPS   C4A11390   5.327   8.448   6.942 -0.0489  0.0729  0.0415
  753POPS   C1B11391   6.002   9.665   6.054 -0.1622 -0.3665  0.0520
  753POPS   C2B11392   5.919   9.607   6.453  0.3108 -0.3076 -0.2184
  753POPS   C3B11393   6.204   9.618   6.793 -0.4547 -0.0559 -0.0132
  753POPS   C4B11394   6.231   9.711   7.179 -0.0696 -0.1328 -0.2081
  754POPS   CNO11395   3.531   4.749   4.731  0.2057  0.0978  0.1744
  754POPS   PO411396   3.719   4.621   5.175 -0.0784  0.1765  0.0426
  754POPS   GL111397   3.870   4.751   5.519 -0.1109  0.2146  0.1070
  754POPS   GL211398   4.067   4.487   5.622 -0.0755  0.0166  0.4341
  754POPS   C1A11399   3.885   4.994   5.784  0.0009 -0.3323 -0.0243
  754POPS   D2A11400   3.902   5.301   6.089 -0.1299 -0.3886  0.0614
  754POPS   C3A11401   3.712   5.314   6.507 -0.4557  0.1651 -0.0405
  754POPS   C4A11402   3.864   5.292   6.996 -0.0394  0.1368 -0.0118
  754POPS   C1B11403   3.919   4.113   5.822  0.0053  0.3148  0.0099
  754POPS   C2B11404   3.680   3.861   6.238  0.2099 -0.0540 -0.0536
  754POPS   C3B11405   3.486   3.990   6.586  0.4076 -0.0515 -0.0133
  754POPS   C4B11406   3.448   3.964   6.997  0.0330 -0.0720 -0.0472
  755POPS   CNO11407   1.352  17.631   5.237  0.0039 -0.3096  0.1635
  755POPS   PO411408   1.258  17.796   5.705 -0.1416  0.0862  0.0962
  755POPS   GL111409   1.181  17.667   6.124 -0.2765 -0.2527 -0.0616
  755POPS   GL211410   1.201  17.802   6.458 -0.0976 -0.0501 -0.4007
  755POPS   C1A11411   1.057  17.342   6.389 -0.0492  0.1296 -0.0027
  755POPS   D2A11412   1.374  17.031   6.640  0.3946  0.1479 -0.1875
  755POPS   C3A11413   1.715  16.935   6.781  0.2137 -0.1698 -0.1053
  755POPS   C4A11414   1.887  16.595   6.943 -0.1672 -0.0462  0.0323
  755POPS   C1B11415   1.210  17.560   6.869  0.3642  0.2457 -0.1582
  755POPS   C2B11416   1.561  17.351   7.224 -0.2479 -0.1773 -0.0316
  755POPS   C3B11417   1.699  17.715   7.564 -0.1556  0.0263  0.0031
  755POPS   C4B11418   1.793  17.587   7.919  0.0195  0.2864  0.2034
  756POPS   CNO11419  13.820  19.178   5.510 -0.2136 -0.1966 -0.5624
  756POPS   PO411420  13.536  18.896   5.601  0.2101 -0.0896 -0.0649
  756POPS   GL111421  13.773  19.005   6.013 -0.2522  0.1108 -0.0838
  756POPS   GL211422  13.904  18.775   5.973  0.1246  0.3029  0.2369
  756POPS   C1A11423  13.694  19.069   6.373 -0.2943 -0.0044 -0.1285
  756POPS   D2A11424  13.564  19.361   6.673  0.1591 -0.0992 -0.1376
  756POPS   C3A11425  13.570  19.844   6.710 -0.0258 -0.0565  0.1523
  756POPS   C4A11426  13.486  20.178   6.593  0.2548  0.0069  0.1782
  756POPS   C1B11427  13.875  18.507   6.330  0.1281 -0.0966 -0.1226
  756POPS   C2B11428  13.927  18.429   6.820 -0.7080  0.1824 -0.1037
  756POPS   C3B11429  13.759  18.455   7.165  0.2653  0.2266  0.0124
  756POPS   C4B11430  13.772  18.341   7.533  0.0397  0.0536  0.1568
  757POPS   CNO11431  14.179   1.266   5.035  0.1390  0.1668  0.0754
  757POPS   PO411432  14.048   1.402   5.442 -0.0083  0.1317 -0.1474
  757POPS   GL111433  14.035   1.497   5.884  0.1879  0.1737  0.0937
  757POPS   GL211434  13.805   1.653   5.894  0.0709 -0.4179  0.0783
  757POPS   C1A11435  13.791   1.379   6.281 -0.1268 -0.1224 -0.0322
  757POPS   D2A11436  13.565   1.531   6.581  0.1551 -0.1426 -0.0073
  757POPS   C3A11437  13.605   1.356   6.984 -0.0641  0.1612 -0.0464
  757POPS   C4A11438  13.397   0.992   7.158  0.0570 -0.0829 -0.0961
  757POPS   C1B11439  13.586   1.861   6.138 -0.3084 -0.1667  0.3356
  757POPS   C2B11440  13.670   2.008   6.624 -0.1431  0.0138 -0.0848
  757POPS   C3B11441  13.710   1.820   7.005 -0.0453 -0.0224 -0.0915
  757POPS   C4B11442  13.678   1.595   7.411  0.0586 -0.0282  0.1572
  758POPS   CNO11443   7.095  12.366   4.852 -0.3606  0.1417 -0.3059
  758POPS   PO411444   7.211  12.334   5.312 -0.1999  0.2090 -0.0095
  758POPS   GL111445   7.183  11.972   5.549 -0.1739 -0.0883  0.1772
  758POPS   GL211446   7.174  12.124   5.859 -0.0568 -0.2945 -0.0413
  758POPS   C1A11447   7.414  11.692   5.854  0.1923 -0.1182 -0.0482
  758POPS   D2A11448   7.307  11.363   6.104 -0.1322 -0.0930  0.0458
  758POPS   C3A11449   7.325  11.445   6.572 -0.0370  0.2335 -0.1067
  758POPS   C4A11450   7.560  11.726   6.896  0.1249 -0.0250 -0.2368
  758POPS   C1B11451   6.887  12.257   6.175 -0.1228  0.0814  0.1235
  758POPS   C2B11452   6.805  11.988   6.468  0.1400 -0.3294 -0.1055
  758POPS   C3B11453   6.940  11.695   6.777  0.2032  0.4534  0.2622
  758POPS   C4B11454   7.193  11.746   7.209 -0.0770  0.0435 -0.1064
  759POPS   CNO11455   7.787  17.958   5.069 -0.0747  0.3541 -0.1508
  759POPS   PO411456   8.188  18.255   5.009  0.0567 -0.2093 -0.1546
  759POPS   GL111457   8.047  18.200   5.428 -0.1575  0.0576 -0.1419
  759POPS   GL211458   8.077  17.849   5.500 -0.1284 -0.0222  0.1257
  759POPS   C1A11459   8.009  18.242   5.848 -0.3137 -0.1423  0.0035
  759POPS   D2A11460   7.666  18.216   6.099  0.1795 -0.1201 -0.2468
  759POPS   C3A11461   7.498  18.569   6.459  0.0633  0.3195 -0.4216
  759POPS   C4A11462   7.291  18.823   6.703  0.0970  0.2515 -0.0350
  759POPS   C1B11463   7.875  17.753   5.898  0.0720 -0.1416 -0.2629
  759POPS   C2B11464   7.436  17.696   5.986 -0.0076 -0.0693  0.1079
  759POPS   C3B11465   7.120  17.581   5.868  0.1165 -0.1407  0.1028
  759POPS   C4B11466   6.904  17.242   5.788 -0.0324 -0.0267  0.1245
  760POPS   CNO11467   1.876  12.205   5.362 -0.1305  0.1177 -0.3227
  760POPS   PO411468   2.210  12.454   5.557 -0.2521 -0.1315 -0.1365
  760POPS   GL111469   2.122  12.811   5.898 -0.2543  0.0123  0.0611
  760POPS   GL211470   2.545  12.936   6.085 -0.2264  0.0338 -0.2399
  760POPS   C1A11471   1.691  12.883   6.000 -0.0172  0.0800  0.0119
  760POPS   D2A11472   1.303  13.062   6.277  0.1076  0.0690  0.0085
  760POPS   C3A11473   0.833  12.949   6.237  0.0496 -0.1256  0.0073
  760POPS   C4A11474   0.473  12.654   6.341 -0.0800  0.0122 -0.4777
  760POPS   C1B11475   2.477  13.133   6.481 -0.1966 -0.0470  0.1152
  760POPS   C2B11476   2.318  13.115   6.940  0.1006  0.1365 -0.2690
  760POPS   C3B11477   2.300  13.294   7.269  0.0262 -0.0183  0.1138
  760POPS   C4B11478   2.276  13.345   7.711 -0.3909  0.0019 -0.3279
  761POPS   CNO11479  11.173   3.812   5.431  0.0806 -0.0174  0.1036
  761POPS   PO411480  11.044   3.908   5.809  0.1788 -0.2760 -0.0701
  761POPS   GL111481  11.366   4.004   6.116 -0.1796  0.0435  0.4718
  761POPS   GL211482  11.056   4.082   6.302  0.0775  0.0907  0.0632
  761POPS   C1A11483  11.514   3.838   6.489  0.1805  0.1370  0.1775
  761POPS   D2A11484  11.259   3.681   6.895  0.0865  0.0272  0.2771
  761POPS   C3A11485  10.868   3.950   6.947 -0.2175  0.2113  0.1386
  761POPS   C4A11486  10.649   4.355   6.781  0.0538  0.2936 -0.1721
  761POPS   C1B11487  11.223   4.258   6.709 -0.2587 -0.1129 -0.1887
  761POPS   C2B11488  11.006   4.394   7.123  0.0326 -0.4502 -0.5375
  761POPS   C3B11489  10.646   4.392   7.379  0.0820 -0.2965 -0.2210
  761POPS   C4B11490  10.231   4.399   7.539 -0.0864  0.1134  0.3046
  762POPS   CNO11491  14.176  12.863   5.412  0.1328 -0.3235  0.0055
  762POPS   PO411492  13.856  12.718   5.634 -0.1452  0.3093 -0.0474
  762POPS   GL111493  14.052  12.835   6.064  0.0880  0.1964 -0.2052
  762POPS   GL211494  14.383  12.671   6.015 -0.1208  0.2184 -0.1268
  762POPS   C1A11495  14.048  12.737   6.499  0.2105  0.0158  0.1861
  762POPS   D2A11496  14.302  12.653   6.886 -0.0333  0.2799 -0.1328
  762POPS   C3A11497  14.426  12.326   7.074  0.1196 -0.2410  0.0258
  762POPS   C4A11498  14.607  12.018   7.354  0.0764 -0.1881  0.0696
  762POPS   C1B11499  14.491  12.366   6.323 -0.0885  0.0962 -0.2591
  762POPS   C2B11500  14.292  12.123   6.628  0.0998 -0.1683  0.0873
  762POPS   C3B11501  14.212  11.836   6.957 -0.1761  0.1399  0.5189
  762POPS   C4B11502  14.269  11.641   7.440 -0.0545 -0.2620  0.3835
  763POPS   CNO11503   4.619  11.333   5.364 -0.0084 -0.1242 -0.3080
  763POPS   PO411504   4.592  11.313   5.776 -0.0191  0.1410  0.2070
  763POPS   GL111505   4.583  11.173   6.128  0.0814  0.0519 -0.1010
  763POPS   GL211506   4.503  11.346   6.370 -0.3675  0.3633 -0.2712
  763POPS   C1A11507   4.895  11.120   6.594 -0.1208 -0.1646  0.2121
  763POPS   D2A11508   4.720  11.073   7.027 -0.1589  0.1587 -0.2922
  763POPS   C3A11509   4.290  11.158   6.945  0.0412  0.0675 -0.3192
  763POPS   C4A11510   4.181  11.321   7.347 -0.0554  0.0558  0.0976
  763POPS   C1B11511   4.615  11.537   6.764 -0.0619  0.4938  0.0923
  763POPS   C2B11512   4.419  11.729   7.056  0.0318  0.3576 -0.1092
  763POPS   C3B11513   4.589  11.800   7.514  0.3858 -0.0841 -0.1176
  763POPS   C4B11514   5.033  11.775   7.671  0.2848  0.2484  0.0658
  764POPS   CNO11515   7.939  10.493   5.244 -0.1222  0.2617  0.0834
  764POPS   PO411516   8.327  10.538   5.293 -0.0819  0.1510 -0.1343
  764POPS   GL111517   8.481  10.387   5.713 -0.0456 -0.2606 -0.0961
  764POPS   GL211518   8.684  10.233   5.588  0.2059  0.2401  0.0045
  764POPS   C1A11519   8.587  10.465   6.079 -0.1414  0.0849  0.2485
  764POPS   D2A11520   8.601  10.539   6.412  0.0720 -0.0646 -0.1450
  764POPS   C3A11521   9.078  10.442   6.551 -0.2853 -0.1724 -0.1326
  764POPS   C4A11522   9.343  10.195   6.455  0.2327 -0.2290  0.2407
  764POPS   C1B11523   9.067  10.103   5.683 -0.0592 -0.3485 -0.0392
  764POPS   C2B11524   9.429   9.948   5.837 -0.2544 -0.0617  0.0355
  764POPS   C3B11525   9.718  10.014   6.130 -0.1013  0.0572 -0.1372
  764POPS   C4B11526   9.954  10.181   6.455 -0.0050  0.0328  0.0377
  765POPS   CNO11527   6.322  11.426   5.060 -0.2666 -0.4080  0.2129
  765POPS   PO411528   6.448  11.031   5.273 -0.0323 -0.0319  0.1611
  765POPS   GL111529   6.512  11.076   5.691  0.0863 -0.1971 -0.1989
  765POPS   GL211530   6.791  11.176   5.780  0.3760  0.0887 -0.0368
  765POPS   C1A11531   6.446  10.754   6.048  0.0895  0.2994 -0.0284
  765POPS   D2A11532   6.745  10.595   6.334  0.0643 -0.1310 -0.3355
  765POPS   C3A11533   6.883  10.697   6.817  0.4817  0.2853  0.0142
  765POPS   C4A11534   6.912  10.241   6.992  0.1501  0.1054  0.1114
  765POPS   C1B11535   6.817  11.079   6.204  0.0043  0.3206  0.0721
  765POPS   C2B11536   6.936  11.170   6.658 -0.2384 -0.0224  0.3370
  765POPS   C3B11537   6.655  11.112   7.083 -0.1182  0.0918  0.1892
  765POPS   C4B11538   6.565  10.749   7.223 -0.1720 -0.1854 -0.1986
  766POPS   CNO11539  18.970   6.287   5.923  0.1724  0.1065 -0.1198
  766POPS   PO411540  19.061   6.041   5.678  0.1907 -0.1757 -0.1817
  766POPS   GL111541  19.128   5.684   5.911 -0.1552  0.1750 -0.1051
  766POPS   GL211542  19.143   5.321   5.812  0.1895 -0.0054  0.1344
  766POPS   C1A11543  19.001   5.544   6.334 -0.4131 -0.2177 -0.2356
  766POPS   D2A11544  18.742   5.624   6.610  0.1037  0.0162  0.0135
  766POPS   C3A11545  18.668   5.705   7.086  0.1926  0.1073  0.1131
  766POPS   C4A11546  18.759   5.409   7.438 -0.2684  0.1291  0.0361
  766POPS   C1B11547  19.457   5.314   6.087  0.1049  0.3316 -0.2202
  766POPS   C2B11548  19.791   5.311   6.321 -0.3363 -0.2341  0.2832
  766POPS   C3B11549  20.070   5.334   6.523  0.0982 -0.2684 -0.3046
  766POPS   C4B11550  20.063   5.304   7.017 -0.2298 -0.0233 -0.0669
  767POPS   CNO11551  14.242   3.745   5.788 -0.1179 -0.2713  0.1805
  767POPS   PO411552  13.966   4.138   5.976 -0.0954 -0.0495  0.1813
  767POPS   GL111553  14.080   3.909   6.328 -0.2425  0.3058  0.1293
  767POPS   GL211554  13.762   3.979   6.478 -0.2282  0.1246  0.1079
  767POPS   C1A11555  14.311   3.844   6.657 -0.0370  0.0157 -0.1547
  767POPS   D2A11556  14.052   3.732   6.910  0.2609 -0.2929 -0.3726
  767POPS   C3A11557  13.915   3.449   7.232 -0.3353 -0.2858 -0.0820
  767POPS   C4A11558  13.677   3.169   7.420  0.1622 -0.0970  0.0596
  767POPS   C1B11559  13.550   4.166   6.915  0.1802  0.1104  0.0941
  767POPS   C2B11560  13.575   4.305   7.349  0.1290  0.1750 -0.4394
  767POPS   C3B11561  13.563   4.344   7.794 -0.3602 -0.0056  0.2683
  767POPS   C4B11562  13.445   4.763   8.012  0.1744  0.3858 -0.4049
  768POPS   CNO11563   3.349   2.302   5.321  0.2709 -0.1919  0.0888
  768POPS   PO411564   3.204   1.803   5.463 -0.2701  0.0080  0.1818
  768POPS   GL111565   3.255   1.697   5.879  0.0235 -0.2726 -0.2127
  768POPS   GL211566   3.570   1.582   5.917  0.1249 -0.1213  0.2490
  768POPS   C1A11567   3.255   1.811   6.282 -0.0657 -0.2862 -0.0935
  768POPS   D2A11568   3.340   1.833   6.712 -0.0374  0.0273  0.0720
  768POPS   C3A11569   3.097   1.853   7.047  0.4469 -0.2665  0.0313
  768POPS   C4A11570   3.257   1.460   7.459  0.1098 -0.2532 -0.2535
  768POPS   C1B11571   3.552   1.443   6.363  0.3320 -0.2536  0.1382
  768POPS   C2B11572   3.719   1.081   6.598 -0.3200  0.3864  0.0187
  768POPS   C3B11573   3.970   0.783   6.817  0.0870  0.2367  0.1894
  768POPS   C4B11574   4.204   1.016   7.155 -0.5780 -0.3229  0.2081
  769POPS   CNO11575   7.733   3.811   5.280 -0.1011 -0.0213 -0.0037
  769POPS   PO411576   8.124   3.764   5.231 -0.2335 -0.4218 -0.0687
  769POPS   GL111577   8.237   3.819   5.681 -0.0755  0.0233  0.1101
  769POPS   GL211578   8.433   3.745   5.873 -0.0505  0.1244  0.0147
  769POPS   C1A11579   7.975   3.997   5.930 -0.2584  0.0689 -0.1215
  769POPS   D2A11580   7.938   4.239   6.284  0.0176 -0.0621  0.0085
  769POPS   C3A11581   7.894   4.302   6.723 -0.2265 -0.0540  0.1701
  769POPS   C4A11582   7.733   4.359   7.085 -0.3443 -0.2396 -0.2896
  769POPS   C1B11583   8.367   3.869   6.285  0.2398  0.2664  0.1000
  769POPS   C2B11584   8.257   3.822   6.705 -0.0053 -0.1306  0.0367
  769POPS   C3B11585   7.828   3.804   6.844 -0.2023 -0.0121 -0.2005
  769POPS   C4B11586   7.587   3.526   6.689  0.1149  0.3035  0.1440
  770POPS   CNO11587   6.343  15.021   5.214  0.1697 -0.1570 -0.2738
  770POPS   PO411588   6.467  15.468   5.224 -0.1206 -0.2024  0.2219
  770POPS   GL111589   6.451  15.825   5.582  0.0144 -0.0422 -0.1900
  770POPS   GL211590   6.867  15.898   5.666  0.0084 -0.1747 -0.0621
  770POPS   C1A11591   6.362  15.927   6.012  0.0327 -0.1228 -0.0990
  770POPS   D2A11592   6.663  16.134   6.143  0.0449  0.1842  0.2873
  770POPS   C3A11593   6.784  16.386   6.490 -0.0679 -0.0953 -0.1186
  770POPS   C4A11594   6.861  16.905   6.395 -0.0165  0.1326  0.0328
  770POPS   C1B11595   7.082  15.884   5.997 -0.1010 -0.0197  0.3249
  770POPS   C2B11596   7.121  16.020   6.437 -0.1820 -0.0236  0.0500
  770POPS   C3B11597   7.340  16.294   6.744  0.0697 -0.0960 -0.0829
  770POPS   C4B11598   7.341  16.649   6.891 -0.1539 -0.1599  0.2450
  771YOPS   CNO11599   7.741   0.020   4.696 -0.2947 -0.1942  0.3956
  771YOPS   PO411600   7.738  -0.339   4.917  0.2311  0.1224 -0.0537
  771YOPS   GL111601   7.756  -0.268   5.413 -0.1496  0.2724 -0.3533
  771YOPS   GL211602   7.465  -0.441   5.522  0.0066  0.2644 -0.1554
  771YOPS   C1A11603   7.766   0.061   5.837 -0.1044 -0.0371 -0.1544
  771YOPS   D2A11604   7.653   0.321   6.168 -0.1731 -0.0534 -0.0844
  771YOPS   C3A11605   7.764   0.499   6.569  0.1657 -0.1607  0.0775
  771YOPS   C4A11606   8.090   0.328   6.776  0.1987  0.2179 -0.0166
  771YOPS   C1B11607   7.346  -0.230   5.801  0.1505 -0.1092  0.0139
  771YOPS   C2B11608   7.445  -0.143   6.159  0.1275 -0.0456 -0.1295
  771YOPS   D3B11609   7.474   0.073   6.549 -0.2443 -0.0566  0.2225
  771YOPS   C4B11610   7.799  -0.088   6.845  0.0199 -0.0883 -0.1658
  772YOPS   CNO11611   2.704   1.093   5.318 -0.0453  0.1362  0.1462
  772YOPS   PO411612   2.495   1.417   5.530 -0.2274  0.2143 -0.0441
  772YOPS   GL111613   2.261   1.606   5.806 -0.0261 -0.4066  0.1344
  772YOPS   GL211614   2.249   1.921   5.613 -0.2498  0.0617  0.1445
  772YOPS   C1A11615   2.332   1.703   6.211  0.1186 -0.1951  0.0850
  772YOPS   D2A11616   2.662   1.722   6.328 -0.1539 -0.0133  0.1970
  772YOPS   C3A11617   2.818   2.077   6.679 -0.0025 -0.0680  0.1224
  772YOPS   C4A11618   2.556   2.135   6.998 -0.1044 -0.0534  0.3932
  772YOPS   C1B11619   1.830   1.872   5.802 -0.0474  0.3505  0.1034
  772YOPS   C2B11620   1.745   1.549   6.128 -0.1568 -0.1361 -0.1787
  772YOPS   D3B11621   1.860   1.339   6.405  0.0189 -0.1740  0.0578
  772YOPS   C4B11622   1.940   1.396   6.915  0.0066 -0.1206 -0.2711
  773YOPS   CNO11623  14.006  10.696   5.566  0.1405 -0.1655  0.0212
  773YOPS   PO411624  13.832  11.065   5.451  0.0333 -0.0585  0.2191
  773YOPS   GL111625  14.016  11.134   5.833  0.0006  0.2862  0.4558
  773YOPS   GL211626  13.898  11.413   5.955  0.1659  0.0285 -0.0064
  773YOPS   C1A11627  14.339  11.163   5.935  0.1229 -0.1222  0.0675
  773YOPS   D2A11628  14.464  11.427   6.258  0.0225 -0.3325 -0.1587
  773YOPS   C3A11629  14.275  11.627   6.480 -0.0188  0.2100  0.1386
  773YOPS   C4A11630  13.870  11.820   6.459 -0.3211 -0.1701 -0.1372
  773YOPS   C1B11631  13.537  11.470   6.291 -0.1231 -0.2061  0.2825
  773YOPS   C2B11632  13.242  11.225   6.397  0.2399 -0.0517 -0.0024
  773YOPS   D3B11633  13.046  10.993   6.758 -0.0848  0.2775  0.0143
  773YOPS   C4B11634  13.029  11.099   7.171  0.0821  0.1506 -0.0634
  774YOPS   CNO11635  13.283   1.628   5.230  0.3401 -0.0738  0.0451
  774YOPS   PO411636  13.386   1.319   5.400 -0.0000  0.1206 -0.0623
  774YOPS   GL111637  13.522   1.262   5.768  0.0110  0.4487 -0.2814
  774YOPS   GL211638  13.568   0.958   6.012  0.2069  0.1313  0.0403
  774YOPS   C1A11639  13.316   1.409   6.109 -0.0928  0.1949 -0.2759
  774YOPS   D2A11640  12.846   1.511   6.166 -0.1020 -0.0327  0.0464
  774YOPS   C3A11641  12.528   1.786   6.371  0.0143 -0.1169 -0.3689
  774YOPS   C4A11642  12.202   1.548   6.365  0.1511 -0.1770  0.1216
  774YOPS   C1B11643  13.727   0.732   6.273 -0.2239  0.1369 -0.0010
  774YOPS   C2B11644  14.034   0.751   6.486  0.0154 -0.1348 -0.0295
  774YOPS   D3B11645  13.936   1.062   6.763 -0.2391  0.0213  0.0639
  774YOPS   C4B11646  14.017   1.220   7.224  0.1238  0.1523  0.0211
  775YOPS   CNO11647   9.546  10.776   4.832  0.1065  0.2343  0.0616
  775YOPS   PO411648   9.868  10.821   5.094  0.0087  0.1300 -0.1525
  775YOPS   GL111649   9.570  10.794   5.351 -0.1518 -0.3570  0.1043
  775YOPS   GL211650   9.653  10.981   5.598 -0.2705  0.0712  0.0445
  775YOPS   C1A11651   9.203  10.606   5.689  0.1446 -0.0322  0.0283
  775YOPS   D2A11652   9.110  10.507   6.083 -0.1999 -0.0245 -0.2946
  775YOPS   C3A11653   8.958  10.070   6.169 -0.3515  0.3060  0.2015
  775YOPS   C4A11654   8.601  10.005   6.379  0.0063 -0.1099 -0.2050
  775YOPS   C1B11655   9.687  11.257   5.881 -0.0473  0.0754 -0.1293
  775YOPS   C2B11656   9.773  11.182   6.286  0.1651  0.1112 -0.4443
  775YOPS   D3B11657   9.717  11.097   6.715  0.0520 -0.2041  0.2951
  775YOPS   C4B11658   9.252  11.038   6.820 -0.1560  0.1493 -0.0242
  776YOPS   CNO11659   2.855   0.237   5.141  0.0306 -0.1677  0.1448
  776YOPS   PO411660   2.736   0.504   5.539 -0.1184 -0.0093 -0.0603
  776YOPS   GL111661   2.802   0.554   5.870  0.2154 -0.1043 -0.0076
  776YOPS   GL211662   2.704   0.228   6.078 -0.1683  0.5241 -0.0659
  776YOPS   C1A11663   2.895   0.813   6.330 -0.4624  0.0576  0.1002
  776YOPS   D2A11664   2.744   0.993   6.761  0.3885 -0.1009  0.1360
  776YOPS   C3A11665   2.656   0.747   7.084 -0.2849 -0.0963  0.0594
  776YOPS   C4A11666   2.545   0.820   7.447  0.1002 -0.1146 -0.1797
  776YOPS   C1B11667   2.784   0.144   6.515 -0.1492 -0.0189 -0.0852
  776YOPS   C2B11668   2.500   0.256   6.891 -0.1574 -0.0311 -0.0332
  776YOPS   D3B11669   2.260   0.279   7.135 -0.0627 -0.1057 -0.1862
  776YOPS   C4B11670   2.051   0.697   7.373  0.0936  0.1584 -0.2329
  777YOPS   CNO11671  15.254  11.191   5.198 -0.1902  0.0534  0.0420
  777YOPS   PO411672  15.662  10.877   5.394 -0.2257 -0.2315  0.1309
  777YOPS   GL111673  15.299  10.806   5.708 -0.1272 -0.2336  0.0565
  777YOPS   GL211674  15.234  10.523   5.798 -0.2961  0.0891  0.0698
  777YOPS   C1A11675  15.324  11.089   6.026  0.1239 -0.1467 -0.0698
  777YOPS   D2A11676  15.517  11.284   6.460  0.2235  0.3925 -0.1300
  777YOPS   C3A11677  15.354  11.022   6.822  0.1701  0.0719 -0.2983
  777YOPS   C4A11678  15.552  10.725   7.189 -0.2399 -0.0975 -0.1308
  777YOPS   C1B11679  15.484  10.133   5.942  0.0135 -0.0640  0.0500
  777YOPS   C2B11680  15.835  10.069   6.016 -0.1971 -0.2141  0.0807
  777YOPS   D3B11681  16.199  10.034   6.268 -0.0828  0.1483  0.0849
  777YOPS   C4B11682  16.275  10.264   6.671 -0.0110  0.2513 -0.2215
  778YOPS   CNO11683   9.485   6.634   5.216 -0.4987  0.0073  0.0377
  778YOPS   PO411684   9.155   6.776   5.059 -0.0346  0.0636  0.2654
  778YOPS   GL111685   9.025   6.767   5.329  0.1788 -0.2543 -0.2887
  778YOPS   GL211686   9.125   6.582   5.631 -0.1149 -0.0653 -0.1579
  778YOPS   C1A11687   8.742   6.812   5.696  0.1537 -0.0085  0.0510
  778YOPS   D2A11688   8.830   6.971   6.166  0.0475 -0.2320  0.2116
  778YOPS   C3A11689   9.007   7.080   6.477 -0.2305  0.0475  0.0899
  778YOPS   C4A11690   8.827   6.953   6.732  0.1560  0.1820 -0.3372
  778YOPS   C1B11691   9.024   6.455   6.113 -0.0415  0.4410  0.2909
  778YOPS   C2B11692   9.098   6.586   6.533  0.1428  0.0744  0.0533
  778YOPS   D3B11693   9.395   6.823   6.733  0.2645 -0.0759  0.0923
  778YOPS   C4B11694   9.434   6.782   7.109 -0.2619  0.0208 -0.2017
  779YOPS   CNO11695  16.677   3.684   5.242  0.0896  0.1159  0.1385
  779YOPS   PO411696  16.747   3.530   5.713  0.1692 -0.0752  0.3808
  779YOPS   GL111697  16.865   3.426   6.098 -0.0689  0.2273  0.1556
  779YOPS   GL211698  17.119   3.654   6.136 -0.1351  0.0026  0.1651
  779YOPS   C1A11699  16.653   3.308   6.398  0.1513  0.1020 -0.2788
  779YOPS   D2A11700  16.523   3.548   6.806 -0.1095 -0.0089  0.1293
  779YOPS   C3A11701  16.687   3.541   7.151  0.0054 -0.0846  0.0034
  779YOPS   C4A11702  16.457   3.348   7.478  0.2577  0.3045 -0.2819
  779YOPS   C1B11703  17.399   3.605   6.453  0.3329  0.2132  0.0872
  779YOPS   C2B11704  17.694   3.247   6.414 -0.0332 -0.2132  0.0357
  779YOPS   D3B11705  17.928   2.922   6.625  0.2812 -0.3294 -0.1845
  779YOPS   C4B11706  18.079   2.594   6.485  0.1690 -0.2711  0.2694
  780YOPS   CNO11707  16.566  16.583   5.001  0.1116 -0.0587 -0.1761
  780YOPS   PO411708  16.479  16.581   5.355 -0.2813 -0.2147  0.0806
  780YOPS   GL111709  16.584  16.547   5.842  0.1032  0.5514 -0.2801
  780YOPS   GL211710  16.841  16.290   5.928 -0.2062  0.1889 -0.0583
  780YOPS   C1A11711  16.543  16.675   6.239 -0.0690 -0.0567 -0.0125
  780YOPS   D2A11712  16.506  16.685   6.694  0.1502 -0.1391 -0.2149
  780YOPS   C3A11713  16.656  16.689   7.092 -0.0056  0.0600 -0.0730
  780YOPS   C4A11714  17.035  16.831   7.095 -0.0402 -0.2649 -0.0210
  780YOPS   C1B11715  16.919  16.381   6.359 -0.0403  0.2826  0.3509
  780YOPS   C2B11716  16.963  16.372   6.753  0.1439 -0.0188 -0.1398
  780YOPS   D3B11717  17.215  16.377   7.135 -0.0460  0.3102  0.1102
  780YOPS   C4B11718  17.640  16.415   6.873  0.3024  0.1548 -0.0508
  781YOPS   CNO11719   4.212   3.954   5.493  0.0208 -0.1962 -0.0503
  781YOPS   PO411720   4.561   4.213   5.458 -0.0123  0.2658  0.2610
  781YOPS   GL111721   4.627   4.134   5.884 -0.3115 -0.2504 -0.3049
  781YOPS   GL211722   4.378   4.247   6.088  0.0962 -0.1337  0.1539
  781YOPS   C1A11723   4.695   3.752   6.193  0.3565 -0.1880 -0.1323
  781YOPS   D2A11724   4.697   3.368   6.485  0.1263 -0.0660 -0.2098
  781YOPS   C3A11725   4.842   3.310   6.843 -0.0737  0.1661 -0.0774
  781YOPS   C4A11726   4.951   3.186   7.346 -0.1348  0.0539 -0.6236
  781YOPS   C1B11727   4.078   4.643   6.094 -0.0916 -0.2262  0.1193
  781YOPS   C2B11728   3.819   4.794   6.449  0.1310 -0.3653 -0.1036
  781YOPS   D3B11729   3.517   4.622   6.699  0.0330 -0.0126  0.1664
  781YOPS   C4B11730   3.687   4.347   6.868 -0.1668 -0.1019  0.1430
  782YOPS   CNO11731  11.067   5.165   5.592 -0.0334 -0.1427  0.0126
  782YOPS   PO411732  11.389   4.806   5.454 -0.0313  0.1589 -0.1052
  782YOPS   GL111733  11.580   5.026   5.878 -0.0482 -0.1849 -0.3580
  782YOPS   GL211734  11.665   4.733   5.985  0.3066  0.0195  0.0955
  782YOPS   C1A11735  11.593   5.182   6.301 -0.1440 -0.1158 -0.1699
  782YOPS   D2A11736  11.546   5.357   6.695 -0.0628  0.1912 -0.0587
  782YOPS   C3A11737  11.889   5.462   6.982  0.2870  0.0083 -0.1527
  782YOPS   C4A11738  11.905   5.828   7.232  0.2590  0.1054  0.0229
  782YOPS   C1B11739  11.887   4.747   6.359  0.0310  0.1297 -0.3312
  782YOPS   C2B11740  11.809   4.914   6.842 -0.0309 -0.1396 -0.2476
  782YOPS   D3B11741  11.943   4.613   7.158 -0.1877  0.0477  0.0713
  782YOPS   C4B11742  12.056   4.279   7.273 -0.2066  0.1543 -0.1038
  783YOPS   CNO11743  15.695   6.532   6.059 -0.1585 -0.2146 -0.0323
  783YOPS   PO411744  15.476   6.221   6.147  0.3704 -0.0950 -0.0833
  783YOPS   GL111745  15.474   5.958   6.590 -0.0837 -0.2865 -0.1167
  783YOPS   GL211746  15.519   5.769   6.833 -0.0617 -0.0256  0.2327
  783YOPS   C1A11747  15.823   6.126   6.864  0.2583  0.2821  0.1888
  783YOPS   D2A11748  15.797   6.111   7.247  0.1049 -0.0485 -0.1211
  783YOPS   C3A11749  15.412   6.166   7.294  0.0943 -0.1816  0.0792
  783YOPS   C4A11750  15.281   6.615   7.513 -0.3402  0.1849  0.1551
  783YOPS   C1B11751  15.541   5.685   7.277 -0.1809 -0.2958  0.0682
  783YOPS   C2B11752  15.434   5.691   7.780  0.3525 -0.0590  0.1246
  783YOPS   D3B11753  15.087   5.533   8.031  0.0343  0.0142  0.2626
  783YOPS   C4B11754  15.001   5.522   8.517  0.0116  0.1961 -0.1564
  784YOPS   CNO11755  12.088  17.022   5.574  0.0202 -0.2526 -0.0098
  784YOPS   PO411756  11.806  16.692   5.461  0.2642 -0.2765 -0.0905
  784YOPS   GL111757  11.457  16.795   5.704  0.4361 -0.0576  0.1323
  784YOPS   GL211758  11.204  16.602   5.614  0.4223  0.1762 -0.1481
  784YOPS   C1A11759  11.505  16.522   6.028  0.2347  0.2784  0.1448
  784YOPS   D2A11760  11.402  16.362   6.411 -0.0514 -0.1622 -0.1092
  784YOPS   C3A11761  11.501  16.474   6.768  0.1070 -0.0276 -0.0051
  784YOPS   C4A11762  11.293  16.760   6.934 -0.3350 -0.1484 -0.0269
  784YOPS   C1B11763  11.026  16.458   6.004  0.0950 -0.0195 -0.2685
  784YOPS   C2B11764  10.997  16.129   6.423  0.1655 -0.0095  0.2622
  784YOPS   D3B11765  11.025  16.316   6.870 -0.1970 -0.0634  0.2492
  784YOPS   C4B11766  10.801  16.279   7.248 -0.0549  0.1741  0.0181
  785YOPS   CNO11767   2.623   8.502   4.929  0.2589  0.0266 -0.1045
  785YOPS   PO411768   2.894   8.824   5.169  0.3823  0.2351  0.0506
  785YOPS   GL111769   2.728   8.900   5.621 -0.1400 -0.0693 -0.0327
  785YOPS   GL211770   2.948   9.127   5.732 -0.1273 -0.0099  0.0649
  785YOPS   C1A11771   2.556   8.958   6.057  0.4947  0.1225  0.0051
  785YOPS   D2A11772   2.669   8.942   6.408  0.0596 -0.2206  0.1373
  785YOPS   C3A11773   2.755   8.905   6.821 -0.0304 -0.1206  0.3334
  785YOPS   C4A11774   2.802   8.737   7.243  0.1271  0.0800 -0.1686
  785YOPS   C1B11775   3.043   8.674   5.986 -0.0651  0.4068  0.2651
  785YOPS   C2B11776   2.724   8.453   6.270 -0.0903 -0.0451 -0.1510
  785YOPS   D3B11777   2.594   8.245   6.646 -0.4781 -0.1433  0.0058
  785YOPS   C4B11778   2.540   8.392   7.067 -0.0082  0.0386  0.0318
  786YOPS   CNO11779   6.422   6.443   5.509 -0.1487  0.0578  0.2603
  786YOPS   PO411780   6.483   6.035   5.343  0.3777 -0.0325  0.0646
  786YOPS   GL111781   6.575   6.020   5.809 -0.0272 -0.0907 -0.1527
  786YOPS   GL211782   6.925   5.927   5.908  0.0804  0.2760 -0.0768
  786YOPS   C1A11783   6.407   6.409   5.966  0.2208 -0.3321 -0.0496
  786YOPS   D2A11784   6.107   6.532   6.247  0.0153 -0.1269 -0.4085
  786YOPS   C3A11785   6.188   6.375   6.702  0.2325 -0.1701 -0.3098
  786YOPS   C4A11786   5.897   6.466   6.928 -0.2234 -0.1756  0.1235
  786YOPS   C1B11787   6.800   5.847   6.298  0.3203 -0.4680  0.2656
  786YOPS   C2B11788   7.093   6.157   6.490  0.0831  0.3465  0.1339
  786YOPS   D3B11789   7.214   6.608   6.553  0.1254  0.3390  0.1431
  786YOPS   C4B11790   6.964   6.904   6.502  0.1095 -0.0922  0.1795
  787YOPS   CNO11791   0.729   7.068   5.564 -0.1095  0.0367  0.2032
  787YOPS   PO411792   0.385   6.808   5.479  0.1621 -0.0208 -0.2888
  787YOPS   GL111793   0.347   6.554   5.799  0.0651  0.0600  0.2542
  787YOPS   GL211794   0.655   6.730   5.947  0.0298  0.0167 -0.2059
  787YOPS   C1A11795   0.142   6.375   6.259 -0.1506 -0.2738  0.0856
  787YOPS   D2A11796  -0.056   6.001   6.532 -0.0439 -0.1661  0.1209
  787YOPS   C3A11797  -0.123   5.930   6.959  0.1749  0.1740 -0.2313
  787YOPS   C4A11798   0.046   6.263   7.288 -0.0567  0.0015  0.1267
  787YOPS   C1B11799   0.701   6.489   6.245  0.1512  0.0089 -0.0560
  787YOPS   C2B11800   0.505   6.216   6.578  0.1754 -0.2398  0.2737
  787YOPS   D3B11801   0.319   6.130   6.947  0.0917  0.2344  0.2149
  787YOPS   C4B11802   0.561   5.824   7.202 -0.0792  0.0367 -0.1366
  788YOPS   CNO11803  14.086  15.025   5.024 -0.0552  0.2906  0.0544
  788YOPS   PO411804  14.068  14.833   5.369  0.2597  0.0648  0.0156
  788YOPS   GL111805  13.785  14.882   5.659  0.0590  0.3337  0.1896
  788YOPS   GL211806  13.900  14.884   5.988 -0.0985  0.2351 -0.2115
  788YOPS   C1A11807  13.370  14.916   5.855 -0.0985  0.0186  0.0212
  788YOPS   D2A11808  13.085  14.829   6.153  0.0712  0.2359 -0.0772
  788YOPS   C3A11809  12.902  14.431   6.317 -0.1029 -0.2708  0.0332
  788YOPS   C4A11810  12.718  14.389   6.689  0.2710  0.3131  0.2741
  788YOPS   C1B11811  13.966  14.747   6.467  0.1812 -0.1281 -0.2487
  788YOPS   C2B11812  13.717  14.788   6.867  0.2941  0.1758  0.1333
  788YOPS   D3B11813  13.449  14.478   7.029 -0.0562  0.0112  0.0122
  788YOPS   C4B11814  13.438  14.239   7.440 -0.0002 -0.1911 -0.0205
  789YOPS   CNO11815   2.393  17.286   4.963 -0.0560  0.0574  0.0254
  789YOPS   PO411816   2.778  17.410   5.279  0.0541 -0.1052 -0.1984
  789YOPS   GL111817   2.766  17.495   5.738  0.2989 -0.2518  0.2301
  789YOPS   GL211818   2.601  17.628   5.998  0.0114  0.1744  0.0458
  789YOPS   C1A11819   3.087  17.786   6.080 -0.2454 -0.1336 -0.1487
  789YOPS   D2A11820   3.323  17.846   6.418  0.0511 -0.0373 -0.2603
  789YOPS   C3A11821   3.695  17.657   6.386 -0.2754 -0.1131  0.1806
  789YOPS   C4A11822   3.910  17.525   6.834 -0.0726 -0.0167  0.1779
  789YOPS   C1B11823   2.647  17.880   6.380 -0.1548 -0.1302  0.0267
  789YOPS   C2B11824   2.964  17.710   6.752 -0.2448 -0.2664  0.2122
  789YOPS   D3B11825   3.150  17.393   6.904  0.2006 -0.0963  0.1614
  789YOPS   C4B11826   3.541  17.252   6.696 -0.2236  0.0529  0.4284
  790YOPS   CNO11827  13.996   3.397   5.484 -0.3536 -0.2174  0.2730
  790YOPS   PO411828  14.066   3.158   5.828 -0.0481 -0.0740  0.3528
  790YOPS   GL111829  13.912   3.100   6.118  0.0270  0.3275 -0.0512
  790YOPS   GL211830  13.849   3.315   6.334 -0.0594 -0.2480 -0.3436
  790YOPS   C1A11831  13.838   2.835   6.521 -0.2176  0.2438 -0.0738
  790YOPS   D2A11832  13.737   2.890   6.945  0.1951  0.3153 -0.0083
  790YOPS   C3A11833  13.714   2.610   7.492  0.3305 -0.1123  0.2556
  790YOPS   C4A11834  14.021   2.402   7.628  0.2945 -0.0160 -0.3653
  790YOPS   C1B11835  14.089   3.198   6.693 -0.2958 -0.1942  0.1780
  790YOPS   C2B11836  14.232   3.125   7.070 -0.1552  0.2024  0.0775
  790YOPS   D3B11837  14.142   2.985   7.501  0.0322  0.3395 -0.1243
  790YOPS   C4B11838  13.834   3.081   7.889 -0.1182  0.0959 -0.1080
  791YOPS   CNO11839  14.330   6.699   5.765  0.0706  0.1291 -0.2213
  791YOPS   PO411840  13.953   6.533   5.630  0.0502 -0.0967 -0.3897
  791YOPS   GL111841  13.710   6.546   6.126 -0.2875 -0.0554 -0.2040
  791YOPS   GL211842  13.569   6.920   6.252 -0.0175  0.1775 -0.2842
  791YOPS   C1A11843  13.891   6.632   6.489 -0.3197 -0.1420  0.1214
  791YOPS   D2A11844  13.808   6.738   6.997  0.0809 -0.0550  0.2963
  791YOPS   C3A11845  13.903   6.787   7.448 -0.1841  0.0267 -0.0787
  791YOPS   C4A11846  13.975   7.223   7.590 -0.0924 -0.1830  0.0169
  791YOPS   C1B11847  13.759   7.103   6.531  0.0004  0.0446 -0.0704
  791YOPS   C2B11848  14.016   7.427   6.581  0.1239  0.1403 -0.1995
  791YOPS   D3B11849  14.129   7.838   6.352 -0.0757  0.0239 -0.0037
  791YOPS   C4B11850  14.419   8.028   6.566  0.1129  0.5446  0.0935
  792YOPS   CNO11851  12.294   5.699   5.596 -0.2295  0.2866  0.1394
  792YOPS   PO411852  12.513   6.126   5.625  0.0342 -0.0704 -0.2881
  792YOPS   GL111853  12.564   6.221   6.018 -0.0490  0.0729  0.0835
  792YOPS   GL211854  12.664   6.418   6.078  0.0753  0.0954 -0.2235
  792YOPS   C1A11855  12.615   6.061   6.435  0.2138  0.0942  0.2570
  792YOPS   D2A11856  12.749   5.930   6.738  0.0867 -0.0861  0.2126
  792YOPS   C3A11857  12.945   6.052   7.116 -0.2108  0.2932 -0.0532
  792YOPS   C4A11858  12.936   6.378   7.397 -0.0163 -0.0657 -0.3145
  792YOPS   C1B11859  12.813   6.533   6.378 -0.1059 -0.0675  0.2610
  792YOPS   C2B11860  12.923   6.451   6.733 -0.2444  0.0047  0.1395
  792YOPS   D3B11861  12.761   6.720   7.107 -0.1405 -0.1606  0.0909
  792YOPS   C4B11862  12.736   6.863   7.566 -0.0164  0.2495  0.2663
  793YOPS   CNO11863   9.700  18.991   4.698 -0.2373 -0.0687 -0.2326
  793YOPS   PO411864   9.986  18.920   5.165  0.1887  0.2704 -0.3287
  793YOPS   GL111865   9.743  18.505   5.405 -0.0842  0.4572 -0.0150
  793YOPS   GL211866   9.477  18.354   5.322  0.3197 -0.0279 -0.3022
  793YOPS   C1A11867   9.539  18.498   5.763  0.0014 -0.0767  0.0975
  793YOPS   D2A11868   9.426  18.197   6.093 -0.1377  0.0226  0.0322
  793YOPS   C3A11869   9.440  18.060   6.490  0.2703 -0.0466  0.0480
  793YOPS   C4A11870   9.700  17.997   6.842  0.1415 -0.1650 -0.2727
  793YOPS   C1B11871   9.263  18.101   5.576 -0.0308  0.0454 -0.1077
  793YOPS   C2B11872   8.944  17.798   5.770  0.3027  0.1462 -0.1245
  793YOPS   D3B11873   8.894  17.834   6.105  0.1515 -0.3686 -0.0206
  793YOPS   C4B11874   9.000  17.717   6.565  0.0357 -0.0831 -0.4644
  794YOPS   CNO11875   1.362  16.422   5.569 -0.1603  0.0838  0.1936
  794YOPS   PO411876   1.166  16.785   5.637 -0.3491 -0.2276 -0.0851
  794YOPS   GL111877   1.181  16.615   6.032  0.0071 -0.3222  0.0013
  794YOPS   GL211878   1.419  16.886   6.110 -0.0966  0.0276 -0.2569
  794YOPS   C1A11879   1.198  16.388   6.389  0.1320 -0.0124 -0.3724
  794YOPS   D2A11880   1.021  16.313   6.820 -0.3525  0.0838  0.1755
  794YOPS   C3A11881   1.041  16.460   7.322  0.0163 -0.1587 -0.0542
  794YOPS   C4A11882   1.154  16.641   7.607 -0.0450  0.2049  0.2050
  794YOPS   C1B11883   1.626  16.657   6.378  0.1063  0.1452  0.0992
  794YOPS   C2B11884   1.928  16.407   6.478 -0.0966  0.0825  0.2372
  794YOPS   D3B11885   2.091  16.114   6.810 -0.0730  0.0833 -0.0388
  794YOPS   C4B11886   1.756  16.032   7.101 -0.2658 -0.4222 -0.1373
  795YOPS   CNO11887   2.649  12.215   5.652  0.0475  0.0964 -0.0642
  795YOPS   PO411888   2.704  11.827   5.745  0.1675 -0.0516  0.2619
  795YOPS   GL111889   2.853  11.709   6.157 -0.0113 -0.3781  0.0407
  795YOPS   GL211890   3.009  11.397   5.961  0.2123  0.1839  0.2925
  795YOPS   C1A11891   3.043  11.513   6.581 -0.3389 -0.4527  0.1242
  795YOPS   D2A11892   2.797  11.512   6.913  0.3002  0.1289  0.1953
  795YOPS   C3A11893   2.946  11.658   7.233 -0.2057  0.3327 -0.3317
  795YOPS   C4A11894   2.580  11.705   7.537  0.2242  0.0184  0.1188
  795YOPS   C1B11895   3.380  11.351   6.259  0.1826 -0.2014 -0.2222
  795YOPS   C2B11896   3.808  11.431   6.577 -0.0956  0.1240 -0.0719
  795YOPS   D3B11897   4.142  11.567   6.605  0.2620 -0.1484 -0.0005
  795YOPS   C4B11898   4.473  11.864   6.460 -0.1553  0.0613  0.2333
  796YOPS   CNO11899  16.149   4.133   5.277  0.0106  0.0802 -0.1833
  796YOPS   PO411900  16.392   4.088   5.670  0.2863 -0.0284  0.0705
  796YOPS   GL111901  16.576   4.126   6.075 -0.0433 -0.0940 -0.2743
  796YOPS   GL211902  16.587   3.863   6.350  0.2131  0.0658 -0.0696
  796YOPS   C1A11903  16.892   4.239   6.445  0.1114  0.1147 -0.1660
  796YOPS   D2A11904  16.986   4.428   6.722 -0.3506  0.0171 -0.0242
  796YOPS   C3A11905  16.866   4.376   7.111 -0.0239  0.0262  0.2195
  796YOPS   C4A11906  16.810   4.704   7.395 -0.0165  0.0113 -0.0491
  796YOPS   C1B11907  16.897   3.776   6.600  0.2764  0.1762  0.1385
  796YOPS   C2B11908  16.983   3.910   6.992  0.1965  0.0878 -0.1431
  796YOPS   D3B11909  16.879   3.957   7.420  0.1188 -0.1343  0.1912
  796YOPS   C4B11910  16.834   3.604   7.655  0.1664 -0.0909  0.2158
  797YOPS   CNO11911  13.410  16.276   5.257 -0.0357  0.2084  0.0960
  797YOPS   PO411912  13.069  16.523   5.188 -0.2682 -0.1169  0.2517
  797YOPS   GL111913  13.062  16.322   5.637  0.0923 -0.0535 -0.2853
  797YOPS   GL211914  12.860  16.530   5.910  0.2248  0.1705  0.0923
  797YOPS   C1A11915  13.408  16.064   5.891  0.3109 -0.1136 -0.2573
  797YOPS   D2A11916  13.752  16.150   6.125 -0.1581 -0.2111 -0.0548
  797YOPS   C3A11917  14.227  16.274   6.192 -0.0023 -0.0375 -0.0070
  797YOPS   C4A11918  14.306  16.079   6.639  0.2998  0.0925  0.0474
  797YOPS   C1B11919  12.942  16.469   6.399 -0.4141 -0.2953 -0.0378
  797YOPS   C2B11920  12.839  16.536   6.751 -0.2009  0.0640  0.2371
  797YOPS   D3B11921  12.807  16.486   7.191 -0.0922  0.0766  0.0166
  797YOPS   C4B11922  12.586  16.297   7.619  0.0833 -0.2748 -0.0900
  798YOPS   CNO11923   6.170   2.939   5.570 -0.0430 -0.0473  0.0825
  798YOPS   PO411924   5.844   3.206   5.463 -0.5325 -0.0608 -0.0544
  798YOPS   GL111925   5.689   2.869   5.759  0.1552  0.0756  0.0005
  798YOPS   GL211926   5.787   2.753   6.113  0.0225 -0.0253  0.0873
  798YOPS   C1A11927   5.437   3.052   6.067  0.0595  0.0470 -0.3498
  798YOPS   D2A11928   5.328   3.308   6.368  0.3987 -0.0029 -0.1205
  798YOPS   C3A11929   5.345   3.542   6.704  0.1834  0.2799 -0.1260
  798YOPS   C4A11930   5.301   3.227   7.022 -0.0650  0.1599 -0.1448
  798YOPS   C1B11931   5.707   2.645   6.459  0.0257 -0.3271  0.0498
  798YOPS   C2B11932   5.805   2.455   6.879 -0.1811  0.2662  0.2565
  798YOPS   D3B11933   6.203   2.371   7.188  0.0566 -0.0814  0.0194
  798YOPS   C4B11934   5.918   2.385   7.567 -0.2069  0.0278 -0.5443
  799YOPS   CNO11935   8.184  15.882   5.221  0.0384 -0.6264 -0.2863
  799YOPS   PO411936   7.792  15.928   5.290  0.0086  0.1701  0.1413
  799YOPS   GL111937   8.031  16.137   5.647 -0.1025 -0.0597 -0.3076
  799YOPS   GL211938   7.938  16.314   5.903  0.1631  0.0386  0.1322
  799YOPS   C1A11939   8.402  15.989   5.943  0.2240  0.1797  0.0707
  799YOPS   D2A11940   8.675  15.741   6.035  0.0394  0.0554 -0.2953
  799YOPS   C3A11941   8.974  15.726   6.383  0.2803 -0.0622  0.0037
  799YOPS   C4A11942   9.361  15.543   6.423 -0.2067 -0.2013 -0.2093
  799YOPS   C1B11943   8.235  16.477   6.167 -0.4101  0.2310 -0.3449
  799YOPS   C2B11944   8.258  16.444   6.562  0.1082  0.2133 -0.1746
  799YOPS   D3B11945   8.431  16.409   6.939  0.0464 -0.0913  0.3446
  799YOPS   C4B11946   8.329  16.167   7.320 -0.0017 -0.0458 -0.2256
  800YOPS   CNO11947  11.594   7.958   5.432  0.0642  0.0379  0.0340
  800YOPS   PO411948  11.198   7.698   5.351 -0.0422 -0.1939  0.0785
  800YOPS   GL111949  11.136   7.723   5.731 -0.1925  0.4653 -0.0405
  800YOPS   GL211950  10.927   7.536   5.842  0.0171 -0.4015  0.1895
  800YOPS   C1A11951  11.127   7.955   6.121 -0.6103 -0.2718  0.2694
  800YOPS   D2A11952  10.862   8.046   6.488  0.2952 -0.1437 -0.0139
  800YOPS   C3A11953  10.831   8.059   6.917 -0.0655  0.1685  0.1033
  800YOPS   C4A11954  11.186   7.957   7.138 -0.2529  0.0498  0.1485
  800YOPS   C1B11955  10.860   7.618   6.293 -0.0400  0.0967  0.1032
  800YOPS   C2B11956  10.948   7.632   6.708 -0.1298 -0.3652  0.0626
  800YOPS   D3B11957  10.862   7.480   7.159 -0.0003  0.2054  0.1809
  800YOPS   C4B11958  11.123   7.430   7.483 -0.3194 -0.1017  0.0339
  801POPE   NH311959  10.182   5.313   5.051 -0.1157 -0.0029  0.0292
  801POPE   PO411960  10.227   5.601   5.323 -0.0878 -0.1024  0.1467
  801POPE   GL111961  10.317   5.706   5.749  0.1724  0.3710  0.1161
  801POPE   GL211962  10.638   5.652   5.821  0.1008 -0.0921  0.3082
  801POPE   C1A11963  10.247   5.850   6.231 -0.0266 -0.3206 -0.0370
  801POPE   D2A11964  10.263   6.006   6.726  0.0697  0.3169  0.0057
  801POPE   C3A11965   9.992   5.793   7.033  0.0959  0.0641  0.2042
  801POPE   C4A11966   9.613   5.778   7.269 -0.1195  0.6472 -0.0640
  801POPE   C1B11967  10.713   5.635   6.234  0.2662  0.2572 -0.0686
  801POPE   C2B11968  10.561   5.265   6.554 -0.1613  0.0534 -0.1408
  801POPE   C3B11969  10.142   5.280   6.807  0.1116 -0.1446  0.0713
  801POPE   C4B11970   9.731   5.464   6.820  0.0542 -0.0867  0.3057
  802POPE   NH311971  18.735  13.792   5.383  0.0926  0.2155  0.1416
  802POPE   PO411972  18.768  13.398   5.500 -0.1638  0.0558 -0.0447
  802POPE   GL111973  18.728  13.313   5.934  0.1694 -0.1529 -0.0381
  802POPE   GL211974  18.490  13.047   5.997  0.0806 -0.2401 -0.4772
  802POPE   C1A11975  18.994  13.437   6.314  0.0238 -0.1922  0.1711
  802POPE   D2A11976  18.848  13.455   6.653  0.3055 -0.1174 -0.3165
  802POPE   C3A11977  19.128  13.685   6.986  0.0559 -0.0067  0.0972
  802POPE   C4A11978  19.209  13.870   7.329  0.4135 -0.0162 -0.3717
  802POPE   C1B11979  18.610  13.045   6.432 -0.2129  0.2600  0.3445
  802POPE   C2B11980  18.696  12.989   6.897 -0.0216  0.4759  0.0367
  802POPE   C3B11981  18.758  13.286   7.200  0.0215 -0.2850 -0.4416
  802POPE   C4B11982  18.864  13.453   7.542 -0.2728  0.2587 -0.0586
  803POPE   NH311983  16.247   2.982   5.571 -0.0843  0.0078 -0.0865
  803POPE   PO411984  16.001   3.204   5.701 -0.1444 -0.3582  0.0266
  803POPE   GL111985  15.849   3.318   6.120 -0.0804  0.0283  0.2275
  803POPE   GL211986  15.602   3.123   6.237  0.0598  0.0294 -0.3996
  803POPE   C1A11987  16.179   3.590   6.326  0.0399  0.0906 -0.0280
  803POPE   D2A11988  16.072   3.848   6.663 -0.2169  0.0052 -0.1235
  803POPE   C3A11989  15.694   3.799   6.949  0.0650 -0.0918 -0.0070
  803POPE   C4A11990  15.665   3.376   7.140  0.0695  0.1263  0.0619
  803POPE   C1B11991  15.642   2.913   6.661 -0.3008 -0.2700 -0.2165
  803POPE   C2B11992  15.776   2.872   7.021 -0.1546 -0.0124  0.3403
  803POPE   C3B11993  15.584   2.892   7.343  0.0147 -0.0249 -0.0989
  803POPE   C4B11994  15.193   3.014   7.562 -0.3996  0.2445 -0.3753
  804POPE   NH311995  18.786  18.947   5.292 -0.4531  0.3057 -0.0835
  804POPE   PO411996  18.751  19.247   5.725  0.1125 -0.0096  0.0012
  804POPE   GL111997  18.848  19.337   6.102  0.1565  0.1953 -0.0963
  804POPE   GL211998  18.668  19.437   6.271 -0.0388  0.0660 -0.0113
  804POPE   C1A11999  19.241  19.589   6.287 -0.1484  0.0281  0.0505
  804POPE   D2A12000  19.414  19.977   6.341  0.0991 -0.1044 -0.1055
  804POPE   C3A12001  19.704  20.087   6.597  0.4639  0.8588  0.0394
  804POPE   C4A12002  19.842  20.303   6.945  0.0357  0.2764  0.1041
  804POPE   C1B12003  18.385  19.451   6.454 -0.1508  0.0455 -0.2085
  804POPE   C2B12004  18.257  19.438   6.855 -0.0836  0.0386 -0.4668
  804POPE   C3B12005  18.123  19.350   7.282  0.5400  0.3155 -0.1233
  804POPE   C4B12006  17.740  19.400   7.335  0.2453 -0.0904  0.1220
  805POPE   NH312007   7.568  14.279   5.374  0.1920  0.0039 -0.0943
  805POPE   PO412008   7.956  14.383   5.192 -0.2771  0.3184  0.1701
  805POPE   GL112009   7.975  14.472   5.634 -0.3277 -0.0279 -0.1664
  805POPE   GL212010   7.782  14.613   5.784 -0.0821 -0.0370 -0.0015
  805POPE   C1A12011   8.181  14.462   6.041 -0.1959 -0.3609 -0.4694
  805POPE   D2A12012   8.049  14.548   6.459  0.0115 -0.0777 -0.1929
  805POPE   C3A12013   7.999  14.444   6.878 -0.0299  0.2924  0.1092
  805POPE   C4A12014   8.031  14.504   7.323 -0.0164  0.1370  0.2421
  805POPE   C1B12015   7.862  14.873   6.127 -0.1763  0.1836  0.1486
  805POPE   C2B12016   8.075  15.090   6.541  0.1756 -0.2413 -0.0632
  805POPE   C3B12017   7.762  14.863   6.777 -0.0479 -0.0076 -0.0634
  805POPE   C4B12018   7.262  14.922   6.832  0.1292  0.0624 -0.0386
  806POPE   NH312019   4.516  15.879   5.385 -0.2539 -0.3623 -0.4062
  806POPE   PO412020   4.485  16.421   5.462 -0.0070  0.2468  0.0466
  806POPE   GL112021   4.492  16.265   5.789  0.1253  0.1637  0.2210
  806POPE   GL212022   4.158  16.140   5.904 -0.0883  0.4046  0.0027
  806POPE   C1A12023   4.509  16.259   6.254 -0.2704 -0.3659  0.0654
  806POPE   D2A12024   4.783  16.134   6.574 -0.1400 -0.0386  0.1024
  806POPE   C3A12025   4.947  16.364   6.929 -0.0439 -0.0817  0.0291
  806POPE   C4A12026   5.099  16.647   7.279  0.2014 -0.0009 -0.0474
  806POPE   C1B12027   4.010  16.446   6.354 -0.0539  0.3509  0.0688
  806POPE   C2B12028   3.859  16.857   6.484  0.1100 -0.4240 -0.0644
  806POPE   C3B12029   4.033  17.009   6.833  0.1854  0.0371 -0.0472
  806POPE   C4B12030   4.472  17.052   6.990  0.0982  0.3137 -0.0055
  807POPE   NH312031   9.302  16.172   5.227 -0.0576  0.0305  0.1678
  807POPE   PO412032   9.319  15.800   5.160  0.1167  0.1914  0.1317
  807POPE   GL112033   9.324  15.829   5.597 -0.1205 -0.1158  0.0170
  807POPE   GL212034   9.697  15.797   5.685  0.0247 -0.1697  0.1458
  807POPE   C1A12035   9.113  15.998   5.920  0.2008 -0.0232  0.1952
  807POPE   D2A12036   8.792  16.224   5.980  0.0877 -0.2866  0.0009
  807POPE   C3A12037   8.646  16.189   6.377  0.1171 -0.0905  0.0438
  807POPE   C4A12038   8.539  15.861   6.740 -0.2408 -0.2694 -0.0762
  807POPE   C1B12039   9.641  15.823   6.140 -0.1269  0.2931  0.2238
  807POPE   C2B12040   9.734  15.880   6.449  0.0890  0.0455 -0.3490
  807POPE   C3B12041   9.605  15.986   6.871 -0.2513 -0.1612  0.0189
  807POPE   C4B12042   9.902  15.960   7.342 -0.0329 -0.1871  0.3281
  808POPE   NH312043   2.550  13.732   5.369  0.1883  0.1277  0.0137
  808POPE   PO412044   2.489  13.979   5.714  0.3560 -0.4156 -0.0571
  808POPE   GL112045   2.424  13.793   6.136  0.0738  0.4700 -0.0124
  808POPE   GL212046   2.306  14.108   6.230  0.2661 -0.1253 -0.0229
  808POPE   C1A12047   2.236  13.371   6.121 -0.1340 -0.1721 -0.3602
  808POPE   D2A12048   2.058  12.960   6.386 -0.2541 -0.2779 -0.0842
  808POPE   C3A12049   1.997  12.819   6.826  0.3400  0.1656 -0.1158
  808POPE   C4A12050   1.842  13.169   7.017  0.0214 -0.0158  0.0680
  808POPE   C1B12051   2.701  14.143   6.343  0.1283  0.1529 -0.2309
  808POPE   C2B12052   3.050  14.431   6.300  0.1443 -0.1699  0.2467
  808POPE   C3B12053   3.358  14.481   6.650  0.0368  0.1871 -0.1939
  808POPE   C4B12054   3.466  14.389   7.014  0.2624  0.1713  0.3304
  809POPE   NH312055   4.935  16.497   4.972  0.2389  0.1649 -0.0941
  809POPE   PO412056   4.801  16.131   5.126 -0.0063 -0.3459  0.0619
  809POPE   GL112057   5.018  16.151   5.464 -0.0652  0.1411 -0.0844
  809POPE   GL212058   5.277  15.981   5.602 -0.0234  0.2474  0.1461
  809POPE   C1A12059   4.996  16.352   5.900  0.0839 -0.1615  0.1949
  809POPE   D2A12060   5.051  16.436   6.336 -0.2237  0.2039  0.1203
  809POPE   C3A12061   4.947  16.706   6.450  0.2399 -0.0918  0.0675
  809POPE   C4A12062   4.949  16.846   6.847  0.0580 -0.0217 -0.2099
  809POPE   C1B12063   5.491  16.013   5.952 -0.0819 -0.1727 -0.1228
  809POPE   C2B12064   5.489  16.104   6.339 -0.1029 -0.0535 -0.2474
  809POPE   C3B12065   5.448  16.181   6.725 -0.1074 -0.0105  0.2417
  809POPE   C4B12066   5.315  15.984   7.086  0.1574  0.2728  0.0326
  810POPE   NH312067  13.487  10.633   5.573 -0.1748  0.1553 -0.0829
  810POPE   PO412068  13.759  10.233   5.521 -0.1656 -0.1599 -0.1198
  810POPE   GL112069  13.893  10.360   5.917 -0.2026  0.3859 -0.0086
  810POPE   GL212070  13.587  10.439   6.126  0.0229 -0.3761  0.0394
  810POPE   C1A12071  14.008  10.185   6.284 -0.2907 -0.1408 -0.0334
  810POPE   D2A12072  14.008  10.509   6.680 -0.0956  0.2505 -0.3798
  810POPE   C3A12073  14.174  10.936   6.987  0.1258  0.0795  0.0410
  810POPE   C4A12074  14.321  11.330   6.993 -0.1557 -0.0145 -0.0352
  810POPE   C1B12075  13.864  10.710   6.289 -0.1074 -0.0041 -0.4979
  810POPE   C2B12076  13.966  11.134   6.409  0.1995  0.4552 -0.1706
  810POPE   C3B12077  13.863  11.366   6.740  0.0744  0.0351 -0.1753
  810POPE   C4B12078  13.844  11.521   7.193  0.1859  0.5093  0.1413
  811POPE   NH312079   4.888   3.678   5.482 -0.2555  0.2865  0.2231
  811POPE   PO412080   5.363   3.600   5.457 -0.0427 -0.4401 -0.0311
  811POPE   GL112081   5.237   3.601   5.876 -0.3255  0.2337 -0.0475
  811POPE   GL212082   4.985   3.392   5.986  0.0396 -0.0549 -0.1884
  811POPE   C1A12083   5.162   3.760   6.283 -0.0303 -0.2093 -0.2717
  811POPE   D2A12084   5.288   4.139   6.563  0.0083  0.1038  0.1895
  811POPE   C3A12085   5.207   4.283   6.975 -0.2306 -0.1523  0.3505
  811POPE   C4A12086   4.885   4.356   7.232 -0.1321 -0.0052 -0.2303
  811POPE   C1B12087   4.928   3.063   6.222 -0.2154  0.5744  0.3114
  811POPE   C2B12088   5.158   2.940   6.574 -0.0613 -0.3093  0.1959
  811POPE   C3B12089   5.479   2.784   6.926 -0.2040 -0.1339  0.3017
  811POPE   C4B12090   5.459   2.450   7.271  0.3983 -0.0038 -0.3680
  812POPE   NH312091   9.489  15.370   5.455  0.0114 -0.0202  0.0994
  812POPE   PO412092   9.895  15.118   5.585  0.3941  0.2083  0.0271
  812POPE   GL112093   9.933  14.785   5.906 -0.0903 -0.0340  0.0805
  812POPE   GL212094   9.822  14.405   5.939 -0.5101  0.0162 -0.0802
  812POPE   C1A12095  10.038  14.873   6.286  0.0774  0.0883  0.1917
  812POPE   D2A12096   9.766  14.754   6.635 -0.0138  0.2317 -0.1736
  812POPE   C3A12097   9.942  14.638   7.089 -0.3764  0.2350 -0.0049
  812POPE   C4A12098  10.152  14.754   7.472 -0.1984 -0.1759 -0.1146
  812POPE   C1B12099   9.960  14.371   6.386  0.3416 -0.0403  0.0153
  812POPE   C2B12100  10.337  14.314   6.513  0.4784 -0.1564 -0.4372
  812POPE   C3B12101  10.694  14.155   6.767 -0.1597  0.1235 -0.1191
  812POPE   C4B12102  10.858  14.186   7.172 -0.1578  0.1700 -0.0240
  813POPE   NH312103  14.792   8.851   5.710  0.0910  0.0177 -0.2045
  813POPE   PO412104  14.711   9.205   5.616 -0.0934 -0.1366 -0.0432
  813POPE   GL112105  14.591   9.341   5.981 -0.0194  0.2423 -0.0420
  813POPE   GL212106  14.891   9.019   6.156 -0.0003 -0.0300 -0.3583
  813POPE   C1A12107  14.712   9.362   6.449  0.0368  0.1584  0.1603
  813POPE   D2A12108  14.683   9.203   6.835 -0.1782 -0.2550 -0.0487
  813POPE   C3A12109  14.805   9.217   7.248 -0.0232  0.0956 -0.2558
  813POPE   C4A12110  15.080   9.281   7.585  0.1005 -0.3816  0.1585
  813POPE   C1B12111  14.928   8.903   6.559  0.2754  0.1071  0.0601
  813POPE   C2B12112  15.092   8.702   6.945 -0.1003 -0.0259  0.1026
  813POPE   C3B12113  15.322   8.974   7.252  0.0005  0.1089 -0.3234
  813POPE   C4B12114  15.639   9.141   7.335  0.4763 -0.0351 -0.0948
  814POPE   NH312115  15.967   1.962   5.705 -0.0269  0.1962 -0.3995
  814POPE   PO412116  16.318   2.158   5.409 -0.4140 -0.0792 -0.3505
  814POPE   GL112117  16.537   1.976   5.792  0.1706 -0.1967 -0.0540
  814POPE   GL212118  16.824   1.737   5.888  0.5007 -0.2992 -0.0731
  814POPE   C1A12119  16.640   2.176   6.203 -0.0617  0.3871  0.0090
  814POPE   D2A12120  16.689   2.313   6.506 -0.1978  0.0075 -0.0635
  814POPE   C3A12121  16.946   2.006   6.763 -0.1806 -0.0235 -0.2793
  814POPE   C4A12122  17.133   1.812   7.102  0.1975  0.0462 -0.0284
  814POPE   C1B12123  16.955   1.709   6.378  0.1010 -0.2699  0.3602
  814POPE   C2B12124  17.173   1.431   6.730  0.0039  0.1275 -0.0740
  814POPE   C3B12125  17.136   1.331   7.122 -0.2088  0.1252 -0.0218
  814POPE   C4B12126  17.551   1.206   7.246 -0.0470 -0.1399  0.2595
  815POPE   NH312127   4.204  11.533   5.996  0.1978  0.0392 -0.0627
  815POPE   PO412128   4.111  11.973   5.913 -0.0394  0.2492  0.0250
  815POPE   GL112129   4.016  11.988   6.356 -0.2280 -0.3107 -0.0777
  815POPE   GL212130   3.644  11.944   6.410  0.1083  0.2440  0.2334
  815POPE   C1A12131   3.899  11.877   6.838 -0.3090  0.0791  0.0793
  815POPE   D2A12132   3.928  11.877   7.256 -0.5549  0.1612 -0.1507
  815POPE   C3A12133   3.973  11.697   7.703 -0.0678  0.0170  0.2362
  815POPE   C4A12134   4.218  11.353   7.903  0.2437 -0.1736  0.1013
  815POPE   C1B12135   3.190  11.967   6.439  0.1254  0.1630  0.2622
  815POPE   C2B12136   2.708  12.003   6.528 -0.1147 -0.1951 -0.0280
  815POPE   C3B12137   2.420  11.881   6.877 -0.1852 -0.3907  0.0053
  815POPE   C4B12138   2.317  11.486   7.072 -0.3141  0.1174 -0.2903
  816POPE   NH312139  16.854  12.737   5.400 -0.2807  0.0584 -0.1440
  816POPE   PO412140  17.147  13.035   5.450 -0.4086 -0.0499 -0.2240
  816POPE   GL112141  17.143  13.014   5.901 -0.2409  0.0436 -0.2195
  816POPE   GL212142  17.050  12.681   5.875 -0.0717  0.3659 -0.0000
  816POPE   C1A12143  17.146  13.245   6.229  0.3286 -0.1246 -0.1449
  816POPE   D2A12144  16.957  13.546   6.601  0.1908 -0.1996  0.0460
  816POPE   C3A12145  17.093  13.746   6.906 -0.3880  0.0095 -0.1004
  816POPE   C4A12146  17.193  13.946   7.277 -0.0598  0.2180  0.2254
  816POPE   C1B12147  16.910  12.770   6.327  0.3647 -0.0662 -0.0378
  816POPE   C2B12148  16.929  13.023   6.698  0.2339 -0.0251  0.0839
  816POPE   C3B12149  17.069  13.238   7.034 -0.5614  0.0404 -0.0041
  816POPE   C4B12150  16.799  13.528   7.255 -0.1377  0.0772 -0.3653
  817POPE   NH312151   1.926  14.827   5.712  0.2260 -0.2064 -0.0458
  817POPE   PO412152   1.573  15.160   5.484 -0.3637  0.1086 -0.2451
  817POPE   GL112153   1.495  15.019   5.916 -0.0385  0.0252  0.4036
  817POPE   GL212154   1.753  15.173   6.096 -0.2652  0.2348 -0.2620
  817POPE   C1A12155   1.131  14.925   6.219 -0.5501  0.0942 -0.1058
  817POPE   D2A12156   1.241  14.794   6.632  0.2194 -0.1223 -0.1130
  817POPE   C3A12157   1.495  14.507   6.876 -0.0668  0.0230  0.2561
  817POPE   C4A12158   1.629  14.125   6.827  0.0755  0.3192 -0.0594
  817POPE   C1B12159   1.619  15.282   6.488  0.0993  0.0756  0.0493
  817POPE   C2B12160   1.633  15.507   6.782  0.0090 -0.3056  0.0187
  817POPE   C3B12161   1.523  15.536   7.210  0.1173  0.0376  0.0429
  817POPE   C4B12162   1.613  15.837   7.596  0.1412  0.1494  0.0272
  818POPE   NH312163  15.848   6.915   5.591  0.0388  0.3694 -0.1481
  818POPE   PO412164  16.269   6.763   5.843  0.0286 -0.0774 -0.1469
  818POPE   GL112165  16.428   6.823   6.302  0.6880 -0.0309 -0.0185
  818POPE   GL212166  16.599   6.626   6.438 -0.2320 -0.1745  0.1171
  818POPE   C1A12167  16.199   6.944   6.719  0.0981  0.3638  0.0675
  818POPE   D2A12168  16.121   6.996   7.180  0.1670  0.1914 -0.0446
  818POPE   C3A12169  16.304   7.398   7.241  0.0565 -0.2543  0.2659
  818POPE   C4A12170  16.196   7.792   7.378 -0.3383  0.1717 -0.2264
  818POPE   C1B12171  16.689   6.945   6.794 -0.0070  0.1407 -0.3298
  818POPE   C2B12172  16.592   6.849   7.155  0.0312 -0.1952  0.1447
  818POPE   C3B12173  16.481   6.878   7.492  0.1908 -0.0487  0.0213
  818POPE   C4B12174  16.606   6.974   7.895 -0.1070  0.2065 -0.0169
  819POPE   NH312175   0.781  13.012   5.357 -0.0478  0.2373  0.2442
  819POPE   PO412176   0.460  13.210   5.580 -0.0135 -0.0142 -0.1962
  819POPE   GL112177   0.452  13.632   5.805 -0.1718 -0.1528  0.0169
  819POPE   GL212178   0.292  13.531   6.047  0.1452 -0.5450 -0.1020
  819POPE   C1A12179   0.679  13.809   6.223  0.4872 -0.0306  0.1591
  819POPE   D2A12180   0.614  14.152   6.547  0.2333 -0.0086 -0.2536
  819POPE   C3A12181   0.712  14.563   6.362  0.1242  0.2430  0.0393
  819POPE   C4A12182   0.790  15.000   6.702 -0.0500  0.3020  0.3705
  819POPE   C1B12183   0.419  13.230   6.227  0.1277 -0.0694  0.2183
  819POPE   C2B12184   0.674  13.211   6.650 -0.1264  0.0258 -0.0412
  819POPE   C3B12185   1.148  13.184   6.754  0.0233  0.2059 -0.0958
  819POPE   C4B12186   1.533  12.958   6.672 -0.0807 -0.0458  0.0719
  820POPE   NH312187   5.412   9.163   5.396  0.0406 -0.2534 -0.2311
  820POPE   PO412188   5.083   9.406   5.355 -0.2546 -0.1889  0.1695
  820POPE   GL112189   5.177   9.417   5.823  0.0231  0.2245 -0.3933
  820POPE   GL212190   5.180   9.063   5.915 -0.2773  0.1584 -0.1354
  820POPE   C1A12191   5.474   9.566   6.178 -0.2005 -0.2405  0.1630
  820POPE   D2A12192   5.393   9.641   6.606 -0.0361 -0.2393  0.2000
  820POPE   C3A12193   5.191   9.336   6.914  0.0759 -0.2756 -0.0152
  820POPE   C4A12194   5.227   8.947   7.199  0.2892 -0.2525  0.0018
  820POPE   C1B12195   5.067   8.813   6.237  0.0717  0.3535  0.2307
  820POPE   C2B12196   5.137   8.343   6.415 -0.0054  0.3367 -0.3308
  820POPE   C3B12197   5.057   8.034   6.588 -0.1851 -0.2699  0.0186
  820POPE   C4B12198   5.098   7.993   7.019  0.0895 -0.2196  0.3204
  821POPE   NH312199   7.491  18.671   4.583  0.0605 -0.1851  0.1748
  821POPE   PO412200   7.214  18.594   4.931  0.0306 -0.2271  0.2182
  821POPE   GL112201   7.083  18.521   5.329 -0.0264  0.1630 -0.0256
  821POPE   GL212202   7.225  18.264   5.529  0.1963  0.1718  0.1601
  821POPE   C1A12203   6.888  18.568   5.772  0.0537 -0.1454 -0.2536
  821POPE   D2A12204   7.070  18.699   6.215  0.1639 -0.0502 -0.0791
  821POPE   C3A12205   6.959  18.426   6.555  0.1030  0.0572 -0.1652
  821POPE   C4A12206   7.211  18.404   6.991  0.0012 -0.0350  0.0167
  821POPE   C1B12207   7.189  18.167   5.957 -0.0127 -0.1603 -0.2044
  821POPE   C2B12208   7.250  18.069   6.376 -0.0718 -0.1382 -0.1846
  821POPE   C3B12209   7.424  17.977   6.793 -0.1473 -0.3400 -0.5202
  821POPE   C4B12210   7.808  17.992   6.931 -0.4217  0.1652 -0.4726
  822POPE   NH312211   5.541  17.122   4.915 -0.1468 -0.1868  0.0021
  822POPE   PO412212   5.359  16.698   4.830 -0.0587  0.0499 -0.0153
  822POPE   GL112213   5.222  16.883   5.271  0.0286 -0.4274  0.0699
  822POPE   GL212214   5.035  16.699   5.465  0.0739  0.1288  0.0195
  822POPE   C1A12215   5.434  17.182   5.578  0.1358 -0.3292 -0.3402
  822POPE   D2A12216   5.338  17.559   5.678  0.1467 -0.0428 -0.5400
  822POPE   C3A12217   5.119  17.511   6.059  0.1117  0.3951  0.2012
  822POPE   C4A12218   5.280  17.500   6.469 -0.0574  0.1012  0.2005
  822POPE   C1B12219   5.083  16.921   5.806 -0.0498 -0.1631 -0.1443
  822POPE   C2B12220   5.252  17.031   6.252  0.0953 -0.1259 -0.0263
  822POPE   C3B12221   5.373  17.050   6.734  0.3758 -0.1482  0.0186
  822POPE   C4B12222   5.465  16.619   6.953 -0.2841  0.0386  0.2000
  823POPE   NH312223   3.615  12.259   5.999  0.0389 -0.1103 -0.0926
  823POPE   PO412224   3.588  12.678   5.703  0.1551  0.0797  0.3506
  823POPE   GL112225   3.574  12.912   5.984  0.1008  0.1747  0.1855
  823POPE   GL212226   3.363  13.135   5.963 -0.4117 -0.0999 -0.0870
  823POPE   C1A12227   3.553  12.887   6.391  0.2732 -0.1200 -0.1348
  823POPE   D2A12228   3.810  12.872   6.748 -0.2576 -0.2942  0.2122
  823POPE   C3A12229   3.694  12.720   7.187 -0.2076 -0.0036  0.3415
  823POPE   C4A12230   3.809  12.754   7.714 -0.3115 -0.2582  0.0716
  823POPE   C1B12231   3.435  13.435   6.202  0.2497 -0.2224 -0.0992
  823POPE   C2B12232   3.249  13.450   6.647  0.0440 -0.0226 -0.3154
  823POPE   C3B12233   3.014  13.435   7.092  0.4350 -0.1078 -0.1141
  823POPE   C4B12234   2.885  13.670   7.401 -0.1574 -0.2814 -0.1662
  824POPE   NH312235   9.557   1.848   4.956 -0.0374  0.0988 -0.1128
  824POPE   PO412236   9.680   1.567   5.316  0.1837 -0.1855 -0.0326
  824POPE   GL112237   9.663   1.588   5.719  0.1283 -0.1946  0.3629
  824POPE   GL212238   9.291   1.636   5.700  0.0353  0.0587 -0.0340
  824POPE   C1A12239   9.910   1.408   5.998 -0.0759 -0.1232  0.0713
  824POPE   D2A12240   9.819   1.220   6.468 -0.0233  0.1078 -0.3858
  824POPE   C3A12241   9.402   1.181   6.563  0.0020 -0.2364 -0.1595
  824POPE   C4A12242   9.129   1.336   6.882  0.0545  0.1741 -0.2519
  824POPE   C1B12243   9.367   1.364   6.059  0.2000 -0.0923 -0.3540
  824POPE   C2B12244   9.588   0.970   6.123  0.0063  0.0366  0.0065
  824POPE   C3B12245   9.701   0.712   6.439 -0.1367  0.1794 -0.0440
  824POPE   C4B12246   9.550   0.254   6.443  0.0199  0.3340  0.0246
  825POPE   NH312247  11.188   8.278   5.509  0.0726 -0.3587  0.2440
  825POPE   PO412248  10.783   8.167   5.626  0.0307 -0.2515  0.2127
  825POPE   GL112249  10.520   8.357   5.919 -0.2876 -0.1048 -0.2116
  825POPE   GL212250  10.304   8.589   5.813 -0.3728 -0.1681 -0.3642
  825POPE   C1A12251  10.496   8.438   6.396  0.2903 -0.0326  0.2674
  825POPE   D2A12252  10.567   8.477   6.807  0.0986  0.1122  0.0284
  825POPE   C3A12253  10.483   8.295   7.135  0.2827  0.0067  0.1443
  825POPE   C4A12254  10.138   8.282   7.395 -0.0644  0.0597 -0.2058
  825POPE   C1B12255  10.096   8.799   6.119  0.1208  0.2953  0.2240
  825POPE   C2B12256   9.967   8.912   6.541  0.1077  0.0507 -0.1721
  825POPE   C3B12257   9.799   8.970   6.896 -0.2814  0.2055  0.1976
  825POPE   C4B12258   9.458   8.589   6.984 -0.0044  0.0300  0.0543
  826POPE   NH312259   4.983  15.004   5.507 -0.1135  0.0444  0.0989
  826POPE   PO412260   5.346  14.898   5.429  0.2742 -0.0300 -0.0611
  826POPE   GL112261   5.480  15.160   5.677  0.4868  0.1068 -0.0580
  826POPE   GL212262   5.392  14.919   6.028  0.1301 -0.0463 -0.1124
  826POPE   C1A12263   5.756  15.513   5.929 -0.3892 -0.0675 -0.2974
  826POPE   D2A12264   5.877  15.771   6.304  0.0601  0.2310 -0.0176
  826POPE   C3A12265   5.689  15.737   6.742  0.2812  0.0369  0.0278
  826POPE   C4A12266   5.411  15.449   7.087 -0.2611 -0.1300  0.0051
  826POPE   C1B12267   5.917  14.932   5.960 -0.2423 -0.0758 -0.2274
  826POPE   C2B12268   6.251  15.309   6.037  0.1511 -0.3670 -0.1222
  826POPE   C3B12269   6.333  15.517   6.414  0.0054 -0.1761 -0.0362
  826POPE   C4B12270   6.512  15.913   6.614 -0.3800  0.0448  0.0020
  827POPE   NH312271  18.231   5.267   5.626  0.1357 -0.0203  0.2304
  827POPE   PO412272  17.890   5.454   5.889 -0.0484 -0.0372 -0.0769
  827POPE   GL112273  17.594   5.319   6.200  0.0124 -0.1433  0.1692
  827POPE   GL212274  17.438   5.071   6.135 -0.1553 -0.0719 -0.1416
  827POPE   C1A12275  17.423   5.487   6.658 -0.0589  0.1000 -0.0196
  827POPE   D2A12276  17.464   5.307   7.060  0.4812  0.2925 -0.0454
  827POPE   C3A12277  17.626   5.521   7.459  0.0672  0.1473  0.2784
  827POPE   C4A12278  17.808   5.380   7.787 -0.1877  0.1106 -0.2782
  827POPE   C1B12279  17.323   5.043   6.616  0.0921  0.1977  0.2263
  827POPE   C2B12280  17.243   4.821   7.024  0.0736 -0.3546  0.2124
  827POPE   C3B12281  17.330   4.579   7.395 -0.3216  0.3423  0.1457
  827POPE   C4B12282  17.363   4.109   7.501  0.2520  0.0653  0.1229
  828POPE   NH312283   0.502   3.040   5.530 -0.2613 -0.1181  0.0050
  828POPE   PO412284   0.023   3.086   5.734  0.2897  0.2250 -0.4352
  828POPE   GL112285   0.113   2.995   6.167  0.1583 -0.0669 -0.0889
  828POPE   GL212286   0.231   2.725   6.344 -0.1883 -0.1609  0.0997
  828POPE   C1A12287   0.118   3.106   6.610  0.0644  0.1087  0.0545
  828POPE   D2A12288   0.081   3.165   7.049 -0.0334  0.4452  0.4537
  828POPE   C3A12289   0.122   3.311   7.447  0.2013  0.1818  0.2177
  828POPE   C4A12290  -0.072   3.510   7.809  0.2332 -0.0175  0.1640
  828POPE   C1B12291   0.108   2.639   6.789  0.1770  0.0056  0.0461
  828POPE   C2B12292   0.291   2.703   7.209 -0.0859 -0.4097  0.0554
  828POPE   C3B12293   0.601   2.654   7.476 -0.1246 -0.1753 -0.4656
  828POPE   C4B12294   0.936   2.594   7.823  0.0163  0.0041  0.2595
  829POPE   NH312295  13.324  16.969   5.156  0.1633  0.1160  0.3370
  829POPE   PO412296  13.576  16.768   5.323 -0.0022 -0.1790 -0.1615
  829POPE   GL112297  13.693  16.948   5.714 -0.0252  0.2865 -0.0456
  829POPE   GL212298  13.440  17.155   5.984 -0.2974  0.4792  0.1785
  829POPE   C1A12299  13.765  16.719   6.131  0.0519  0.0954  0.1138
  829POPE   D2A12300  13.897  16.488   6.535  0.1481 -0.0391  0.1332
  829POPE   C3A12301  14.082  16.738   6.839 -0.2338 -0.2636  0.0319
  829POPE   C4A12302  14.440  16.793   7.133  0.1086 -0.2827  0.1180
  829POPE   C1B12303  13.387  16.865   6.371  0.0749 -0.0697 -0.0563
  829POPE   C2B12304  13.323  16.737   6.732 -0.1852 -0.0059  0.2355
  829POPE   C3B12305  13.565  16.601   7.047  0.0853 -0.2884 -0.0672
  829POPE   C4B12306  13.959  16.466   7.404  0.0269  0.1977  0.1201
  830POPE   NH312307  16.280  18.974   5.450  0.1756 -0.3094 -0.1059
  830POPE   PO412308  16.632  18.745   5.650 -0.1730 -0.1192  0.0758
  830POPE   GL112309  16.827  18.812   5.969  0.2115 -0.0424  0.0436
  830POPE   GL212310  16.966  19.040   6.174  0.1669  0.2050  0.0375
  830POPE   C1A12311  16.639  18.785   6.421 -0.0321  0.2160  0.2456
  830POPE   D2A12312  16.524  18.719   6.790  0.1739  0.1000  0.3901
  830POPE   C3A12313  16.462  18.905   7.269 -0.0201  0.2398  0.1744
  830POPE   C4A12314  16.596  19.184   7.609 -0.2836  0.1224 -0.1552
  830POPE   C1B12315  17.178  19.402   6.380 -0.1668 -0.0959  0.2151
  830POPE   C2B12316  17.326  19.626   6.681 -0.0540  0.2616 -0.0584
  830POPE   C3B12317  17.336  19.637   7.106  0.0785  0.2081  0.2358
  830POPE   C4B12318  17.656  19.886   7.386  0.1572  0.0790 -0.3467
  831YOPE   NH312319   0.878  17.241   5.509 -0.0381  0.1275  0.2289
  831YOPE   PO412320   0.809  17.655   5.652  0.1150 -0.2038  0.0327
  831YOPE   GL112321   0.551  17.553   5.962 -0.2399 -0.1573 -0.2327
  831YOPE   GL212322   0.460  17.259   5.891 -0.0290  0.2061 -0.6655
  831YOPE   C1A12323   0.219  17.577   6.330  0.3367  0.2940 -0.0143
  831YOPE   D2A12324  -0.006  17.406   6.608  0.1613  0.2230 -0.0114
  831YOPE   C3A12325   0.074  17.336   7.042 -0.0889  0.0309 -0.0674
  831YOPE   C4A12326   0.204  17.457   7.457  0.0385 -0.1427 -0.1775
  831YOPE   C1B12327   0.549  17.149   6.361  0.0657 -0.1375 -0.0213
  831YOPE   C2B12328   0.495  17.107   6.768  0.1097  0.1351 -0.4123
  831YOPE   D3B12329   0.513  17.083   7.161  0.1956  0.1393  0.1285
  831YOPE   C4B12330   0.545  17.010   7.468 -0.0648  0.1810 -0.2336
  832YOPE   NH312331  10.078   2.560   4.848  0.0923 -0.1610 -0.0978
  832YOPE   PO412332   9.845   2.262   5.113  0.2905  0.0019  0.1614
  832YOPE   GL112333   9.895   2.062   5.529  0.0796  0.1658  0.1924
  832YOPE   GL212334   9.603   2.187   5.808 -0.0797 -0.0525 -0.1439
  832YOPE   C1A12335  10.191   1.834   5.848 -0.1690  0.0504  0.1696
  832YOPE   D2A12336  10.514   1.817   6.101 -0.0643  0.0188 -0.0424
  832YOPE   C3A12337  10.754   1.545   6.323  0.0021  0.0949  0.1916
  832YOPE   C4A12338  10.998   1.493   6.719  0.5415  0.1445  0.2953
  832YOPE   C1B12339   9.416   1.888   6.117 -0.1035 -0.4292  0.2653
  832YOPE   C2B12340   9.453   1.659   6.473 -0.0842  0.1030  0.1289
  832YOPE   D3B12341   9.647   1.574   6.791  0.1616 -0.2256  0.0048
  832YOPE   C4B12342   9.801   1.669   7.139 -0.0326  0.2064 -0.6375
  833YOPE   NH312343  17.464  10.949   5.109  0.5003  0.0676 -0.1341
  833YOPE   PO412344  17.214  10.611   5.220  0.3249  0.1725 -0.0707
  833YOPE   GL112345  17.013  10.492   5.555 -0.0536 -0.0531  0.6737
  833YOPE   GL212346  17.038  10.192   5.655 -0.0147 -0.2074 -0.0676
  833YOPE   C1A12347  16.938  10.601   5.948  0.0527 -0.0960 -0.1227
  833YOPE   D2A12348  17.112  10.866   6.229 -0.0622 -0.2575  0.1349
  833YOPE   C3A12349  17.125  10.774   6.559  0.0331 -0.0423 -0.1848
  833YOPE   C4A12350  17.247  10.868   7.021  0.2226 -0.0736  0.2042
  833YOPE   C1B12351  17.244  10.016   5.981 -0.1521 -0.0928  0.0971
  833YOPE   C2B12352  17.149   9.680   6.258 -0.1693 -0.0392  0.2034
  833YOPE   D3B12353  17.176   9.489   6.586  0.1507 -0.3604 -0.1417
  833YOPE   C4B12354  17.096   9.752   6.984  0.1646  0.0455 -0.0344
  834YOPE   NH312355  13.479   9.028   5.912 -0.2079 -0.1493 -0.1145
  834YOPE   PO412356  13.363   9.526   5.889 -0.0299 -0.0140  0.2016
  834YOPE   GL112357  13.705   9.570   6.197  0.1245  0.1858  0.0838
  834YOPE   GL212358  13.621   9.198   6.415  0.0114 -0.1164 -0.0952
  834YOPE   C1A12359  13.910   9.666   6.566 -0.0100 -0.0671 -0.0145
  834YOPE   D2A12360  14.130   9.977   6.742  0.2088  0.1060 -0.2583
  834YOPE   C3A12361  14.152   9.964   7.138 -0.0429  0.2488  0.3416
  834YOPE   C4A12362  14.339   9.967   7.564 -0.0461  0.1561 -0.0545
  834YOPE   C1B12363  13.429   9.473   6.677 -0.3334 -0.1271  0.2077
  834YOPE   C2B12364  13.089   9.579   6.724  0.3046 -0.1581 -0.1798
  834YOPE   D3B12365  12.685   9.321   6.831 -0.4445  0.0147  0.0443
  834YOPE   C4B12366  12.292   9.329   7.093 -0.2113  0.0929 -0.2241
  835YOPE   NH312367   2.022   3.837   5.420  0.1366  0.1647  0.4398
  835YOPE   PO412368   1.785   4.117   5.658  0.0623  0.0075 -0.0128
  835YOPE   GL112369   1.700   3.980   5.989 -0.0075 -0.2107 -0.0392
  835YOPE   GL212370   1.413   4.123   6.114  0.0856 -0.1460 -0.0875
  835YOPE   C1A12371   1.577   3.696   6.388 -0.0013  0.2970 -0.1319
  835YOPE   D2A12372   1.426   3.490   6.664 -0.3198 -0.3860 -0.0871
  835YOPE   C3A12373   1.613   3.593   7.018 -0.4458 -0.3682 -0.0817
  835YOPE   C4A12374   1.877   3.467   7.403 -0.1179  0.2266  0.0265
  835YOPE   C1B12375   1.145   4.031   6.457  0.0027 -0.0626 -0.0256
  835YOPE   C2B12376   0.893   4.181   6.801 -0.0238  0.0974 -0.1962
  835YOPE   D3B12377   0.448   4.068   6.855 -0.0975 -0.3635  0.1991
  835YOPE   C4B12378   0.325   3.658   6.970 -0.3559  0.0943  0.1634
  836YOPE   NH312379  19.171   9.130   5.060  0.2136  0.1911  0.1197
  836YOPE   PO412380  19.453   9.291   5.149  0.3135  0.1397 -0.1603
  836YOPE   GL112381  19.326   9.417   5.537 -0.0523  0.0998  0.1792
  836YOPE   GL212382  19.057   9.240   5.557 -0.0506  0.0981  0.0857
  836YOPE   C1A12383  19.238   9.382   6.025  0.0055 -0.0621  0.1035
  836YOPE   D2A12384  19.060   9.415   6.483  0.0960  0.5413  0.1143
  836YOPE   C3A12385  19.378   9.568   6.779  0.0662 -0.3003  0.0119
  836YOPE   C4A12386  19.828   9.673   6.751  0.2067  0.4184  0.2922
  836YOPE   C1B12387  18.780   9.360   5.794  0.0471  0.2467 -0.1114
  836YOPE   C2B12388  18.612   9.403   6.203  0.1938  0.1102 -0.2466
  836YOPE   D3B12389  18.664   9.665   6.582 -0.0209  0.0823  0.1253
  836YOPE   C4B12390  18.942   9.740   7.023  0.2444  0.2573 -0.0554
  837YOPE   NH312391  15.787   7.803   5.502 -0.3473  0.0091 -0.0162
  837YOPE   PO412392  15.600   8.075   5.643 -0.2540 -0.1359  0.1080
  837YOPE   GL112393  15.799   8.217   6.010  0.4497 -0.1667 -0.0902
  837YOPE   GL212394  15.782   8.545   6.088 -0.0990  0.2683 -0.0649
  837YOPE   C1A12395  15.960   8.165   6.433  0.2105  0.0949  0.1317
  837YOPE   D2A12396  16.118   8.289   6.832 -0.2745  0.1293  0.0293
  837YOPE   C3A12397  15.939   8.201   7.282  0.3041 -0.0570  0.1488
  837YOPE   C4A12398  15.534   8.167   7.570  0.1722 -0.0610 -0.1759
  837YOPE   C1B12399  16.092   8.628   6.353  0.1301  0.3019  0.0380
  837YOPE   C2B12400  16.363   8.717   6.664  0.0075 -0.0591 -0.1330
  837YOPE   D3B12401  16.638   8.854   6.906 -0.2647 -0.0270 -0.0511
  837YOPE   C4B12402  16.627   9.061   7.340 -0.0384 -0.0782  0.0816
  838YOPE   NH312403   8.600  18.585   4.956  0.1760 -0.1718 -0.1369
  838YOPE   PO412404   9.071  18.491   5.072  0.0335 -0.0193  0.3100
  838YOPE   GL112405   8.748  18.437   5.448 -0.0194 -0.0275 -0.1265
  838YOPE   GL212406   8.585  18.161   5.371 -0.0962 -0.1660 -0.0539
  838YOPE   C1A12407   8.499  18.589   5.897 -0.0702  0.0322 -0.3345
  838YOPE   D2A12408   8.670  18.980   6.194 -0.1447 -0.0215  0.5891
  838YOPE   C3A12409   8.505  19.513   6.230 -0.0660  0.0868  0.1645
  838YOPE   C4A12410   8.745  19.828   6.172 -0.0357 -0.0873  0.2284
  838YOPE   C1B12411   8.518  18.125   5.900  0.2947  0.1137  0.2632
  838YOPE   C2B12412   8.360  18.310   6.221 -0.2193  0.0269  0.0345
  838YOPE   D3B12413   8.019  18.262   6.577 -0.1281  0.1135  0.0936
  838YOPE   C4B12414   8.079  18.406   6.987  0.0700 -0.0285 -0.2281
  839YOPE   NH312415   4.555  10.118   5.390  0.0117 -0.0859  0.6967
  839YOPE   PO412416   4.556  10.521   5.737  0.0735  0.2685  0.0497
  839YOPE   GL112417   4.335  10.753   6.080 -0.1068 -0.1145  0.2159
  839YOPE   GL212418   3.955  10.758   6.126  0.0082 -0.1956 -0.1731
  839YOPE   C1A12419   4.119  11.069   6.492 -0.0492  0.0038 -0.0998
  839YOPE   D2A12420   3.801  11.038   6.892 -0.1258 -0.5403 -0.1391
  839YOPE   C3A12421   3.567  10.894   7.110  0.2149  0.1782 -0.0853
  839YOPE   C4A12422   3.094  10.781   7.145 -0.0392  0.1961  0.2097
  839YOPE   C1B12423   3.616  10.916   6.421  0.4054 -0.3814 -0.2983
  839YOPE   C2B12424   3.257  10.706   6.583  0.0818 -0.0135  0.1170
  839YOPE   D3B12425   2.831  10.511   6.786  0.0734  0.1427  0.3556
  839YOPE   C4B12426   2.399  10.451   6.659 -0.1435  0.0180 -0.1175
  840YOPE   NH312427   2.799  15.129   5.766  0.2144  0.2046 -0.1978
  840YOPE   PO412428   2.327  15.046   5.551  0.1813 -0.0417  0.1634
  840YOPE   GL112429   2.311  14.739   5.994 -0.1613  0.0410 -0.0444
  840YOPE   GL212430   2.004  14.605   6.159  0.2576 -0.0195  0.3682
  840YOPE   C1A12431   2.531  14.601   6.367 -0.1824  0.1610 -0.2120
  840YOPE   D2A12432   2.811  14.598   6.686 -0.2707 -0.1284 -0.2459
  840YOPE   C3A12433   2.605  14.536   7.113 -0.1914  0.2231  0.2958
  840YOPE   C4A12434   2.485  14.374   7.337 -0.3498  0.0475 -0.1469
  840YOPE   C1B12435   1.713  14.722   6.498  0.0382  0.0989  0.0612
  840YOPE   C2B12436   1.554  14.986   6.946 -0.2889  0.0457  0.0544
  840YOPE   D3B12437   1.489  14.969   7.369  0.3395 -0.0403 -0.1059
  840YOPE   C4B12438   1.516  15.295   7.660 -0.0981 -0.0100 -0.3527
  841YOPE   NH312439   4.938  12.595   5.707 -0.0256 -0.0338 -0.1007
  841YOPE   PO412440   5.123  12.216   5.476 -0.0863 -0.0710  0.2841
  841YOPE   GL112441   5.262  12.063   5.916  0.3035  0.0380  0.1578
  841YOPE   GL212442   4.898  12.041   5.987 -0.1320  0.3251  0.3321
  841YOPE   C1A12443   5.420  12.008   6.220  0.2876  0.0631 -0.3432
  841YOPE   D2A12444   5.399  12.322   6.568  0.4390 -0.1258  0.1465
  841YOPE   C3A12445   5.660  12.239   6.918 -0.1074 -0.2278  0.1282
  841YOPE   C4A12446   5.676  12.008   7.404  0.0122  0.1584  0.4508
  841YOPE   C1B12447   4.911  12.179   6.446 -0.1445  0.2928  0.1390
  841YOPE   C2B12448   4.859  11.975   6.874  0.1739 -0.2124  0.0339
  841YOPE   D3B12449   4.924  11.583   7.216  0.3520 -0.1219 -0.1383
  841YOPE   C4B12450   5.108  11.191   7.364  0.0929 -0.5443  0.3849
  842YOPE   NH312451   1.462  15.543   5.905  0.0057 -0.1903 -0.0085
  842YOPE   PO412452   1.808  15.926   5.906  0.2208  0.1486  0.0158
  842YOPE   GL112453   1.737  15.730   6.242 -0.1121  0.3730  0.1933
  842YOPE   GL212454   2.020  15.568   6.275  0.1795  0.0119  0.2971
  842YOPE   C1A12455   1.733  15.914   6.563 -0.0174  0.1851 -0.1638
  842YOPE   D2A12456   1.515  16.284   6.771  0.1615 -0.2351  0.0848
  842YOPE   C3A12457   1.482  16.443   7.185  0.3652 -0.0325 -0.0564
  842YOPE   C4A12458   1.456  16.843   7.167 -0.0884  0.0010 -0.0746
  842YOPE   C1B12459   2.106  15.617   6.571  0.0629  0.2397 -0.0260
  842YOPE   C2B12460   2.297  15.637   6.954  0.2461  0.0491 -0.2517
  842YOPE   D3B12461   2.218  15.731   7.310 -0.0953 -0.1116  0.0306
  842YOPE   C4B12462   2.185  15.879   7.667 -0.0651  0.0832 -0.0448
  843YOPE   NH312463  17.478  16.400   5.600 -0.3244  0.3458 -0.0290
  843YOPE   PO412464  17.858  16.234   5.763 -0.1569 -0.0677 -0.3223
  843YOPE   GL112465  17.641  16.107   6.096 -0.0634 -0.0024  0.0198
  843YOPE   GL212466  17.310  16.205   6.119  0.2348 -0.0364  0.0171
  843YOPE   C1A12467  17.651  15.983   6.585 -0.4420  0.0358 -0.0910
  843YOPE   D2A12468  17.924  15.856   6.870 -0.1347 -0.3058  0.1927
  843YOPE   C3A12469  17.946  15.636   7.174  0.2276 -0.0620  0.1546
  843YOPE   C4A12470  18.075  15.513   7.518  0.0197 -0.1581  0.3734
  843YOPE   C1B12471  17.355  16.522   6.476  0.0037  0.0599 -0.6872
  843YOPE   C2B12472  17.278  16.925   6.644 -0.1512  0.1716 -0.1935
  843YOPE   D3B12473  17.008  17.219   6.727 -0.0708  0.1231 -0.1627
  843YOPE   C4B12474  16.685  17.226   7.024 -0.2286 -0.2344 -0.0320
  844YOPE   NH312475  11.504   5.894   5.539  0.1508 -0.0833  0.0827
  844YOPE   PO412476  11.262   6.208   5.247 -0.3138 -0.0704  0.0687
  844YOPE   GL112477  10.987   6.265   5.546  0.1379  0.1428  0.0068
  844YOPE   GL212478  11.160   6.412   5.779 -0.0900 -0.0387 -0.1734
  844YOPE   C1A12479  10.687   6.148   5.921 -0.2181 -0.1285 -0.2075
  844YOPE   D2A12480  10.349   6.239   5.869  0.1253  0.3420  0.0003
  844YOPE   C3A12481  10.103   6.413   6.229  0.0067 -0.2164  0.1510
  844YOPE   C4A12482   9.950   6.275   6.566  0.3046 -0.2495  0.1917
  844YOPE   C1B12483  11.250   6.465   6.175 -0.0900  0.0583 -0.1246
  844YOPE   C2B12484  11.192   6.558   6.597 -0.3382  0.0049  0.2504
  844YOPE   D3B12485  11.080   6.414   7.040  0.0659 -0.0592  0.0716
  844YOPE   C4B12486  10.985   6.090   7.347 -0.4036 -0.2550 -0.1432
  845YOPE   NH312487  11.843  14.599   5.010 -0.1789  0.0246  0.0454
  845YOPE   PO412488  12.307  14.746   4.827  0.0596 -0.2651 -0.4339
  845YOPE   GL112489  12.422  14.753   5.201 -0.2400 -0.0830  0.0664
  845YOPE   GL212490  12.330  14.443   5.244  0.0113  0.0327 -0.2593
  845YOPE   C1A12491  12.426  14.797   5.720 -0.1421  0.1357  0.3746
  845YOPE   D2A12492  12.551  14.721   6.099  0.3768  0.0880  0.2181
  845YOPE   C3A12493  12.662  14.912   6.448 -0.0912 -0.2511  0.0236
  845YOPE   C4A12494  12.753  14.887   6.843  0.0719  0.1122 -0.1595
  845YOPE   C1B12495  12.130  14.316   5.610 -0.1010  0.2646  0.2426
  845YOPE   C2B12496  12.155  14.468   5.961  0.0634 -0.1092  0.1149
  845YOPE   D3B12497  12.301  14.295   6.327 -0.1442  0.1789 -0.0379
  845YOPE   C4B12498  12.363  13.976   6.572  0.0232 -0.1819 -0.0399
  846YOPE   NH312499  16.108  11.155   5.576  0.1898  0.1209  0.2236
  846YOPE   PO412500  16.230  11.530   5.524  0.0814 -0.1342 -0.2165
  846YOPE   GL112501  15.919  11.670   5.837 -0.1839  0.2592 -0.1112
  846YOPE   GL212502  15.893  11.441   6.077 -0.4123  0.3737  0.1288
  846YOPE   C1A12503  15.975  11.894   6.216  0.1629 -0.0410 -0.0277
  846YOPE   D2A12504  16.150  11.844   6.639  0.0264 -0.2350  0.3342
  846YOPE   C3A12505  15.979  11.688   6.882 -0.0957  0.0221 -0.3625
  846YOPE   C4A12506  15.799  11.337   7.001 -0.2369  0.0634 -0.1215
  846YOPE   C1B12507  16.048  11.292   6.528  0.2032  0.1752  0.2810
  846YOPE   C2B12508  16.216  11.076   6.881 -0.0232  0.2070  0.2363
  846YOPE   D3B12509  16.304  11.233   7.284  0.2190  0.0108 -0.0460
  846YOPE   C4B12510  16.626  11.516   7.382  0.1911 -0.1302  0.1081
  847YOPE   NH312511  18.815   7.245   5.841 -0.0639  0.0384  0.0431
  847YOPE   PO412512  18.941   7.642   5.653  0.2087 -0.0648  0.0627
  847YOPE   GL112513  19.112   7.680   6.013  0.0834 -0.1810  0.4561
  847YOPE   GL212514  18.906   7.669   6.125  0.1889 -0.1774  0.2415
  847YOPE   C1A12515  19.293   7.908   6.429  0.1030  0.2001 -0.1333
  847YOPE   D2A12516  19.063   8.004   6.750 -0.1189  0.0650 -0.1394
  847YOPE   C3A12517  19.200   7.870   7.155  0.1465 -0.2468  0.0399
  847YOPE   C4A12518  19.500   7.750   7.426 -0.1004  0.1528  0.0822
  847YOPE   C1B12519  18.712   7.685   6.465  0.0023  0.0680 -0.3159
  847YOPE   C2B12520  18.570   8.019   6.724 -0.0996 -0.0793  0.5544
  847YOPE   D3B12521  18.403   8.035   7.096 -0.2583  0.1090  0.1289
  847YOPE   C4B12522  18.195   8.199   7.473  0.0830  0.1140  0.0277
  848YOPE   NH312523  16.225  16.268   5.618 -0.0112  0.2007  0.1021
  848YOPE   PO412524  15.947  15.959   5.830  0.1249  0.2216  0.2687
  848YOPE   GL112525  16.168  15.666   5.916 -0.1061  0.0013  0.3066
  848YOPE   GL212526  15.970  15.529   6.222 -0.0132  0.0998 -0.2567
  848YOPE   C1A12527  16.494  15.563   6.256  0.2890 -0.0291  0.3477
  848YOPE   D2A12528  16.524  15.509   6.676 -0.1379  0.2749  0.3673
  848YOPE   C3A12529  16.702  15.485   7.013 -0.2324 -0.0121 -0.2395
  848YOPE   C4A12530  17.059  15.395   7.316 -0.1789 -0.0215 -0.1844
  848YOPE   C1B12531  16.048  15.554   6.705  0.0305  0.2342 -0.2092
  848YOPE   C2B12532  16.198  15.594   7.104  0.1992  0.0788  0.0856
  848YOPE   D3B12533  16.017  15.437   7.488 -0.0188  0.1900 -0.0097
  848YOPE   C4B12534  15.837  15.358   7.863  0.2186 -0.1439  0.3006
  849YOPE   NH312535   7.291  15.955   5.212  0.0168 -0.1235 -0.2443
  849YOPE   PO412536   7.094  16.260   5.402 -0.0109 -0.2355  0.1435
  849YOPE   GL112537   6.989  16.530   5.713  0.0856  0.1224 -0.1228
  849YOPE   GL212538   7.069  16.460   6.052  0.2906 -0.1343  0.4148
  849YOPE   C1A12539   6.720  16.816   5.861 -0.1077 -0.2453 -0.0523
  849YOPE   D2A12540   6.477  17.106   6.155 -0.2749  0.5190 -0.2606
  849YOPE   C3A12541   6.182  17.355   6.094  0.0233  0.3244  0.0048
  849YOPE   C4A12542   6.121  17.831   5.995 -0.0911 -0.3278 -0.1695
  849YOPE   C1B12543   7.310  16.642   6.386  0.1079  0.2579  0.0373
  849YOPE   C2B12544   7.421  17.028   6.596 -0.1888  0.1438 -0.0350
  849YOPE   D3B12545   7.555  17.414   6.834  0.0965 -0.0719  0.1109
  849YOPE   C4B12546   7.748  17.456   7.324 -0.0407 -0.3504  0.0801
  850YOPE   NH312547  10.650   0.718   5.062 -0.0657 -0.1266  0.1770
  850YOPE   PO412548  10.377   0.800   5.333 -0.1392 -0.1149  0.0118
  850YOPE   GL112549  10.428   0.921   5.663  0.2238  0.0392 -0.0822
  850YOPE   GL212550  10.383   1.223   5.672  0.0680 -0.0520 -0.1174
  850YOPE   C1A12551  10.146   0.977   6.043 -0.0652  0.0920  0.0364
  850YOPE   D2A12552  10.192   0.776   6.490 -0.0418  0.1712 -0.1958
  850YOPE   C3A12553  10.070   0.686   6.905  0.1171 -0.1335 -0.0213
  850YOPE   C4A12554   9.950   0.811   7.382 -0.1727  0.1137  0.3925
  850YOPE   C1B12555  10.638   1.167   6.068 -0.1083  0.1530  0.0286
  850YOPE   C2B12556  10.947   1.068   6.255  0.2281 -0.0168 -0.1013
  850YOPE   D3B12557  11.323   1.305   6.451 -0.1506 -0.0301  0.1969
  850YOPE   C4B12558  11.696   1.547   6.561  0.0226 -0.3132 -0.2956
  851YOPE   NH312559   5.971   4.661   5.642 -0.4908 -0.2928 -0.0962
  851YOPE   PO412560   5.682   5.012   5.362 -0.3124 -0.2452 -0.1889
  851YOPE   GL112561   5.573   5.203   5.676 -0.0112  0.0417 -0.2282
  851YOPE   GL212562   5.673   4.982   5.954 -0.2992  0.4406  0.0992
  851YOPE   C1A12563   5.799   5.512   5.997 -0.0306 -0.1173 -0.2694
  851YOPE   D2A12564   5.971   5.533   6.449  0.1013 -0.3667  0.1152
  851YOPE   C3A12565   5.725   5.423   6.732 -0.1596  0.0222 -0.1573
  851YOPE   C4A12566   5.589   5.102   7.036  0.0924 -0.0679  0.4328
  851YOPE   C1B12567   5.528   5.064   6.414  0.0065  0.0585  0.2080
  851YOPE   C2B12568   5.195   5.148   6.684 -0.3914  0.2106 -0.0817
  851YOPE   D3B12569   4.947   5.288   6.988  0.1054 -0.1773 -0.0835
  851YOPE   C4B12570   4.619   5.746   7.162  0.3209 -0.0903  0.1165
  852YOPE   NH312571  15.210  15.147   5.480 -0.0190 -0.0174 -0.2035
  852YOPE   PO412572  15.571  14.973   5.474  0.1642 -0.3683 -0.0928
  852YOPE   GL112573  15.473  15.007   5.929  0.1685  0.3290  0.4628
  852YOPE   GL212574  15.531  15.318   6.019  0.0816  0.0434  0.3331
  852YOPE   C1A12575  15.259  14.959   6.287  0.3087  0.0156 -0.1581
  852YOPE   D2A12576  14.992  14.779   6.625  0.2358 -0.0696  0.1708
  852YOPE   C3A12577  14.876  14.288   6.646  0.0140  0.0117  0.0563
  852YOPE   C4A12578  14.615  13.995   6.561 -0.4555 -0.3032  0.1498
  852YOPE   C1B12579  15.578  15.463   6.465 -0.1940  0.3101  0.0458
  852YOPE   C2B12580  15.425  15.684   6.842 -0.0268  0.0700  0.0915
  852YOPE   D3B12581  15.269  15.599   7.256  0.1293  0.1560 -0.2924
  852YOPE   C4B12582  15.131  15.736   7.758  0.3018 -0.4761 -0.0327
  853YOPE   NH312583   2.330  15.531   5.423 -0.1211  0.3773 -0.0820
  853YOPE   PO412584   2.642  15.579   5.621 -0.3708 -0.1379  0.2097
  853YOPE   GL112585   2.411  15.612   6.020  0.0967 -0.0059  0.4582
  853YOPE   GL212586   2.327  15.369   6.000  0.1464 -0.1672 -0.2383
  853YOPE   C1A12587   2.578  15.911   6.293 -0.2031  0.2336 -0.1351
  853YOPE   D2A12588   2.580  16.059   6.777 -0.1002 -0.0743 -0.1000
  853YOPE   C3A12589   2.873  16.003   7.154  0.2334 -0.1440  0.3218
  853YOPE   C4A12590   2.920  16.313   7.434 -0.1898 -0.2053 -0.4693
  853YOPE   C1B12591   2.219  15.034   6.387  0.1897  0.0415  0.2710
  853YOPE   C2B12592   2.027  15.151   6.796 -0.0659  0.0491  0.2461
  853YOPE   D3B12593   1.979  15.298   7.136  0.0455  0.1210 -0.4888
  853YOPE   C4B12594   2.087  15.343   7.589 -0.1449  0.2814 -0.1981
  854YOPE   NH312595  10.470   6.840   5.079  0.0324  0.3549 -0.2792
  854YOPE   PO412596  10.831   7.070   5.057  0.0124  0.1827  0.0244
  854YOPE   GL112597  10.885   6.817   5.524 -0.2209  0.3306  0.1362
  854YOPE   GL212598  10.603   6.619   5.499 -0.0351  0.1921 -0.0359
  854YOPE   C1A12599  11.092   6.908   5.944 -0.3574  0.1563  0.0473
  854YOPE   D2A12600  11.017   7.132   6.349 -0.1221 -0.1594  0.1974
  854YOPE   C3A12601  10.858   6.994   6.821 -0.1796  0.1204  0.1492
  854YOPE   C4A12602  10.550   6.863   7.186 -0.1614 -0.0345  0.4681
  854YOPE   C1B12603  10.649   6.709   5.996  0.1131  0.3443  0.2126
  854YOPE   C2B12604  10.776   6.696   6.368 -0.5212  0.0142  0.1756
  854YOPE   D3B12605  10.654   6.296   6.482 -0.1677  0.0125  0.0781
  854YOPE   C4B12606  10.727   6.086   6.873  0.0882 -0.1106 -0.2046
  855YOPE   NH312607   9.689   7.118   5.219 -0.2023  0.2262 -0.0084
  855YOPE   PO412608   9.975   6.851   5.288 -0.5998  0.2559 -0.0906
  855YOPE   GL112609   9.748   6.803   5.700  0.1884 -0.1399  0.0481
  855YOPE   GL212610   9.425   6.936   5.657 -0.0670  0.1466  0.1511
  855YOPE   C1A12611   9.532   6.539   6.051 -0.1136 -0.2300  0.1027
  855YOPE   D2A12612   9.418   6.165   6.318  0.0378 -0.0260 -0.3069
  855YOPE   C3A12613   9.231   5.840   6.166  0.0085 -0.1105  0.0023
  855YOPE   C4A12614   9.059   5.451   6.131 -0.0070 -0.0395 -0.3775
  855YOPE   C1B12615   9.416   7.105   6.101  0.3486  0.0551 -0.0442
  855YOPE   C2B12616   9.516   7.236   6.504  0.1400 -0.1199  0.0513
  855YOPE   D3B12617   9.514   7.235   6.963 -0.0550 -0.0330 -0.2195
  855YOPE   C4B12618   9.687   7.162   7.412 -0.2378 -0.3262  0.2036
  856YOPE   NH312619  18.514   6.127   5.874 -0.1524 -0.5018  0.3473
  856YOPE   PO412620  18.131   6.415   5.912  0.1278  0.1644  0.2758
  856YOPE   GL112621  18.285   6.256   6.321 -0.2346  0.3793  0.0727
  856YOPE   GL212622  18.653   6.244   6.352 -0.0225 -0.1818  0.4353
  856YOPE   C1A12623  18.339   6.626   6.527 -0.2719  0.4154  0.0632
  856YOPE   D2A12624  18.398   6.820   6.762 -0.1177  0.0507 -0.2045
  856YOPE   C3A12625  18.564   6.675   7.104  0.1319  0.2661  0.1979
  856YOPE   C4A12626  18.899   6.825   7.302  0.0889 -0.2005 -0.2369
  856YOPE   C1B12627  18.489   6.243   6.786  0.2966  0.1482  0.0209
  856YOPE   C2B12628  18.653   6.240   7.181  0.1736 -0.0861 -0.4223
  856YOPE   D3B12629  18.427   5.966   7.523  0.0751  0.3899 -0.0083
  856YOPE   C4B12630  18.032   5.869   7.760 -0.0378 -0.2170 -0.1626
  857YOPE   NH312631  15.925   1.250   5.858 -0.1436 -0.0574 -0.3289
  857YOPE   PO412632  16.280   1.043   5.954 -0.1516  0.1031 -0.1028
  857YOPE   GL112633  15.972   1.072   6.300  0.1315 -0.1019 -0.0844
  857YOPE   GL212634  15.594   0.909   6.092  0.1085  0.1163  0.0612
  857YOPE   C1A12635  15.950   1.056   6.775 -0.0403 -0.0253  0.0454
  857YOPE   D2A12636  15.984   1.051   7.163 -0.1972  0.1511  0.2666
  857YOPE   C3A12637  16.091   0.638   7.396  0.0757  0.3089 -0.0621
  857YOPE   C4A12638  16.466   0.486   7.500  0.0600  0.0196 -0.0444
  857YOPE   C1B12639  15.458   1.002   6.542  0.1991  0.1280 -0.1020
  857YOPE   C2B12640  15.407   0.990   6.990 -0.1558 -0.1476  0.0030
  857YOPE   D3B12641  15.442   0.933   7.363  0.1171 -0.1174  0.1361
  857YOPE   C4B12642  15.556   0.584   7.685  0.3713 -0.0026  0.2138
  858YOPE   NH312643  18.265   3.407   5.826 -0.0999 -0.0366 -0.0897
  858YOPE   PO412644  17.973   3.116   5.841 -0.0242 -0.0893  0.1839
  858YOPE   GL112645  18.174   3.075   6.196  0.0042  0.2418  0.0183
  858YOPE   GL212646  18.420   2.969   6.146 -0.0540  0.1943 -0.1214
  858YOPE   C1A12647  18.242   3.324   6.542  0.4137 -0.3614 -0.0939
  858YOPE   D2A12648  18.383   3.275   6.936  0.1772  0.1189 -0.1807
  858YOPE   C3A12649  18.306   3.512   7.285  0.2299  0.0126 -0.1349
  858YOPE   C4A12650  17.939   3.673   7.520  0.2728 -0.0713 -0.1237
  858YOPE   C1B12651  18.494   2.838   6.591 -0.1321  0.1278  0.1078
  858YOPE   C2B12652  18.284   2.765   6.935 -0.1562 -0.2589  0.3383
  858YOPE   D3B12653  18.087   2.580   7.150 -0.0970 -0.0458  0.3252
  858YOPE   C4B12654  17.681   2.593   7.351 -0.2170  0.1740  0.2859
  859YOPE   NH312655  16.919   4.039   5.697 -0.1195  0.2665  0.0701
  859YOPE   PO412656  17.214   4.350   5.532  0.1906 -0.2229 -0.0891
  859YOPE   GL112657  17.407   4.126   5.792  0.0618  0.0048 -0.3256
  859YOPE   GL212658  17.725   4.233   5.834 -0.3488  0.0714  0.0692
  859YOPE   C1A12659  17.358   4.094   6.271 -0.2825 -0.2655  0.1381
  859YOPE   D2A12660  17.485   4.137   6.632  0.1173 -0.1095  0.4688
  859YOPE   C3A12661  17.463   4.376   6.994  0.0077 -0.1329  0.0382
  859YOPE   C4A12662  17.795   4.313   7.355 -0.5560  0.1877  0.0246
  859YOPE   C1B12663  17.803   3.817   6.136  0.1672  0.1283 -0.0884
  859YOPE   C2B12664  17.860   3.684   6.557 -0.2761 -0.1130  0.1544
  859YOPE   D3B12665  17.911   3.450   6.979 -0.3997  0.1373  0.0249
  859YOPE   C4B12666  17.971   3.102   7.238  0.0922  0.0990  0.0786
  860YOPE   NH312667   1.468  12.023   5.805 -0.5472  0.1350 -0.4166
  860YOPE   PO412668   1.763  11.826   5.862  0.0788  0.1011 -0.0670
  860YOPE   GL112669   2.050  11.967   6.109 -0.1936  0.0589 -0.1409
  860YOPE   GL212670   2.410  11.880   6.083 -0.1020 -0.4120 -0.1930
  860YOPE   C1A12671   2.050  12.074   6.618 -0.3228 -0.1147  0.0053
  860YOPE   D2A12672   1.992  12.106   7.018  0.1157 -0.0545  0.0912
  860YOPE   C3A12673   1.951  11.776   7.300  0.1186 -0.0925  0.2273
  860YOPE   C4A12674   1.743  11.347   7.301  0.1993 -0.3212 -0.0132
  860YOPE   C1B12675   2.290  11.671   6.374 -0.2036 -0.1360  0.0856
  860YOPE   C2B12676   2.122  11.443   6.594  0.3228  0.0118 -0.0497
  860YOPE   D3B12677   1.804  11.283   6.829  0.2164 -0.0559  0.1569
  860YOPE   C4B12678   1.435  11.192   6.922 -0.1307  0.1976 -0.0790
  861YOPE   NH312679  12.767  10.529   5.507 -0.1457 -0.3690 -0.1568
  861YOPE   PO412680  12.462  10.836   5.400  0.1896  0.1560  0.0918
  861YOPE   GL112681  12.359  10.956   5.872  0.1561  0.3629  0.1486
  861YOPE   GL212682  12.518  10.653   5.959 -0.1840  0.1543 -0.1305
  861YOPE   C1A12683  11.924  10.899   6.227 -0.0959  0.4423  0.4381
  861YOPE   D2A12684  11.911  10.930   6.636  0.2636  0.0889  0.0614
  861YOPE   C3A12685  12.109  10.664   6.990 -0.0069 -0.1860  0.2461
  861YOPE   C4A12686  12.331  10.376   6.885  0.1035 -0.2330 -0.0296
  861YOPE   C1B12687  12.715  10.432   6.287 -0.3172  0.0618 -0.0915
  861YOPE   C2B12688  12.795  10.542   6.648  0.3149 -0.0405  0.2837
  861YOPE   D3B12689  13.164  10.531   6.912 -0.1256  0.0804 -0.2785
  861YOPE   C4B12690  13.111  10.623   7.305 -0.3747  0.2990 -0.1177
  862YOPE   NH312691   3.068  13.930   5.467 -0.1918  0.1072  0.0693
  862YOPE   PO412692   3.156  14.297   5.571  0.5126  0.2083 -0.1497
  862YOPE   GL112693   3.279  14.654   5.855 -0.2680  0.3950 -0.2517
  862YOPE   GL212694   3.043  14.757   5.948  0.1253 -0.1888 -0.1606
  862YOPE   C1A12695   3.539  14.591   6.221  0.1415 -0.1480 -0.0270
  862YOPE   D2A12696   3.812  14.442   6.486  0.2388  0.1363  0.1492
  862YOPE   C3A12697   4.171  14.687   6.599  0.2444 -0.2356 -0.0698
  862YOPE   C4A12698   4.251  14.747   6.993 -0.3301 -0.1700 -0.0389
  862YOPE   C1B12699   3.167  14.920   6.344  0.1297 -0.0654  0.1682
  862YOPE   C2B12700   3.208  14.909   6.883  0.2135 -0.2796  0.1375
  862YOPE   D3B12701   3.079  14.647   7.185 -0.0644  0.2117  0.0033
  862YOPE   C4B12702   2.820  14.563   7.605  0.1214 -0.0455  0.3040
  863YOPE   NH312703  18.895   2.826   5.367 -0.0362  0.1820 -0.0445
  863YOPE   PO412704  18.636   2.674   5.797 -0.2421  0.0994 -0.2361
  863YOPE   GL112705  18.600   2.526   6.122 -0.2125 -0.0047 -0.3511
  863YOPE   GL212706  19.048   2.495   6.099  0.1223 -0.2541 -0.3065
  863YOPE   C1A12707  18.525   2.360   6.522 -0.0176 -0.0667  0.0405
  863YOPE   D2A12708  18.647   2.362   6.983  0.2279 -0.0994 -0.2156
  863YOPE   C3A12709  18.475   2.364   7.455  0.2122 -0.2149 -0.4527
  863YOPE   C4A12710  18.075   2.322   7.618 -0.1364 -0.1448  0.1054
  863YOPE   C1B12711  18.918   2.762   6.408  0.1453  0.3728  0.2015
  863YOPE   C2B12712  18.867   2.827   6.911  0.2056  0.2511 -0.1826
  863YOPE   D3B12713  19.058   2.522   7.198 -0.3618  0.0347  0.2762
  863YOPE   C4B12714  19.291   2.196   7.025  0.1997  0.2497  0.0486
  864YOPE   NH312715  13.832  18.728   5.058 -0.0919 -0.1222  0.0927
  864YOPE   PO412716  14.236  18.943   5.090  0.1917  0.2549  0.0804
  864YOPE   GL112717  14.358  19.154   5.499 -0.1711 -0.0225  0.2965
  864YOPE   GL212718  14.245  19.455   5.672 -0.0476 -0.0040  0.1378
  864YOPE   C1A12719  14.335  18.900   5.866 -0.0360  0.1018  0.1056
  864YOPE   D2A12720  14.335  18.976   6.259 -0.1836 -0.1847 -0.2046
  864YOPE   C3A12721  14.104  18.907   6.577 -0.0866  0.0566 -0.0660
  864YOPE   C4A12722  13.844  18.909   6.934  0.2651  0.1439  0.1253
  864YOPE   C1B12723  14.220  19.646   6.068  0.2784 -0.1186  0.1768
  864YOPE   C2B12724  13.984  19.420   6.434 -0.3312  0.1539 -0.0905
  864YOPE   D3B12725  13.989  19.571   6.882 -0.2495  0.0901 -0.2923
  864YOPE   C4B12726  13.837  19.946   7.209  0.2249  0.1153 -0.1962
  865YOPE   NH312727  14.245   9.370   5.640 -0.2680  0.5884  0.1950
  865YOPE   PO412728  13.986   9.228   5.920 -0.1251  0.0301  0.1510
  865YOPE   GL112729  14.183   9.294   6.327  0.0409  0.0143 -0.1229
  865YOPE   GL212730  14.383   8.980   6.363 -0.0477 -0.4743 -0.0211
  865YOPE   C1A12731  14.221   9.347   6.806  0.0112 -0.1151 -0.3415
  865YOPE   D2A12732  14.393   9.442   7.207  0.0691 -0.0918 -0.2582
  865YOPE   C3A12733  14.096   9.604   7.450 -0.0375  0.2829  0.2332
  865YOPE   C4A12734  13.823   9.935   7.531 -0.0660 -0.1265  0.0879
  865YOPE   C1B12735  14.024   8.940   6.684 -0.0901  0.0496  0.2996
  865YOPE   C2B12736  13.663   8.887   6.785 -0.1525  0.0473  0.0357
  865YOPE   D3B12737  13.562   9.080   7.099 -0.1242 -0.2490  0.1704
  865YOPE   C4B12738  13.214   9.401   7.189  0.0298  0.4872 -0.0613
  866YOPE   NH312739  18.447  12.197   5.468 -0.3317 -0.1747  0.2395
  866YOPE   PO412740  18.160  12.584   5.497 -0.1561 -0.0823  0.2141
  866YOPE   GL112741  18.370  12.499   5.903 -0.1346  0.0159 -0.3854
  866YOPE   GL212742  18.423  12.177   5.981 -0.5089  0.1629  0.0748
  866YOPE   C1A12743  18.456  12.584   6.371 -0.0355 -0.0062  0.4695
  866YOPE   D2A12744  18.383  12.486   6.771  0.0617  0.2226 -0.3112
  866YOPE   C3A12745  18.455  12.131   6.975 -0.3292  0.0401 -0.5316
  866YOPE   C4A12746  18.577  11.826   6.844 -0.1421 -0.2560  0.1610
  866YOPE   C1B12747  18.234  12.035   6.549 -0.2176  0.0383 -0.1120
  866YOPE   C2B12748  18.032  12.132   6.827  0.0103  0.1111 -0.1347
  866YOPE   D3B12749  17.869  12.464   7.018 -0.0054  0.1537 -0.1400
  866YOPE   C4B12750  17.722  12.446   7.427  0.0509 -0.2266  0.1321
  867YOPE   NH312751   3.937   5.800   5.246 -0.1186  0.1402  0.0877
  867YOPE   PO412752   3.735   5.415   5.247  0.0125 -0.2258 -0.1790
  867YOPE   GL112753   3.926   5.481   5.611  0.0780  0.0709  0.2036
  867YOPE   GL212754   3.757   5.761   5.831 -0.1477 -0.0004 -0.1800
  867YOPE   C1A12755   4.208   5.717   5.989 -0.1322 -0.0320  0.0033
  867YOPE   D2A12756   4.559   5.669   6.215 -0.0296 -0.0950  0.3714
  867YOPE   C3A12757   4.903   5.882   6.232  0.1292 -0.1539 -0.1761
  867YOPE   C4A12758   4.992   6.177   6.494 -0.3803 -0.2368  0.1483
  867YOPE   C1B12759   3.541   5.979   6.162  0.0611  0.0305 -0.0917
  867YOPE   C2B12760   3.629   6.182   6.556  0.1576  0.0759  0.3084
  867YOPE   D3B12761   3.281   5.993   6.963  0.0186 -0.0768  0.1897
  867YOPE   C4B12762   2.977   6.111   7.182 -0.0358 -0.2799  0.2845
  868YOPE   NH312763  14.405  15.924   5.271  0.1973 -0.0424  0.2970
  868YOPE   PO412764  14.031  15.775   5.054 -0.1354 -0.0086 -0.1438
  868YOPE   GL112765  13.980  15.870   5.499 -0.1134 -0.1883 -0.1666
  868YOPE   GL212766  14.173  16.064   5.669 -0.1487  0.1943 -0.3347
  868YOPE   C1A12767  13.811  15.782   5.861  0.2660  0.2272  0.2904
  868YOPE   D2A12768  13.725  15.330   6.017 -0.1788 -0.0517  0.0513
  868YOPE   C3A12769  13.716  15.293   6.467  0.2820 -0.1275  0.1748
  868YOPE   C4A12770  13.503  15.503   6.756 -0.4041  0.2933 -0.1448
  868YOPE   C1B12771  14.270  15.840   6.000  0.0314 -0.0166  0.0750
  868YOPE   C2B12772  13.992  15.678   6.406 -0.0990  0.1169  0.0495
  868YOPE   D3B12773  14.012  15.563   6.846 -0.1354 -0.1857  0.0542
  868YOPE   C4B12774  13.641  15.438   7.212 -0.1035  0.1098 -0.0004
  869YOPE   NH312775  15.776  12.902   5.362  0.0324  0.0089  0.0526
  869YOPE   PO412776  16.063  12.566   5.372 -0.1509 -0.1408  0.0991
  869YOPE   GL112777  16.508  12.577   5.713 -0.2432 -0.2551  0.2690
  869YOPE   GL212778  16.697  12.310   5.711 -0.1883  0.0236  0.1256
  869YOPE   C1A12779  16.458  12.631   6.071  0.2101  0.3193  0.1787
  869YOPE   D2A12780  16.464  12.538   6.467 -0.1326  0.0600 -0.1003
  869YOPE   C3A12781  16.571  12.700   6.943  0.2378  0.2261  0.1453
  869YOPE   C4A12782  16.932  12.718   7.170 -0.0649 -0.0968 -0.2044
  869YOPE   C1B12783  16.936  12.313   6.150 -0.1388  0.2350  0.1297
  869YOPE   C2B12784  17.115  11.998   6.479  0.0081 -0.2181  0.2553
  869YOPE   D3B12785  17.015  11.976   6.865 -0.1673 -0.0972 -0.2030
  869YOPE   C4B12786  16.748  12.163   7.219 -0.4830 -0.3666  0.3619
  870YOPE   NH312787   5.601  13.431   5.969 -0.0975  0.0701  0.2858
  870YOPE   PO412788   5.780  13.595   5.648 -0.0931  0.0446  0.0183
  870YOPE   GL112789   6.021  13.745   6.022  0.0369 -0.0972 -0.1055
  870YOPE   GL212790   5.703  13.795   6.307 -0.2889 -0.0422  0.3751
  870YOPE   C1A12791   6.255  13.906   6.271 -0.1433  0.2044 -0.1149
  870YOPE   D2A12792   6.301  13.755   6.553 -0.2576 -0.0024 -0.1328
  870YOPE   C3A12793   6.657  13.509   6.432  0.1619 -0.1388  0.0727
  870YOPE   C4A12794   7.032  13.640   6.332 -0.0870  0.2684  0.3953
  870YOPE   C1B12795   5.813  13.721   6.632 -0.3627 -0.0957  0.0289
  870YOPE   C2B12796   6.190  13.634   7.015  0.1699  0.2521 -0.4039
  870YOPE   D3B12797   6.246  13.465   7.443 -0.1136 -0.2449 -0.0087
  870YOPE   C4B12798   6.520  13.335   7.813 -0.1055  0.0685  0.0662
  871YOPE   NH312799  13.338  17.386   5.523  0.1597 -0.1150  0.0174
  871YOPE   PO412800  13.751  17.241   5.341 -0.0284  0.0599 -0.4390
  871YOPE   GL112801  13.749  17.470   5.765  0.2069  0.2045  0.3529
  871YOPE   GL212802  14.045  17.639   5.892  0.1045  0.0995  0.1171
  871YOPE   C1A12803  13.636  17.583   6.171  0.0807 -0.0280  0.0398
  871YOPE   D2A12804  13.628  17.612   6.638 -0.0536  0.0669 -0.1410
  871YOPE   C3A12805  13.605  17.534   7.063 -0.0151 -0.1226  0.0054
  871YOPE   C4A12806  13.260  17.481   7.431 -0.0923  0.2051 -0.0619
  871YOPE   C1B12807  13.940  17.205   6.110 -0.1751 -0.0817 -0.0239
  871YOPE   C2B12808  13.769  17.143   6.511 -0.0069 -0.0265  0.2648
  871YOPE   D3B12809  13.768  17.095   6.861 -0.1218 -0.0803  0.0661
  871YOPE   C4B12810  13.751  16.980   7.383  0.0328 -0.0667  0.4142
  872YOPE   NH312811   6.695  11.453   5.421  0.0538 -0.3125  0.0895
  872YOPE   PO412812   7.242  11.545   5.214  0.1740  0.0626  0.2902
  872YOPE   GL112813   7.279  11.347   5.606 -0.0384  0.1645 -0.0773
  872YOPE   GL212814   7.239  11.006   5.569  0.1230  0.1343 -0.5023
  872YOPE   C1A12815   7.629  11.186   5.817  0.0061  0.0711 -0.1616
  872YOPE   D2A12816   7.625  10.994   6.278  0.0714 -0.0303  0.7343
  872YOPE   C3A12817   8.037  10.968   6.452 -0.3612 -0.1277 -0.2130
  872YOPE   C4A12818   8.289  10.858   6.808  0.0647  0.2224 -0.0828
  872YOPE   C1B12819   7.182  10.936   5.960  0.3702 -0.0109  0.0792
  872YOPE   C2B12820   7.226  10.736   6.407  0.0573  0.0125 -0.1038
  872YOPE   D3B12821   7.259  10.408   6.577 -0.0824  0.0838 -0.3515
  872YOPE   C4B12822   7.385  10.163   6.880  0.2606 -0.0095  0.1751
  873YOPE   NH312823  11.453  12.261   5.197  0.1526  0.0302 -0.0531
  873YOPE   PO412824  11.042  12.090   5.360 -0.0297 -0.2220  0.0440
  873YOPE   GL112825  11.156  12.177   5.799  0.1112  0.0398  0.1424
  873YOPE   GL212826  10.816  12.174   5.874 -0.0770 -0.0661  0.0516
  873YOPE   C1A12827  11.246  11.891   5.989 -0.1593  0.1498 -0.3336
  873YOPE   D2A12828  11.229  11.636   6.228  0.0885  0.0479  0.2552
  873YOPE   C3A12829  10.864  11.503   6.254  0.2857  0.0159  0.2540
  873YOPE   C4A12830  10.640  11.131   6.097  0.0860  0.2492 -0.3285
  873YOPE   C1B12831  10.871  12.046   6.288  0.2871  0.2361  0.0338
  873YOPE   C2B12832  11.110  11.947   6.647  0.0769 -0.0983 -0.2425
  873YOPE   D3B12833  11.344  12.125   6.917  0.1620 -0.0649 -0.0881
  873YOPE   C4B12834  11.746  12.368   7.133 -0.3734 -0.0113  0.1617
  874YOPE   NH312835   9.266  17.158   5.258 -0.2686  0.3263 -0.1473
  874YOPE   PO412836   9.070  16.673   5.264  0.2093 -0.0326 -0.1481
  874YOPE   GL112837   8.989  16.673   5.659  0.2197  0.5968  0.1106
  874YOPE   GL212838   9.127  16.856   5.781  0.1798 -0.0367  0.0270
  874YOPE   C1A12839   8.686  16.716   5.999  0.1860 -0.0947  0.2756
  874YOPE   D2A12840   8.712  16.750   6.407 -0.0596  0.0663 -0.0887
  874YOPE   C3A12841   8.414  16.909   6.715  0.0569  0.2297 -0.3193
  874YOPE   C4A12842   8.276  17.152   7.103  0.1277 -0.0569  0.4165
  874YOPE   C1B12843   9.145  16.636   6.193 -0.5010 -0.1264  0.0902
  874YOPE   C2B12844   9.130  16.270   6.389  0.2208  0.2201  0.3312
  874YOPE   D3B12845   9.198  16.379   6.829  0.3217  0.0122 -0.2835
  874YOPE   C4B12846   9.301  16.315   7.178  0.2264 -0.1479 -0.1162
  875YOPE   NH312847   2.205   4.376   5.477  0.0076 -0.3401 -0.2424
  875YOPE   PO412848   2.663   4.440   5.272  0.0745  0.0634 -0.2631
  875YOPE   GL112849   2.650   4.661   5.667 -0.0226 -0.1055  0.0705
  875YOPE   GL212850   2.900   4.600   5.918 -0.3250  0.0390  0.0705
  875YOPE   C1A12851   2.481   4.858   5.948 -0.0783 -0.2192  0.1669
  875YOPE   D2A12852   2.303   5.297   6.073  0.1198 -0.0784  0.2828
  875YOPE   C3A12853   1.905   5.302   6.192 -0.3076 -0.0395 -0.0493
  875YOPE   C4A12854   1.694   5.515   6.562  0.0643 -0.2081  0.1474
  875YOPE   C1B12855   3.263   4.516   5.974  0.1931 -0.0422  0.0742
  875YOPE   C2B12856   3.628   4.376   6.189  0.0282  0.2623 -0.2605
  875YOPE   D3B12857   3.982   4.289   6.474  0.2560 -0.0372 -0.1148
  875YOPE   C4B12858   4.324   4.471   6.555  0.3147  0.0199 -0.0899
  876YOPE   NH312859  11.122   1.862   5.469  0.3999 -0.1397 -0.1991
  876YOPE   PO412860  11.030   1.450   5.213 -0.0562 -0.0059 -0.1098
  876YOPE   GL112861  11.109   1.369   5.630  0.2851  0.4800 -0.0311
  876YOPE   GL212862  11.048   1.621   5.942 -0.2404  0.0772  0.0245
  876YOPE   C1A12863  11.399   1.044   5.985  0.0042  0.1726  0.1065
  876YOPE   D2A12864  11.609   0.709   6.363  0.1396 -0.4069 -0.2969
  876YOPE   C3A12865  11.624   0.786   6.837  0.1161 -0.0643 -0.1954
  876YOPE   C4A12866  11.395   0.704   7.241 -0.2454  0.1411  0.2819
  876YOPE   C1B12867  11.298   1.794   6.289  0.0176  0.0901 -0.2191
  876YOPE   C2B12868  11.355   2.210   6.412  0.1611  0.1681  0.2174
  876YOPE   D3B12869  11.350   2.342   6.810 -0.1189  0.0614 -0.0822
  876YOPE   C4B12870  11.052   2.311   7.161 -0.0024  0.3734  0.1832
  877YOPE   NH312871   2.932  10.541   5.655  0.1470  0.0529 -0.0947
  877YOPE   PO412872   3.370  10.243   5.751 -0.0857 -0.2128  0.3014
  877YOPE   GL112873   3.208   9.828   6.016 -0.1996  0.0721 -0.1366
  877YOPE   GL212874   3.589   9.832   6.152  0.2342 -0.4385 -0.2157
  877YOPE   C1A12875   3.129   9.852   6.425 -0.1481  0.1454 -0.3965
  877YOPE   D2A12876   3.233  10.166   6.658 -0.1407  0.4926  0.2912
  877YOPE   C3A12877   3.316  10.305   6.993 -0.0284 -0.1151  0.2415
  877YOPE   C4A12878   3.455  10.427   7.317  0.0154  0.2002  0.0568
  877YOPE   C1B12879   3.633   9.654   6.436  0.2366  0.1782 -0.2409
  877YOPE   C2B12880   3.553   9.821   6.808 -0.0586  0.0092  0.0998
  877YOPE   D3B12881   3.704  10.049   7.115  0.2315 -0.1847 -0.0410
  877YOPE   C4B12882   3.999  10.241   7.361  0.1682  0.0272 -0.0797
  878YOPE   NH312883  15.704   2.779   5.787 -0.0854  0.0624 -0.3923
  878YOPE   PO412884  15.261   2.624   5.719 -0.0824  0.0129  0.4639
  878YOPE   GL112885  15.319   2.718   6.110 -0.2368  0.1663 -0.2384
  878YOPE   GL212886  15.662   2.546   6.252 -0.2877 -0.2382  0.1434
  878YOPE   C1A12887  15.119   2.663   6.420  0.0808 -0.0546  0.1149
  878YOPE   D2A12888  15.216   2.317   6.726  0.2690 -0.0883  0.2744
  878YOPE   C3A12889  15.338   2.565   7.017 -0.0296  0.1877  0.1787
  878YOPE   C4A12890  15.270   2.409   7.407 -0.0304  0.1440 -0.2646
  878YOPE   C1B12891  15.720   2.365   6.585  0.2974  0.0748 -0.1902
  878YOPE   C2B12892  15.820   2.387   7.012 -0.1541  0.1165 -0.1375
  878YOPE   D3B12893  15.801   2.347   7.483 -0.2316 -0.1118 -0.2155
  878YOPE   C4B12894  15.863   2.214   7.833 -0.2934  0.1617  0.1895
  879YOPE   NH312895  14.855   9.675   5.504  0.0307 -0.0449 -0.0084
  879YOPE   PO412896  14.541   9.774   5.673  0.0160  0.1503 -0.0219
  879YOPE   GL112897  14.583   9.836   6.061 -0.0443  0.0198 -0.1971
  879YOPE   GL212898  14.430   9.719   6.357 -0.1728 -0.1679  0.1508
  879YOPE   C1A12899  14.888   9.913   6.381  0.3753 -0.2482  0.1723
  879YOPE   D2A12900  14.997  10.130   6.780  0.1300  0.1366 -0.1668
  879YOPE   C3A12901  15.424  10.355   6.882 -0.0446  0.2466  0.0904
  879YOPE   C4A12902  15.857  10.417   6.964 -0.1586  0.1285 -0.2316
  879YOPE   C1B12903  14.552   9.735   6.739 -0.1402 -0.1264  0.1442
  879YOPE   C2B12904  14.609   9.915   7.034 -0.0981  0.1845 -0.0696
  879YOPE   D3B12905  14.742  10.178   7.294  0.2331 -0.0213  0.0042
  879YOPE   C4B12906  15.270  10.323   7.334 -0.0763 -0.3789 -0.3266
  880YOPE   NH312907   3.825  17.379   5.558  0.0838 -0.2605 -0.0715
  880YOPE   PO412908   3.577  17.895   5.542 -0.2487  0.1000 -0.2130
  880YOPE   GL112909   3.792  18.073   5.786  0.1753  0.5183  0.2279
  880YOPE   GL212910   3.956  17.719   5.953  0.1238  0.0611 -0.0840
  880YOPE   C1A12911   3.619  18.171   6.161 -0.1776  0.2750 -0.1191
  880YOPE   D2A12912   3.512  18.614   6.432 -0.2157  0.0410  0.1232
  880YOPE   C3A12913   3.705  18.825   6.788  0.2042  0.2470 -0.2183
  880YOPE   C4A12914   3.898  18.730   7.220  0.0818 -0.1985 -0.0199
  880YOPE   C1B12915   4.096  18.026   6.253 -0.3981  0.2198  0.3180
  880YOPE   C2B12916   4.188  17.962   6.701  0.3487 -0.0602 -0.0012
  880YOPE   D3B12917   4.155  17.814   7.130  0.0755 -0.0357 -0.0545
  880YOPE   C4B12918   4.052  17.727   7.571  0.2224 -0.1359 -0.2141
  881YOPE   NH312919   2.456   5.308   5.529 -0.3269  0.1006 -0.0028
  881YOPE   PO412920   2.801   5.640   5.441  0.3928  0.3350  0.4872
  881YOPE   GL112921   2.922   5.898   5.710  0.0186  0.2626  0.0367
  881YOPE   GL212922   2.946   6.212   5.464 -0.2881  0.0547 -0.1746
  881YOPE   C1A12923   3.047   6.000   6.123  0.0407 -0.1913  0.2951
  881YOPE   D2A12924   3.070   6.174   6.555 -0.1546 -0.1322  0.0381
  881YOPE   C3A12925   3.313   6.608   6.428 -0.3598 -0.0890 -0.0062
  881YOPE   C4A12926   3.334   6.959   6.097  0.1398 -0.0545 -0.2899
  881YOPE   C1B12927   3.079   6.448   5.841 -0.0170 -0.1508 -0.2690
  881YOPE   C2B12928   2.942   6.665   6.099  0.3598 -0.1088 -0.0901
  881YOPE   D3B12929   2.938   6.945   6.506 -0.1374 -0.2934 -0.0009
  881YOPE   C4B12930   2.729   7.102   6.817 -0.1788 -0.2318  0.0895
  882YOPE   NH312931  18.051   3.585   5.093  0.0098  0.2587  0.0258
  882YOPE   PO412932  18.347   3.598   5.397 -0.1717  0.3625  0.3113
  882YOPE   GL112933  18.674   3.681   5.835  0.1413 -0.0583 -0.3161
  882YOPE   GL212934  18.718   4.029   6.018  0.0449  0.2626  0.1242
  882YOPE   C1A12935  19.054   3.696   6.076 -0.1561 -0.0749  0.0543
  882YOPE   D2A12936  19.231   3.858   6.474 -0.3481  0.1427 -0.0199
  882YOPE   C3A12937  19.188   4.236   6.659 -0.0301 -0.2044  0.0012
  882YOPE   C4A12938  19.292   4.684   6.883  0.0362 -0.0024 -0.2530
  882YOPE   C1B12939  18.467   3.739   6.327  0.2991 -0.3412 -0.0773
  882YOPE   C2B12940  18.304   3.761   6.811  0.0373  0.1089 -0.1801
  882YOPE   D3B12941  18.429   4.028   7.054  0.1615  0.1462  0.1235
  882YOPE   C4B12942  18.662   4.134   7.330 -0.0300  0.0573  0.1983
  883YOPE   NH312943  18.717   8.266   5.296 -0.1468  0.0546  0.2121
  883YOPE   PO412944  19.092   8.448   5.478 -0.1711  0.0966 -0.1044
  883YOPE   GL112945  19.212   8.666   5.814  0.0464  0.2311 -0.1851
  883YOPE   GL212946  19.064   8.501   5.990  0.1558 -0.0332  0.1377
  883YOPE   C1A12947  19.512   9.009   5.983 -0.1396 -0.3263 -0.0387
  883YOPE   D2A12948  19.692   9.487   5.983 -0.0467  0.1716 -0.0042
  883YOPE   C3A12949  19.597   9.793   6.348  0.5134 -0.2945 -0.1459
  883YOPE   C4A12950  19.571  10.172   6.413 -0.1061  0.1561  0.0052
  883YOPE   C1B12951  19.302   8.223   6.084  0.1030  0.1388  0.0902
  883YOPE   C2B12952  19.616   7.895   6.091  0.1165  0.1581  0.0622
  883YOPE   D3B12953  19.724   7.488   6.032  0.1741  0.1000 -0.0296
  883YOPE   C4B12954  19.522   7.102   6.059  0.0775  0.2028 -0.0012
  884YOPE   NH312955  10.057  12.625   4.600  0.3654 -0.1112  0.2228
  884YOPE   PO412956  10.259  12.447   5.024 -0.0147 -0.2275 -0.1823
  884YOPE   GL112957  10.320  12.552   5.450 -0.2185  0.2723  0.0180
  884YOPE   GL212958  10.051  12.545   5.641 -0.0143  0.1604  0.0037
  884YOPE   C1A12959  10.492  12.550   5.880 -0.1463 -0.1987 -0.1150
  884YOPE   D2A12960  10.403  12.339   6.209  0.0898 -0.0672 -0.0009
  884YOPE   C3A12961  10.123  12.368   6.573  0.1010  0.1270 -0.3647
  884YOPE   C4A12962   9.719  12.314   6.705  0.0475  0.1623  0.2622
  884YOPE   C1B12963   9.882  12.496   6.124  0.1492  0.5641 -0.2386
  884YOPE   C2B12964   9.657  12.701   6.337 -0.0483  0.2147 -0.1291
  884YOPE   D3B12965   9.273  12.999   6.365 -0.1782 -0.1600 -0.2534
  884YOPE   C4B12966   8.826  12.987   6.388 -0.3116  0.0313  0.0601
  885YOPE   NH312967   7.601   6.305   5.321  0.0698  0.0117  0.0576
  885YOPE   PO412968   7.343   5.967   5.533 -0.0779  0.1144  0.1165
  885YOPE   GL112969   7.401   6.171   5.854  0.2932 -0.0437 -0.0984
  885YOPE   GL212970   7.241   6.389   5.924 -0.0628 -0.2682  0.1613
  885YOPE   C1A12971   7.697   6.087   6.192  0.0169 -0.1518 -0.1073
  885YOPE   D2A12972   7.569   6.079   6.516 -0.3731  0.0233 -0.3395
  885YOPE   C3A12973   7.590   6.342   7.007 -0.1760 -0.3621  0.0199
  885YOPE   C4A12974   7.858   6.630   6.967  0.1693  0.1196  0.0236
  885YOPE   C1B12975   6.989   6.489   6.066 -0.0683  0.0509  0.1127
  885YOPE   C2B12976   6.689   6.407   6.417 -0.2583  0.1776  0.0438
  885YOPE   D3B12977   6.401   6.054   6.383  0.0097  0.0301  0.0539
  885YOPE   C4B12978   6.221   5.771   6.097 -0.1948 -0.2871 -0.1384
  886YOPE   NH312979  12.264  15.461   5.390 -0.2634  0.0292  0.0013
  886YOPE   PO412980  12.418  15.777   5.413  0.1543  0.0762 -0.0238
  886YOPE   GL112981  12.228  15.693   5.867 -0.1259 -0.1292 -0.1860
  886YOPE   GL212982  11.900  15.609   5.834  0.2380 -0.0397  0.1400
  886YOPE   C1A12983  12.201  15.616   6.346  0.1521  0.2863  0.0392
  886YOPE   D2A12984  12.478  15.442   6.521  0.0604 -0.2051 -0.0339
  886YOPE   C3A12985  12.875  15.554   6.537  0.2737 -0.0312 -0.3106
  886YOPE   C4A12986  13.090  15.184   6.517  0.1266  0.2188  0.0133
  886YOPE   C1B12987  11.739  15.399   6.250  0.0251 -0.3042  0.4718
  886YOPE   C2B12988  11.462  15.371   6.658  0.0706  0.3986  0.1489
  886YOPE   D3B12989  11.114  15.628   6.682 -0.4410 -0.3282  0.1082
  886YOPE   C4B12990  10.952  15.810   7.016  0.0203  0.3385 -0.0669
  887YOPE   NH312991   4.875   0.244   5.108 -0.1757 -0.1459  0.5916
  887YOPE   PO412992   4.817   0.677   5.099 -0.2384 -0.0739 -0.2542
  887YOPE   GL112993   4.879   0.628   5.488 -0.2193  0.0776  0.0685
  887YOPE   GL212994   4.949   0.275   5.587 -0.0693 -0.2729 -0.4225
  887YOPE   C1A12995   4.665   0.488   5.902 -0.1291  0.3315 -0.3032
  887YOPE   D2A12996   4.359   0.311   6.200  0.2804 -0.0813 -0.1408
  887YOPE   C3A12997   4.408   0.560   6.462 -0.1903 -0.4088 -0.1727
  887YOPE   C4A12998   4.511   0.578   6.846  0.0893  0.2519 -0.1874
  887YOPE   C1B12999   5.142   0.616   5.993  0.1434 -0.0550 -0.2937
  887YOPE   C2B13000   5.269   1.005   6.099  0.2283  0.0480 -0.1103
  887YOPE   D3B13001   5.374   1.364   6.142  0.0242 -0.0594  0.3047
  887YOPE   C4B13002   5.297   1.666   6.550 -0.0005  0.2554  0.0793
  888YOPE   NH313003   1.256  14.462   5.115 -0.1735 -0.1322  0.0323
  888YOPE   PO413004   1.532  14.674   5.347  0.1268 -0.4260  0.2528
  888YOPE   GL113005   1.478  14.562   5.691  0.1693 -0.0300 -0.0913
  888YOPE   GL213006   1.313  14.185   5.693  0.0302  0.1958 -0.0485
  888YOPE   C1A13007   1.346  14.519   6.073  0.0472 -0.2022 -0.0279
  888YOPE   D2A13008   1.327  14.238   6.429 -0.0087 -0.1485  0.5404
  888YOPE   C3A13009   1.107  14.250   6.723  0.1494  0.1420 -0.0516
  888YOPE   C4A13010   0.708  14.340   7.004 -0.1119  0.0761 -0.0806
  888YOPE   C1B13011   1.670  14.175   6.012 -0.1984 -0.2774  0.1039
  888YOPE   C2B13012   1.812  14.225   6.386  0.0953 -0.3361 -0.0314
  888YOPE   D3B13013   2.126  14.409   6.665 -0.1578  0.0825  0.2227
  888YOPE   C4B13014   2.460  14.212   6.758 -0.1548 -0.2768  0.0656
  889YOPE   NH313015   6.769   6.827   5.520 -0.0098  0.3188  0.1842
  889YOPE   PO413016   6.675   7.202   5.414 -0.0669  0.1874 -0.0760
  889YOPE   GL113017   6.742   7.143   5.903  0.2442  0.1008 -0.0487
  889YOPE   GL213018   6.952   6.962   5.947 -0.2273 -0.3704 -0.0569
  889YOPE   C1A13019   6.501   6.807   6.258  0.2142 -0.2361 -0.2134
  889YOPE   D2A13020   6.469   6.840   6.671  0.1509  0.1238  0.2424
  889YOPE   C3A13021   6.208   6.928   6.957  0.0556 -0.1837 -0.0034
  889YOPE   C4A13022   6.047   7.345   7.046  0.2927  0.2759  0.4283
  889YOPE   C1B13023   7.340   6.880   6.098  0.1088  0.0387  0.1971
  889YOPE   C2B13024   7.766   6.703   6.201 -0.5259 -0.2451  0.0952
  889YOPE   D3B13025   8.013   6.580   6.530  0.1172  0.0982 -0.1729
  889YOPE   C4B13026   8.372   6.579   6.815 -0.2413  0.2296 -0.0989
  890YOPE   NH313027  14.299  15.359   5.404 -0.0178 -0.0181 -0.0500
  890YOPE   PO413028  14.587  15.058   5.441  0.2902 -0.2606  0.0958
  890YOPE   GL113029  14.362  14.974   5.817  0.1994 -0.0148  0.1790
  890YOPE   GL213030  14.200  15.278   5.919 -0.0447 -0.1731 -0.1651
  890YOPE   C1A13031  14.253  14.555   6.033 -0.0104  0.1891  0.0954
  890YOPE   D2A13032  14.152  14.223   5.726 -0.1543 -0.0535 -0.1502
  890YOPE   C3A13033  14.475  14.030   5.498  0.0236  0.3344 -0.1685
  890YOPE   C4A13034  14.897  14.017   5.552 -0.1988  0.2702  0.1197
  890YOPE   C1B13035  14.158  15.203   6.334  0.1193 -0.3140  0.0140
  890YOPE   C2B13036  14.059  15.127   6.754 -0.1806  0.0834 -0.0529
  890YOPE   D3B13037  14.268  14.742   6.960  0.0436  0.0469  0.1976
  890YOPE   C4B13038  14.653  14.620   7.052  0.1041 -0.0050  0.1515
  891YOPE   NH313039  12.907   9.388   5.414  0.2763  0.0908 -0.2963
  891YOPE   PO413040  13.002   9.107   5.686 -0.2191  0.1814  0.3765
  891YOPE   GL113041  12.964   8.836   6.062  0.2055  0.1203 -0.3511
  891YOPE   GL213042  12.683   8.984   6.239  0.3120  0.1526 -0.1122
  891YOPE   C1A13043  12.660   8.407   6.220 -0.0130  0.1165  0.1148
  891YOPE   D2A13044  12.438   8.179   6.574  0.0741 -0.0050  0.0575
  891YOPE   C3A13045  12.326   8.465   6.903 -0.0781  0.0696  0.3058
  891YOPE   C4A13046  12.065   8.869   6.962 -0.2056 -0.0380  0.2634
  891YOPE   C1B13047  12.792   8.638   6.644 -0.1434  0.1075  0.2597
  891YOPE   C2B13048  12.840   8.301   6.830 -0.0314 -0.1513 -0.0241
  891YOPE   D3B13049  13.312   8.002   6.780 -0.1388  0.2854  0.0711
  891YOPE   C4B13050  13.336   7.829   7.149  0.2687 -0.2742  0.1305
  892YOPE   NH313051   2.395   2.931   5.496 -0.1983 -0.2249 -0.2224
  892YOPE   PO413052   2.448   3.389   5.438 -0.0560  0.1209 -0.0583
  892YOPE   GL113053   2.157   3.406   5.753  0.0020 -0.0386  0.0740
  892YOPE   GL213054   2.106   3.764   5.913 -0.1604 -0.2706 -0.0064
  892YOPE   C1A13055   2.321   3.334   6.248  0.0503 -0.0062  0.0311
  892YOPE   D2A13056   2.593   2.987   6.318  0.1486 -0.0256 -0.0939
  892YOPE   C3A13057   2.460   2.534   6.266 -0.3468 -0.2028 -0.1363
  892YOPE   C4A13058   2.667   2.216   6.178  0.0619  0.0963 -0.2459
  892YOPE   C1B13059   2.213   3.856   6.279 -0.1226  0.1733 -0.3601
  892YOPE   C2B13060   1.906   3.924   6.642 -0.0182  0.2929 -0.1684
  892YOPE   D3B13061   1.527   4.024   6.827  0.0465 -0.0443  0.0265
  892YOPE   C4B13062   1.153   3.851   7.065  0.0243  0.0051 -0.0485
  893YOPE   NH313063  12.100   8.708   5.506 -0.0389 -0.3945 -0.1129
  893YOPE   PO413064  11.627   8.534   5.344  0.0339  0.0922 -0.1340
  893YOPE   GL113065  11.632   8.432   5.745  0.0212  0.7428 -0.0591
  893YOPE   GL213066  11.817   8.459   5.936 -0.1099 -0.0594  0.0209
  893YOPE   C1A13067  11.425   8.346   6.206  0.1144 -0.0542 -0.3473
  893YOPE   D2A13068  11.248   8.362   6.721  0.1203  0.1426 -0.2042
  893YOPE   C3A13069  11.051   8.592   7.063  0.1673  0.1804 -0.1775
  893YOPE   C4A13070  11.206   8.869   7.387  0.0274  0.0807  0.2527
  893YOPE   C1B13071  12.061   8.476   6.255 -0.1584  0.2801 -0.4346
  893YOPE   C2B13072  12.324   8.681   6.412 -0.5925 -0.0275 -0.0009
  893YOPE   D3B13073  12.324   9.152   6.554  0.1134 -0.1168 -0.0690
  893YOPE   C4B13074  12.233   9.589   6.671  0.0384 -0.4679 -0.0111
  894YOPE   NH313075   6.033   9.939   5.390  0.0661  0.0578  0.2307
  894YOPE   PO413076   6.365  10.047   5.182  0.0048  0.0901 -0.2493
  894YOPE   GL113077   6.547  10.045   5.559 -0.0214  0.1425 -0.1140
  894YOPE   GL213078   6.763  10.231   5.684 -0.0681  0.2242 -0.0287
  894YOPE   C1A13079   6.640   9.842   5.949 -0.0678 -0.2683 -0.2460
  894YOPE   D2A13080   6.453   9.863   6.420 -0.1048 -0.2924  0.0235
  894YOPE   C3A13081   6.612   9.876   6.849  0.1889 -0.0054  0.2652
  894YOPE   C4A13082   7.037   9.624   7.018  0.3120  0.1377  0.1907
  894YOPE   C1B13083   6.926  10.238   6.075 -0.4443 -0.3029 -0.0625
  894YOPE   C2B13084   6.914  10.085   6.409 -0.1304 -0.2558 -0.1036
  894YOPE   D3B13085   6.939   9.742   6.460 -0.1318  0.2242 -0.3322
  894YOPE   C4B13086   7.115   9.395   6.585 -0.1210  0.0681 -0.1411
  895YOPE   NH313087   4.671   8.533   5.321 -0.0937 -0.1878 -0.1515
  895YOPE   PO413088   5.019   8.806   5.459 -0.1332 -0.0342 -0.0385
  895YOPE   GL113089   4.823   8.653   5.793  0.2318 -0.4464  0.0002
  895YOPE   GL213090   4.466   8.384   5.756 -0.0965 -0.3335 -0.1722
  895YOPE   C1A13091   4.628   8.444   6.208 -0.0837  0.0179  0.0649
  895YOPE   D2A13092   4.564   8.283   6.603 -0.2903  0.0661 -0.0120
  895YOPE   C3A13093   4.831   8.597   6.828 -0.1640  0.0135  0.0187
  895YOPE   C4A13094   4.729   9.052   7.030 -0.0032 -0.2425  0.2663
  895YOPE   C1B13095   4.654   8.020   5.715  0.0250 -0.0468 -0.0350
  895YOPE   C2B13096   4.829   7.614   5.868  0.0826  0.1254 -0.0004
  895YOPE   D3B13097   5.068   7.373   5.647 -0.0610 -0.0588 -0.2363
  895YOPE   C4B13098   5.432   7.032   5.853 -0.0676  0.0247 -0.0079
  896YOPE   NH313099  10.271  13.759   5.179 -0.0013  0.0481 -0.0200
  896YOPE   PO413100  10.220  14.162   5.186 -0.0252 -0.2241 -0.0769
  896YOPE   GL113101   9.950  14.053   5.534  0.0883  0.2590  0.1450
  896YOPE   GL213102   9.925  13.929   5.801 -0.0350  0.2020 -0.2058
  896YOPE   C1A13103   9.571  14.117   5.504  0.0495 -0.0798 -0.3559
  896YOPE   D2A13104   9.342  14.007   5.887 -0.0259  0.0262  0.0175
  896YOPE   C3A13105   9.143  14.068   6.260 -0.1703  0.0177 -0.1833
  896YOPE   C4A13106   8.923  13.905   6.610 -0.3285  0.0768 -0.1737
  896YOPE   C1B13107   9.789  13.827   6.218 -0.0292  0.0763 -0.1011
  896YOPE   C2B13108   9.787  13.707   6.607 -0.2367  0.0924  0.0799
  896YOPE   D3B13109   9.698  13.516   7.006  0.1425 -0.0616 -0.1461
  896YOPE   C4B13110   9.800  13.148   7.211  0.1022  0.2847 -0.3104
  897YOPE   NH313111  14.587   3.130   5.967 -0.1529 -0.2330  0.0757
  897YOPE   PO413112  14.321   2.695   6.016  0.0109 -0.0378 -0.1260
  897YOPE   GL113113  14.383   2.858   6.322  0.2064  0.0528 -0.1917
  897YOPE   GL213114  14.650   2.959   6.486  0.3187  0.2130 -0.0211
  897YOPE   C1A13115  14.250   2.699   6.748  0.3719 -0.0123 -0.1875
  897YOPE   D2A13116  14.021   2.487   7.072  0.0637  0.0758  0.2446
  897YOPE   C3A13117  13.571   2.349   6.992 -0.0014 -0.0408 -0.0697
  897YOPE   C4A13118  13.136   2.425   6.953  0.2273  0.1406 -0.0975
  897YOPE   C1B13119  14.738   3.051   6.974 -0.0969  0.1215  0.0958
  897YOPE   C2B13120  14.765   3.133   7.421  0.0223 -0.1485  0.0132
  897YOPE   D3B13121  14.921   3.488   7.691 -0.1666 -0.0024  0.1246
  897YOPE   C4B13122  14.974   3.886   7.764 -0.1553  0.0417  0.0212
  898YOPE   NH313123  10.755   0.276   5.208 -0.0107  0.1295 -0.1516
  898YOPE   PO413124  10.742   0.057   5.455 -0.0851 -0.4389 -0.0159
  898YOPE   GL113125  10.631   0.169   5.847  0.0073  0.4471 -0.0824
  898YOPE   GL213126  10.993   0.154   5.915  0.1350 -0.1459 -0.2927
  898YOPE   C1A13127  10.332   0.255   6.165  0.2169 -0.3280  0.4455
  898YOPE   D2A13128  10.062   0.217   6.496  0.4611  0.2061 -0.1644
  898YOPE   C3A13129   9.877   0.226   6.927  0.3824 -0.0408 -0.0268
  898YOPE   C4A13130   9.824   0.329   7.428 -0.0756 -0.4556  0.0013
  898YOPE   C1B13131  10.859   0.193   6.346  0.1673 -0.3393 -0.0870
  898YOPE   C2B13132  10.844   0.053   6.712 -0.0058  0.0067 -0.0770
  898YOPE   D3B13133  10.683   0.126   7.136 -0.0491 -0.0775 -0.0765
  898YOPE   C4B13134  10.273   0.253   7.272  0.3067  0.1519  0.0504
  899YOPE   NH313135   9.352  11.423   5.428 -0.2110 -0.3241  0.2770
  899YOPE   PO413136   9.627  11.818   5.130  0.1661  0.1329 -0.3692
  899YOPE   GL113137   9.588  11.832   5.650 -0.0186  0.2234  0.0361
  899YOPE   GL213138   9.518  12.219   5.770 -0.1212  0.3689  0.2088
  899YOPE   C1A13139   9.405  11.623   6.070  0.1034  0.1996 -0.0804
  899YOPE   D2A13140   9.402  11.450   6.544 -0.2645 -0.0678 -0.1991
  899YOPE   C3A13141   9.350  11.404   7.137 -0.2365 -0.2814  0.1153
  899YOPE   C4A13142   9.563  11.407   7.482  0.1047  0.0045 -0.1853
  899YOPE   C1B13143   9.446  12.259   6.114  0.1283 -0.2521  0.1985
  899YOPE   C2B13144   9.269  11.971   6.431  0.2239 -0.1244  0.1093
  899YOPE   D3B13145   9.200  11.833   6.807  0.2214 -0.0972 -0.1921
  899YOPE   C4B13146   9.430  11.935   7.113  0.0262  0.2911 -0.0144
  900YOPE   NH313147   3.814  10.028   5.624  0.1244  0.2210 -0.1873
  900YOPE   PO413148   4.178   9.806   5.560  0.0455 -0.3346 -0.1080
  900YOPE   GL113149   4.229   9.654   6.007 -0.5138 -0.2533  0.0770
  900YOPE   GL213150   4.524   9.467   6.061  0.2302 -0.0353  0.2758
  900YOPE   C1A13151   4.160   9.377   6.445  0.0978 -0.1647 -0.0811
  900YOPE   D2A13152   4.204   9.169   6.811  0.0548  0.1660  0.0434
  900YOPE   C3A13153   4.362   9.507   7.069 -0.3266 -0.0009  0.0147
  900YOPE   C4A13154   4.486   9.939   7.209  0.2657  0.2804  0.1110
  900YOPE   C1B13155   4.524   9.781   6.408 -0.1843 -0.1776  0.0087
  900YOPE   C2B13156   4.616  10.070   6.721 -0.2284 -0.2472  0.2781
  900YOPE   D3B13157   4.944  10.098   7.055  0.2375  0.4671  0.0620
  900YOPE   C4B13158   5.200  10.316   7.471  0.0442  0.1278  0.1754
  901POPC   NC313159  14.097  16.748   5.417 -0.0983 -0.0117  0.0772
  901POPC   PO413160  14.401  16.471   5.364 -0.1461 -0.2402 -0.0310
  901POPC   GL113161  14.402  16.494   5.739  0.3247  0.1587 -0.0525
  901POPC   GL213162  14.707  16.460   5.987  0.1043 -0.0089 -0.2081
  901POPC   C1A13163  14.392  16.790   6.098  0.1538 -0.2396 -0.1397
  901POPC   D2A13164  14.217  16.954   6.423  0.4594 -0.1394  0.0463
  901POPC   C3A13165  14.412  17.070   6.743 -0.2314  0.0332  0.0837
  901POPC   C4A13166  14.736  17.251   6.993 -0.3242 -0.2541  0.0762
  901POPC   C1B13167  14.667  16.072   6.243  0.3234 -0.1008 -0.0080
  901POPC   C2B13168  14.626  15.614   6.292  0.0478 -0.0621  0.1073
  901POPC   C3B13169  14.503  15.322   6.639 -0.7902 -0.3933 -0.0581
  901POPC   C4B13170  14.913  15.215   6.843 -0.2252  0.0947  0.1218
  902POPC   NC313171  16.971   5.004   5.506 -0.0243  0.2400 -0.2226
  902POPC   PO413172  17.004   5.200   5.985 -0.0377  0.2663  0.0387
  902POPC   GL113173  17.028   4.808   6.219  0.1005 -0.1854 -0.2789
  902POPC   GL213174  16.812   4.914   6.423 -0.3609 -0.0088  0.0536
  902POPC   C1A13175  17.371   4.609   6.372 -0.1116 -0.3299  0.0798
  902POPC   D2A13176  17.772   4.571   6.566 -0.0498  0.0809  0.0939
  902POPC   C3A13177  17.952   4.271   6.690 -0.1949  0.1140 -0.1672
  902POPC   C4A13178  17.837   3.964   6.983  0.1397 -0.0499  0.2260
  902POPC   C1B13179  16.682   4.790   6.875 -0.0901 -0.0821 -0.0610
  902POPC   C2B13180  16.367   4.769   7.104 -0.1744  0.0474 -0.1211
  902POPC   C3B13181  16.249   4.447   7.388 -0.0098  0.0640  0.0867
  902POPC   C4B13182  16.082   4.488   7.802  0.1389 -0.0995  0.0382
  903POPC   NC313183  10.152   7.783   5.532  0.0636  0.1671  0.0904
  903POPC   PO413184  10.030   8.204   5.564 -0.0867  0.0730  0.1027
  903POPC   GL113185   9.976   8.173   6.000 -0.0915 -0.1553  0.1820
  903POPC   GL213186   9.785   8.392   5.984 -0.0590  0.0918  0.0937
  903POPC   C1A13187   9.973   8.352   6.430 -0.3068  0.2125  0.0359
  903POPC   D2A13188   9.990   8.446   6.916 -0.1949  0.2170  0.0208
  903POPC   C3A13189  10.272   8.833   7.117  0.2909  0.0305 -0.1774
  903POPC   C4A13190  10.645   8.911   7.188 -0.1620  0.3832  0.1454
  903POPC   C1B13191   9.644   8.679   6.261 -0.0770  0.0376  0.3359
  903POPC   C2B13192   9.415   8.891   6.549  0.1392 -0.1779 -0.0540
  903POPC   C3B13193   9.390   9.321   6.677 -0.1377  0.1257  0.0622
  903POPC   C4B13194   9.284   9.520   7.071  0.0673  0.1896 -0.1660
  904POPC   NC313195  12.943   5.807   5.518 -0.0873 -0.1762 -0.2507
  904POPC   PO413196  13.197   5.776   5.881  0.0602  0.0823 -0.4872
  904POPC   GL113197  13.486   5.866   6.201  0.1545  0.1453  0.2074
  904POPC   GL213198  13.546   5.511   6.254 -0.3559  0.2407  0.1015
  904POPC   C1A13199  13.683   6.058   6.544 -0.0716  0.2058 -0.0520
  904POPC   D2A13200  13.904   6.030   6.998  0.1338 -0.1093 -0.1965
  904POPC   C3A13201  13.917   6.320   7.316 -0.3272  0.0285 -0.1236
  904POPC   C4A13202  13.825   6.313   7.759  0.3447 -0.2144 -0.0192
  904POPC   C1B13203  13.690   5.538   6.626  0.3778 -0.0503 -0.1984
  904POPC   C2B13204  13.802   5.516   7.071  0.2917 -0.2768  0.1001
  904POPC   C3B13205  13.788   5.272   7.459  0.2335 -0.0203  0.1770
  904POPC   C4B13206  13.595   5.183   7.878 -0.3107  0.0808  0.1040
  905POPC   NC313207  16.250   9.107   5.242 -0.0758  0.2892 -0.0705
  905POPC   PO413208  15.893   8.809   5.206  0.0025  0.1303  0.2778
  905POPC   GL113209  15.894   9.046   5.561 -0.0593 -0.0310  0.0836
  905POPC   GL213210  15.706   9.058   5.809 -0.2509  0.0707  0.2127
  905POPC   C1A13211  16.177   9.204   5.938 -0.0669 -0.1741 -0.3510
  905POPC   D2A13212  16.202   9.149   6.335 -0.0840  0.0544 -0.1971
  905POPC   C3A13213  15.885   9.038   6.632  0.2070  0.3122  0.1762
  905POPC   C4A13214  15.503   9.184   6.821 -0.2391 -0.1322 -0.3252
  905POPC   C1B13215  15.658   9.233   6.199  0.3388 -0.0437  0.0726
  905POPC   C2B13216  15.847   9.515   6.528  0.1751 -0.0612 -0.3474
  905POPC   C3B13217  16.019   9.815   6.730 -0.0955 -0.0809  0.1910
  905POPC   C4B13218  16.101   9.980   7.133  0.7723  0.0087  0.0224
  906POPC   NC313219  14.920  17.918   5.652  0.1190  0.1420  0.1717
  906POPC   PO413220  14.895  18.315   5.830 -0.0644  0.2503  0.3449
  906POPC   GL113221  14.779  18.031   6.117 -0.3688  0.1999 -0.1042
  906POPC   GL213222  14.459  17.945   6.284  0.1243 -0.0283  0.2627
  906POPC   C1A13223  14.947  18.023   6.569 -0.1518  0.0913  0.1055
  906POPC   D2A13224  14.833  18.143   6.938  0.0393 -0.0425  0.1146
  906POPC   C3A13225  14.788  18.513   6.986  0.1672  0.5104  0.2095
  906POPC   C4A13226  15.020  18.943   6.940 -0.0369  0.3577  0.1733
  906POPC   C1B13227  14.562  17.787   6.681 -0.0806  0.2836 -0.4218
  906POPC   C2B13228  14.549  17.773   7.130 -0.1150  0.0420 -0.0484
  906POPC   C3B13229  14.361  17.690   7.556 -0.0712 -0.1688  0.0115
  906POPC   C4B13230  14.157  17.582   7.831 -0.0757 -0.1360  0.1713
  907POPC   NC313231   4.138   6.411   5.158 -0.1820  0.1732 -0.0275
  907POPC   PO413232   4.342   5.965   5.009  0.0413 -0.1429 -0.2730
  907POPC   GL113233   4.459   5.865   5.372 -0.1395 -0.1136 -0.2573
  907POPC   GL213234   4.430   5.540   5.542  0.0932 -0.4421 -0.0133
  907POPC   C1A13235   4.528   6.042   5.827 -0.0863  0.0273  0.1812
  907POPC   D2A13236   4.480   6.156   6.362  0.3999  0.1977 -0.0166
  907POPC   C3A13237   4.593   6.350   6.737 -0.0190 -0.0298 -0.1002
  907POPC   C4A13238   4.982   6.290   6.966  0.1988  0.0653 -0.0219
  907POPC   C1B13239   4.393   5.197   5.887  0.0587 -0.6345  0.1863
  907POPC   C2B13240   4.336   5.010   6.293  0.1773  0.0106 -0.1125
  907POPC   C3B13241   4.278   4.968   6.692 -0.1674 -0.0273  0.0255
  907POPC   C4B13242   3.904   4.769   6.951  0.0888  0.1194  0.1450
  908POPC   NC313243   1.589  10.813   5.578 -0.3635 -0.1767 -0.0709
  908POPC   PO413244   1.201  11.052   5.627  0.1552  0.0513  0.0614
  908POPC   GL113245   1.024  10.695   5.813 -0.0272  0.0750  0.2851
  908POPC   GL213246   1.218  10.717   6.026 -0.1104  0.1645 -0.0235
  908POPC   C1A13247   0.648  10.745   6.061 -0.0144  0.1492  0.5512
  908POPC   D2A13248   0.237  10.707   6.332 -0.1804  0.2853  0.0367
  908POPC   C3A13249   0.292  10.914   6.671  0.0801  0.0744 -0.1234
  908POPC   C4A13250   0.345  10.826   7.087  0.0697 -0.1469  0.0645
  908POPC   C1B13251   1.504  10.478   6.226 -0.1481  0.2101  0.3017
  908POPC   C2B13252   1.501  10.240   6.626 -0.0063 -0.0547 -0.0832
  908POPC   C3B13253   1.844  10.140   6.907 -0.3473 -0.0674  0.2290
  908POPC   C4B13254   2.036  10.497   7.108 -0.0731 -0.1585 -0.1436
  909POPC   NC313255   7.613  14.774   5.345 -0.0777  0.2363 -0.4303
  909POPC   PO413256   7.914  15.028   5.395  0.0273  0.0885 -0.0414
  909POPC   GL113257   7.852  15.304   5.830  0.3141  0.1050 -0.1934
  909POPC   GL213258   8.096  15.564   5.581 -0.0511 -0.0614 -0.0966
  909POPC   C1A13259   7.620  15.225   6.398  0.1099  0.4333  0.0080
  909POPC   D2A13260   7.377  15.394   6.682 -0.0432  0.1878 -0.0909
  909POPC   C3A13261   7.274  15.249   7.233  0.3779  0.1461 -0.0233
  909POPC   C4A13262   7.220  14.875   7.343  0.0888  0.1784  0.1191
  909POPC   C1B13263   8.056  15.667   5.987 -0.2247  0.1203  0.1081
  909POPC   C2B13264   8.075  15.953   6.379  0.1819  0.0727 -0.2354
  909POPC   C3B13265   8.017  16.082   6.857  0.2253  0.1615 -0.1343
  909POPC   C4B13266   7.816  15.858   7.150  0.4788 -0.1807 -0.0127
  910POPC   NC313267  11.818  13.415   4.962 -0.1002  0.0659 -0.0034
  910POPC   PO413268  11.977  13.024   4.918  0.1497 -0.2388  0.1233
  910POPC   GL113269  11.761  12.987   5.279 -0.2625  0.2455  0.0440
  910POPC   GL213270  11.487  12.778   5.309 -0.2755 -0.1671 -0.2894
  910POPC   C1A13271  11.641  13.049   5.709 -0.1389  0.2904  0.3720
  910POPC   D2A13272  11.433  12.868   6.100 -0.0115 -0.1283  0.0137
  910POPC   C3A13273  11.613  12.672   6.427  0.1257  0.1131 -0.3473
  910POPC   C4A13274  11.624  12.374   6.601 -0.0736 -0.1885  0.2071
  910POPC   C1B13275  11.275  12.708   5.624 -0.2242 -0.0006  0.1140
  910POPC   C2B13276  10.996  12.660   5.958  0.0464  0.1453 -0.2155
  910POPC   C3B13277  10.720  12.670   6.295 -0.1256 -0.1092  0.1140
  910POPC   C4B13278  10.595  12.642   6.706  0.3570  0.4520  0.1247
  911POPC   NC313279   7.814   5.874   5.186 -0.0990 -0.2410 -0.2138
  911POPC   PO413280   8.262   5.875   5.082  0.0948  0.0865  0.0736
  911POPC   GL113281   8.364   5.992   5.561  0.2744  0.1316  0.1155
  911POPC   GL213282   8.159   5.860   5.898 -0.1125 -0.0402 -0.1290
  911POPC   C1A13283   8.465   6.301   5.887  0.2102  0.1006  0.0577
  911POPC   D2A13284   8.223   6.198   6.243  0.2364  0.3780 -0.0471
  911POPC   C3A13285   8.301   5.736   6.374 -0.1216  0.0169 -0.2616
  911POPC   C4A13286   8.718   5.540   6.485  0.1962 -0.1039  0.1976
  911POPC   C1B13287   7.824   5.592   6.139  0.1855 -0.0633  0.1265
  911POPC   C2B13288   7.834   5.565   6.675 -0.1300 -0.1648 -0.1425
  911POPC   C3B13289   7.641   5.730   7.011 -0.2486 -0.0284 -0.0157
  911POPC   C4B13290   7.497   5.969   7.414 -0.1899  0.0395  0.5439
  912POPC   NC313291  18.413   1.341   5.709  0.2106 -0.0215 -0.2845
  912POPC   PO413292  18.097   1.626   5.764 -0.2388 -0.2739  0.0070
  912POPC   GL113293  18.017   1.699   6.264  0.2671  0.1047  0.2930
  912POPC   GL213294  17.706   1.574   6.398 -0.0442  0.1017  0.1116
  912POPC   C1A13295  18.051   1.948   6.558  0.4154 -0.1031  0.1669
  912POPC   D2A13296  18.147   2.117   6.855 -0.1873  0.0281  0.2457
  912POPC   C3A13297  17.979   2.112   7.228  0.3160 -0.2159 -0.0380
  912POPC   C4A13298  17.553   2.170   7.507 -0.2220  0.2789 -0.0410
  912POPC   C1B13299  17.603   1.217   6.655 -0.2117  0.0065  0.1002
  912POPC   C2B13300  17.358   0.905   6.878  0.0462 -0.1365 -0.2019
  912POPC   C3B13301  16.939   0.928   6.837 -0.0708  0.0190 -0.0331
  912POPC   C4B13302  16.903   0.615   6.669 -0.0524  0.1803 -0.0752
  913POPC   NC313303  10.286   3.546   5.470  0.1320 -0.0662  0.0346
  913POPC   PO413304   9.854   3.497   5.464 -0.1761 -0.1944 -0.2154
  913POPC   GL113305   9.737   3.360   5.925 -0.0139 -0.2313 -0.1304
  913POPC   GL213306   9.416   3.451   6.052  0.0264 -0.0075 -0.1317
  913POPC   C1A13307   9.857   3.475   6.382  0.2210  0.1938 -0.0002
  913POPC   D2A13308  10.083   3.686   6.790  0.1622 -0.1620  0.1405
  913POPC   C3A13309  10.499   3.876   6.645 -0.3341 -0.1291 -0.2339
  913POPC   C4A13310  10.930   3.629   6.520  0.0158 -0.2905  0.1185
  913POPC   C1B13311   9.426   3.711   6.460 -0.0651  0.0270 -0.3608
  913POPC   C2B13312   9.248   3.798   6.831  0.0270  0.1923 -0.1361
  913POPC   C3B13313   9.105   3.691   7.288 -0.0603 -0.0598 -0.2140
  913POPC   C4B13314   9.209   3.658   7.646  0.0321  0.3594  0.2410
  914POPC   NC313315  12.985   7.359   5.711 -0.2246  0.1216 -0.1476
  914POPC   PO413316  13.359   7.225   5.893 -0.5128 -0.1837  0.0438
  914POPC   GL113317  13.334   7.705   5.996 -0.0724 -0.3196  0.0477
  914POPC   GL213318  13.512   7.827   6.000 -0.1614  0.2811 -0.1292
  914POPC   C1A13319  13.085   7.835   6.354  0.1720  0.2618  0.0664
  914POPC   D2A13320  12.651   7.788   6.307  0.3942  0.1198  0.4874
  914POPC   C3A13321  12.401   7.463   6.454 -0.4237  0.1105  0.2149
  914POPC   C4A13322  12.147   7.092   6.519 -0.1262  0.0446  0.1541
  914POPC   C1B13323  13.630   7.914   6.345  0.2396 -0.2832 -0.1592
  914POPC   C2B13324  13.822   7.923   6.708 -0.0557 -0.1092  0.0606
  914POPC   C3B13325  14.117   7.829   6.913  0.1320 -0.0008  0.3831
  914POPC   C4B13326  14.507   7.840   7.139 -0.2625  0.2931  0.4532
  915POPC   NC313327   8.105   2.277   5.074 -0.4346 -0.0084 -0.2597
  915POPC   PO413328   7.799   2.713   5.299 -0.0796 -0.1065  0.1479
  915POPC   GL113329   7.566   2.754   5.578  0.1716  0.1676 -0.1353
  915POPC   GL213330   7.661   3.035   5.700 -0.0313  0.0018 -0.2038
  915POPC   C1A13331   7.212   2.554   5.734 -0.0190  0.2261 -0.0593
  915POPC   D2A13332   6.863   2.321   5.820 -0.5534  0.0828  0.2146
  915POPC   C3A13333   7.021   2.082   6.122 -0.0315  0.0354 -0.0715
  915POPC   C4A13334   7.115   1.714   6.253  0.0833 -0.0177  0.1340
  915POPC   C1B13335   7.512   2.846   6.071 -0.0575  0.2254 -0.0384
  915POPC   C2B13336   7.318   2.482   6.357  0.5042  0.1803 -0.3399
  915POPC   C3B13337   7.012   2.191   6.637  0.0815 -0.4117  0.1960
  915POPC   C4B13338   7.009   2.285   7.139 -0.2510  0.1031  0.1235
  916POPC   NC313339  18.735  15.717   5.820  0.0329  0.0411 -0.3786
  916POPC   PO413340  18.624  16.153   5.707 -0.2936 -0.1082 -0.0540
  916POPC   GL113341  18.478  16.067   6.132  0.2270 -0.1015 -0.0879
  916POPC   GL213342  18.148  16.186   6.110 -0.1676 -0.1174 -0.3657
  916POPC   C1A13343  18.455  15.731   6.465 -0.1443  0.1252 -0.1635
  916POPC   D2A13344  18.574  15.719   6.889 -0.3233  0.3009  0.0087
  916POPC   C3A13345  18.382  15.835   7.194  0.1634 -0.0156  0.1262
  916POPC   C4A13346  18.172  16.033   7.421  0.3323  0.1292 -0.1544
  916POPC   C1B13347  18.186  16.232   6.507 -0.1334  0.5028 -0.2729
  916POPC   C2B13348  18.221  16.252   6.942  0.1326 -0.3391 -0.0291
  916POPC   C3B13349  18.489  16.407   7.247 -0.2761 -0.2341 -0.1946
  916POPC   C4B13350  18.417  16.372   7.708  0.2674  0.2412  0.3483
  917POPC   NC313351   8.916   4.535   5.636 -0.1842 -0.0327 -0.0824
  917POPC   PO413352   8.460   4.671   5.558  0.0174  0.1359 -0.3890
  917POPC   GL113353   8.559   4.641   5.981 -0.3321  0.1218 -0.1053
  917POPC   GL213354   8.264   4.593   6.157  0.3272 -0.3036 -0.1443
  917POPC   C1A13355   8.697   5.022   6.368 -0.0066  0.2518  0.3515
  917POPC   D2A13356   8.643   4.983   6.785 -0.2610  0.1455  0.0130
  917POPC   C3A13357   8.316   5.086   7.160  0.0512  0.2282 -0.1654
  917POPC   C4A13358   7.967   5.227   7.029 -0.1143  0.0628 -0.3220
  917POPC   C1B13359   8.142   4.768   6.598  0.0092 -0.0584  0.1230
  917POPC   C2B13360   8.111   4.723   6.970 -0.1973 -0.1045  0.0523
  917POPC   C3B13361   7.935   4.811   7.345 -0.1066 -0.2341 -0.0032
  917POPC   C4B13362   7.557   4.880   7.723 -0.0034  0.0564  0.0918
  918POPC   NC313363   9.561  16.690   5.264  0.2046 -0.0198 -0.2313
  918POPC   PO413364   9.771  17.013   5.357 -0.3745  0.2777  0.1236
  918POPC   GL113365   9.537  17.177   5.732 -0.3217 -0.0956 -0.2645
  918POPC   GL213366   9.705  17.487   5.855 -0.1468  0.0409  0.2397
  918POPC   C1A13367   9.309  17.134   6.165 -0.1152 -0.1504 -0.1113
  918POPC   D2A13368   9.182  17.217   6.637  0.0969  0.0918  0.1520
  918POPC   C3A13369   8.924  17.044   6.807  0.0147  0.2961 -0.1784
  918POPC   C4A13370   8.847  16.641   7.087  0.1485 -0.2746  0.0008
  918POPC   C1B13371   9.422  17.663   5.998  0.1747 -0.2448 -0.0941
  918POPC   C2B13372   9.458  17.544   6.432 -0.1777 -0.1716  0.0179
  918POPC   C3B13373   9.423  17.568   6.853 -0.1871  0.0926  0.1655
  918POPC   C4B13374   9.141  17.336   7.188  0.1504 -0.6575 -0.0074
  919POPC   NC313375   8.291   9.970   4.570 -0.2242  0.2370 -0.0450
  919POPC   PO413376   8.472   9.743   4.991 -0.0983 -0.2961 -0.0147
  919POPC   GL113377   8.658   9.813   5.382  0.0113 -0.1776  0.0941
  919POPC   GL213378   8.946   9.641   5.434 -0.0191 -0.1646  0.0809
  919POPC   C1A13379   8.744   9.739   5.886  0.0834  0.0809 -0.0703
  919POPC   D2A13380   8.706   9.522   6.313 -0.0203  0.0649 -0.0755
  919POPC   C3A13381   8.921   9.689   6.651 -0.1932  0.1536  0.0062
  919POPC   C4A13382   8.968  10.087   6.857 -0.2326  0.2749 -0.0350
  919POPC   C1B13383   8.692   9.347   5.586 -0.1313 -0.0447  0.3308
  919POPC   C2B13384   8.332   9.411   5.918  0.2941  0.2584  0.0201
  919POPC   C3B13385   8.349   9.175   6.378 -0.0275  0.1627 -0.2610
  919POPC   C4B13386   8.446   9.347   6.755 -0.1737  0.2013  0.0755
  920POPC   NC313387   5.174   2.801   5.108 -0.6411 -0.0871  0.0894
  920POPC   PO413388   4.917   3.185   5.264 -0.1373  0.2126 -0.1329
  920POPC   GL113389   4.572   3.206   5.752 -0.1905  0.0643 -0.0038
  920POPC   GL213390   4.425   3.501   5.729 -0.1448  0.0150  0.1980
  920POPC   C1A13391   4.352   3.204   6.132 -0.1312 -0.0539  0.4779
  920POPC   D2A13392   4.208   3.177   6.519 -0.3686 -0.0930 -0.2258
  920POPC   C3A13393   4.152   3.338   6.829  0.0960  0.0285  0.1393
  920POPC   C4A13394   4.176   3.571   7.204 -0.0434  0.1640 -0.0334
  920POPC   C1B13395   4.225   3.622   5.976 -0.2263 -0.0038 -0.1799
  920POPC   C2B13396   4.194   3.678   6.442 -0.0328  0.2687  0.1301
  920POPC   C3B13397   4.022   3.911   6.807  0.2817 -0.2063  0.1754
  920POPC   C4B13398   3.881   4.024   7.252 -0.3049 -0.1052 -0.2997
  921POPC   NC313399  10.255  17.137   5.177  0.2437  0.0539 -0.0599
  921POPC   PO413400  10.470  17.115   5.499 -0.1315 -0.0762 -0.3146
  921POPC   GL113401  10.473  17.094   5.954  0.1174 -0.0768 -0.0138
  921POPC   GL213402  10.486  16.798   6.062  0.2026  0.2509  0.0731
  921POPC   C1A13403  10.701  17.382   6.137 -0.0799  0.2091  0.2419
  921POPC   D2A13404  11.046  17.519   6.329  0.0211  0.2203  0.2514
  921POPC   C3A13405  11.225  17.219   6.606  0.2317  0.0077  0.0191
  921POPC   C4A13406  11.659  17.195   6.789  0.2819  0.3522 -0.1491
  921POPC   C1B13407  10.439  17.021   6.513 -0.4993 -0.0238  0.2049
  921POPC   C2B13408  10.361  16.990   6.930  0.3126  0.1956  0.0702
  921POPC   C3B13409  10.311  17.135   7.367 -0.1974  0.0602 -0.1702
  921POPC   C4B13410  10.151  17.363   7.669  0.0040  0.1286  0.2897
  922POPC   NC313411  13.322   9.930   5.556  0.0660 -0.1684  0.0054
  922POPC   PO413412  13.202  10.328   5.325  0.0009 -0.0035  0.2228
  922POPC   GL113413  13.137  10.309   5.858  0.1147 -0.0535 -0.0459
  922POPC   GL213414  13.113  10.656   5.958  0.0899 -0.3338 -0.1446
  922POPC   C1A13415  13.189  10.221   6.297 -0.1011  0.0598 -0.0464
  922POPC   D2A13416  12.976  10.058   6.609 -0.2543  0.2978  0.1007
  922POPC   C3A13417  13.205  10.001   6.907 -0.1114  0.1566 -0.0575
  922POPC   C4A13418  13.414   9.840   7.315 -0.0402 -0.0757  0.0961
  922POPC   C1B13419  13.258  10.730   6.376  0.0854  0.0193 -0.0977
  922POPC   C2B13420  13.540  10.787   6.715 -0.4308  0.1947  0.1132
  922POPC   C3B13421  13.580  11.104   7.089 -0.3990  0.0284 -0.1205
  922POPC   C4B13422  13.541  11.231   7.501 -0.0942  0.0123  0.3357
  923POPC   NC313423  11.384   4.373   5.798 -0.2184  0.2625 -0.0548
  923POPC   PO413424  11.613   4.004   5.664  0.0720  0.0485 -0.3124
  923POPC   GL113425  11.859   4.009   5.993 -0.2389 -0.2556  0.2526
  923POPC   GL213426  12.019   3.799   6.130  0.0516  0.3438  0.1130
  923POPC   C1A13427  11.847   4.182   6.309 -0.0207 -0.0120  0.0817
  923POPC   D2A13428  11.891   4.280   6.783 -0.1301 -0.1548  0.2597
  923POPC   C3A13429  11.550   4.240   7.066  0.0074 -0.3572  0.0471
  923POPC   C4A13430  11.257   4.040   7.368  0.2103 -0.0714  0.2926
  923POPC   C1B13431  12.061   3.841   6.563 -0.4912 -0.3164  0.1634
  923POPC   C2B13432  12.297   3.976   6.910  0.0702  0.0639 -0.1999
  923POPC   C3B13433  12.595   4.078   7.113 -0.1923 -0.0255 -0.0307
  923POPC   C4B13434  13.079   4.198   7.183 -0.4459  0.2783 -0.1857
  924POPC   NC313435   9.825   4.223   5.902 -0.0552  0.1239 -0.3117
  924POPC   PO413436   9.748   4.621   5.805 -0.1745  0.2516 -0.0621
  924POPC   GL113437  10.037   4.746   6.094  0.2002  0.0375 -0.0208
  924POPC   GL213438  10.325   4.773   5.901 -0.0372  0.1400  0.0233
  924POPC   C1A13439  10.195   4.759   6.543  0.2334  0.0894  0.1512
  924POPC   D2A13440  10.160   4.686   6.984  0.1212  0.0048  0.1010
  924POPC   C3A13441  10.166   4.923   7.262  0.0651 -0.0972 -0.1883
  924POPC   C4A13442  10.006   4.947   7.774  0.0607 -0.0514  0.1874
  924POPC   C1B13443  10.258   5.168   6.146 -0.1372  0.0646  0.2377
  924POPC   C2B13444   9.847   5.240   6.392  0.0243 -0.0027 -0.1275
  924POPC   C3B13445   9.449   5.356   6.367 -0.1487 -0.1313 -0.1195
  924POPC   C4B13446   9.230   5.642   6.580  0.2806  0.0885 -0.0030
  925POPC   NC313447  16.378   1.661   5.342 -0.1524  0.2793 -0.0890
  925POPC   PO413448  16.267   1.566   5.757 -0.0659 -0.4647 -0.2043
  925POPC   GL113449  16.367   1.651   6.093  0.0976  0.0833  0.2541
  925POPC   GL213450  16.336   1.397   6.283 -0.2421 -0.1737  0.0459
  925POPC   C1A13451  16.380   1.878   6.616  0.1391 -0.1586 -0.1517
  925POPC   D2A13452  16.397   2.004   7.015  0.0878 -0.0288  0.1083
  925POPC   C3A13453  16.318   2.377   7.270  0.2831  0.0944 -0.0073
  925POPC   C4A13454  16.155   2.759   7.385  0.0945  0.1927 -0.0069
  925POPC   C1B13455  16.103   1.472   6.536  0.2476 -0.1438  0.2581
  925POPC   C2B13456  16.190   1.546   7.033 -0.1395 -0.0861 -0.1575
  925POPC   C3B13457  16.256   1.490   7.364  0.0433 -0.3219 -0.0313
  925POPC   C4B13458  16.295   1.151   7.546 -0.0550  0.2580 -0.1137
  926POPC   NC313459  13.687   1.819   5.399  0.0211  0.1160 -0.0766
  926POPC   PO413460  13.766   2.174   5.602 -0.0308 -0.2275  0.0020
  926POPC   GL113461  13.989   2.111   6.001 -0.3290  0.3985  0.3476
  926POPC   GL213462  14.026   2.362   6.333  0.1310 -0.2448 -0.0042
  926POPC   C1A13463  14.056   1.847   6.353  0.3237  0.1357  0.0432
  926POPC   D2A13464  14.103   1.580   6.652 -0.1997 -0.0843 -0.2737
  926POPC   C3A13465  14.201   1.663   7.065  0.1513  0.0990 -0.2549
  926POPC   C4A13466  14.066   1.969   7.399 -0.1114 -0.0507  0.1726
  926POPC   C1B13467  14.234   2.129   6.743  0.3651  0.2088  0.3134
  926POPC   C2B13468  14.387   2.122   7.112 -0.0283 -0.0452 -0.0315
  926POPC   C3B13469  14.531   2.282   7.453 -0.1021  0.1612 -0.0624
  926POPC   C4B13470  14.955   2.177   7.679  0.0729 -0.2509  0.2306
  927POPC   NC313471  18.958  16.727   5.301 -0.0252  0.0316  0.2063
  927POPC   PO413472  18.867  16.671   5.694  0.3583 -0.1712  0.0984
  927POPC   GL113473  18.974  16.843   6.077  0.2150  0.0414 -0.2222
  927POPC   GL213474  19.176  17.162   6.133  0.1091  0.0368 -0.0311
  927POPC   C1A13475  18.723  17.074   6.395  0.0355  0.0615 -0.3676
  927POPC   D2A13476  18.300  17.154   6.633  0.0772 -0.2308  0.3581
  927POPC   C3A13477  18.133  17.482   6.772 -0.0825 -0.0595  0.3120
  927POPC   C4A13478  18.096  17.923   6.634  0.0765  0.4985  0.1259
  927POPC   C1B13479  19.248  16.886   6.518  0.0549  0.0551 -0.2244
  927POPC   C2B13480  19.327  16.791   6.960  0.0732  0.2106 -0.2279
  927POPC   C3B13481  19.236  16.890   7.312  0.2028 -0.3871  0.0413
  927POPC   C4B13482  19.244  17.121   7.738  0.2537 -0.0268 -0.0189
  928POPC   NC313483  15.893   5.963   5.968  0.0053 -0.4208 -0.0301
  928POPC   PO413484  15.916   5.687   6.367 -0.0050 -0.1583  0.0839
  928POPC   GL113485  16.170   5.696   6.619 -0.0588  0.1859  0.1854
  928POPC   GL213486  16.513   5.804   6.522 -0.0947 -0.1653  0.2207
  928POPC   C1A13487  16.230   5.897   7.010  0.0767 -0.0087  0.1132
  928POPC   D2A13488  16.504   5.984   7.371 -0.2387  0.3725  0.1691
  928POPC   C3A13489  16.707   6.401   7.459 -0.0337 -0.0679 -0.0745
  928POPC   C4A13490  17.028   6.757   7.551  0.0053  0.3355  0.0906
  928POPC   C1B13491  16.536   6.100   6.673 -0.2977 -0.3448  0.3173
  928POPC   C2B13492  16.265   6.406   6.916  0.0094  0.0867 -0.2857
  928POPC   C3B13493  15.901   6.590   6.935  0.1263  0.1640 -0.0598
  928POPC   C4B13494  15.782   6.744   7.401  0.2346 -0.1935  0.0364
  929POPC   NC313495  12.869  17.721   5.473 -0.1088  0.2954  0.1429
  929POPC   PO413496  13.281  17.926   5.625 -0.1821 -0.1764  0.1877
  929POPC   GL113497  13.160  17.668   5.924 -0.0369 -0.0497 -0.1230
  929POPC   GL213498  12.848  17.506   5.948  0.3810 -0.0108 -0.0535
  929POPC   C1A13499  12.947  17.805   6.314 -0.1425  0.1653 -0.2167
  929POPC   D2A13500  13.155  17.725   6.751 -0.0434 -0.2281  0.1630
  929POPC   C3A13501  13.334  17.955   7.047 -0.0654 -0.0087 -0.3309
  929POPC   C4A13502  13.310  18.313   7.268 -0.0045 -0.3342 -0.1003
  929POPC   C1B13503  13.165  17.368   6.304  0.2701  0.2623  0.1245
  929POPC   C2B13504  13.272  17.235   6.723 -0.2135  0.0715 -0.1135
  929POPC   C3B13505  13.282  17.091   7.125  0.0933 -0.1012  0.1228
  929POPC   C4B13506  13.265  16.960   7.520 -0.1338  0.0258 -0.1260
  930POPC   NC313507   6.086  12.502   5.526 -0.1159  0.0988 -0.2313
  930POPC   PO413508   5.917  12.879   5.541 -0.3669  0.2442  0.1901
  930POPC   GL113509   5.712  12.951   5.974  0.0414  0.2762  0.0214
  930POPC   GL213510   5.383  12.994   6.000  0.2704 -0.1918 -0.1581
  930POPC   C1A13511   5.954  12.779   6.276 -0.1104 -0.2477 -0.3048
  930POPC   D2A13512   5.865  12.760   6.733 -0.3159  0.0913  0.0863
  930POPC   C3A13513   6.107  12.498   6.968 -0.1707  0.3327  0.0356
  930POPC   C4A13514   6.514  12.543   7.319  0.0326  0.0594 -0.2203
  930POPC   C1B13515   5.408  12.775   6.361 -0.2875  0.3454  0.3209
  930POPC   C2B13516   5.387  12.824   6.824 -0.4277 -0.2161  0.0978
  930POPC   C3B13517   5.223  12.916   7.294 -0.0594 -0.1672  0.1002
  930POPC   C4B13518   5.205  13.053   7.690  0.0076 -0.0147 -0.3219
  931POPC   NC313519  15.366   1.241   5.660 -0.1509 -0.0141 -0.0890
  931POPC   PO413520  15.350   0.819   5.610 -0.2002  0.1836 -0.0832
  931POPC   GL113521  15.149   0.515   5.854  0.1647 -0.0948 -0.1375
  931POPC   GL213522  14.837   0.299   5.674 -0.3417 -0.1545  0.1187
  931POPC   C1A13523  14.939   0.472   6.252  0.0619 -0.0672 -0.2227
  931POPC   D2A13524  14.518   0.693   6.430  0.1686  0.2297 -0.0673
  931POPC   C3A13525  14.425   0.778   6.787  0.2324 -0.0912  0.2712
  931POPC   C4A13526  14.388   0.490   7.149 -0.0518  0.0446  0.0185
  931POPC   C1B13527  14.617   0.137   6.044 -0.0879 -0.2796  0.1368
  931POPC   C2B13528  14.495   0.194   6.516 -0.3293  0.0270  0.0407
  931POPC   C3B13529  14.356   0.021   6.885  0.0325  0.0450 -0.1321
  931POPC   C4B13530  14.280   0.089   7.360  0.1956  0.0954 -0.2130
  932POPC   NC313531   8.794  15.863   5.033  0.0184  0.0254  0.2515
  932POPC   PO413532   8.996  15.524   5.440 -0.0348  0.1009 -0.0581
  932POPC   GL113533   9.070  15.466   5.885 -0.0860 -0.2323 -0.1970
  932POPC   GL213534   9.297  15.360   5.922  0.1883 -0.1988  0.0906
  932POPC   C1A13535   8.896  15.258   6.232  0.0999 -0.3129  0.0207
  932POPC   D2A13536   9.018  15.265   6.669 -0.1246  0.0922 -0.2122
  932POPC   C3A13537   9.335  14.952   6.706  0.0720 -0.2239  0.1744
  932POPC   C4A13538   9.341  14.801   7.101  0.3429 -0.1132  0.0319
  932POPC   C1B13539   9.345  14.999   6.160 -0.0738  0.5126  0.1278
  932POPC   C2B13540   9.438  14.569   6.216 -0.0372 -0.0768  0.0981
  932POPC   C3B13541   9.494  14.255   6.557  0.0698 -0.0326 -0.0843
  932POPC   C4B13542   9.474  14.025   6.811  0.3372 -0.0990  0.1728
  933POPC   NC313543  17.668   1.426   5.907 -0.3682  0.0756 -0.3263
  933POPC   PO413544  17.224   1.474   5.852 -0.5018 -0.1853  0.0470
  933POPC   GL113545  17.228   1.242   6.210 -0.0241 -0.2754  0.0610
  933POPC   GL213546  16.882   1.182   6.398 -0.0490 -0.1768  0.3237
  933POPC   C1A13547  17.215   0.841   6.361  0.0334  0.0682 -0.1849
  933POPC   D2A13548  17.565   0.575   6.280  0.1280  0.1942  0.2076
  933POPC   C3A13549  17.950   0.782   6.432 -0.5003 -0.3526 -0.3183
  933POPC   C4A13550  18.336   0.720   6.679  0.0069  0.0564 -0.0171
  933POPC   C1B13551  16.652   1.425   6.672  0.1004  0.1415  0.1441
  933POPC   C2B13552  16.676   1.575   7.092  0.2377  0.1500  0.1645
  933POPC   C3B13553  16.686   1.887   7.387  0.0177 -0.1020  0.1236
  933POPC   C4B13554  16.325   2.074   7.637 -0.3802  0.2652  0.1497
  934POPC   NC313555   0.159  11.773   5.120 -0.1280 -0.1794  0.3148
  934POPC   PO413556   0.251  12.240   5.230 -0.1308  0.0999  0.2674
  934POPC   GL113557   0.179  12.049   5.553 -0.0083 -0.1263  0.3779
  934POPC   GL213558   0.482  12.123   5.724 -0.4034  0.0796 -0.3602
  934POPC   C1A13559   0.197  11.755   5.940  0.1640 -0.4730  0.1402
  934POPC   D2A13560   0.438  11.918   6.309  0.1156 -0.0646  0.0639
  934POPC   C3A13561   0.933  11.755   6.454 -0.3176  0.4278  0.2647
  934POPC   C4A13562   1.146  11.588   6.831  0.0427  0.2556 -0.1081
  934POPC   C1B13563   0.363  12.321   6.001 -0.1338  0.1011  0.1320
  934POPC   C2B13564   0.132  12.388   6.496 -0.0128 -0.2683 -0.0866
  934POPC   C3B13565  -0.230  12.527   6.810  0.3836 -0.4383 -0.0078
  934POPC   C4B13566  -0.206  12.612   7.200  0.3045  0.5131 -0.2415
  935POPC   NC313567  17.658   0.738   5.392  0.0039 -0.0261 -0.1017
  935POPC   PO413568  17.870   0.272   5.525  0.0474  0.0302  0.1438
  935POPC   GL113569  17.745   0.115   5.881  0.1435 -0.0435 -0.4530
  935POPC   GL213570  17.523  -0.019   6.064  0.0234 -0.2779 -0.2111
  935POPC   C1A13571  17.902   0.196   6.317  0.2393 -0.1363 -0.3613
  935POPC   D2A13572  17.789   0.284   6.763 -0.1553  0.2861 -0.1780
  935POPC   C3A13573  17.816   0.611   6.906  0.1472  0.0764 -0.0962
  935POPC   C4A13574  17.949   1.043   6.997  0.0320  0.0921  0.2118
  935POPC   C1B13575  17.495  -0.118   6.509  0.0268 -0.0470  0.1122
  935POPC   C2B13576  17.395  -0.116   6.958  0.0964 -0.0451 -0.0877
  935POPC   C3B13577  17.134  -0.251   7.290  0.0169  0.0798 -0.1302
  935POPC   C4B13578  16.854  -0.612   7.289  0.3464 -0.0052 -0.0776
  936POPC   NC313579  13.218   4.818   5.650 -0.0139 -0.1756  0.2491
  936POPC   PO413580  13.645   4.929   5.750 -0.0847 -0.0174 -0.1219
  936POPC   GL113581  13.600   4.985   6.179 -0.0503  0.0218 -0.3455
  936POPC   GL213582  13.312   5.066   6.132 -0.3674 -0.0440  0.0666
  936POPC   C1A13583  13.599   4.771   6.617  0.1310  0.0352  0.4223
  936POPC   D2A13584  13.272   4.576   6.881 -0.2225 -0.1579  0.0400
  936POPC   C3A13585  13.130   4.704   7.205  0.3344 -0.1250  0.2690
  936POPC   C4A13586  13.452   4.712   7.529 -0.1364 -0.0694 -0.0511
  936POPC   C1B13587  12.822   5.127   6.257 -0.0059 -0.2524 -0.1123
  936POPC   C2B13588  12.597   5.465   6.471 -0.2662  0.1078  0.1297
  936POPC   C3B13589  12.683   5.447   6.829 -0.0115 -0.0312 -0.1132
  936POPC   C4B13590  12.954   5.611   7.142 -0.1206  0.0342  0.1596
  937POPC   NC313591  12.278   4.960   5.573  0.0200  0.3459 -0.0061
  937POPC   PO413592  12.792   4.891   5.449  0.1773 -0.0503  0.3141
  937POPC   GL113593  12.665   4.790   5.893 -0.2354 -0.0512 -0.0415
  937POPC   GL213594  12.879   4.701   6.004 -0.2717 -0.3131  0.0028
  937POPC   C1A13595  12.517   4.714   6.348 -0.0227 -0.0109  0.0992
  937POPC   D2A13596  12.342   4.988   6.537  0.2718 -0.2968 -0.1294
  937POPC   C3A13597  12.254   5.090   6.929  0.1431  0.1694 -0.1454
  937POPC   C4A13598  12.266   5.114   7.319  0.0044  0.1691 -0.0974
  937POPC   C1B13599  13.060   4.733   6.434 -0.0956  0.1207 -0.3049
  937POPC   C2B13600  12.810   4.840   6.883 -0.0671  0.1499  0.1733
  937POPC   C3B13601  12.869   5.112   7.286  0.6034  0.2427  0.1688
  937POPC   C4B13602  12.829   5.411   7.632 -0.0226 -0.0681 -0.2008
  938POPC   NC313603  16.983  18.142   5.775 -0.1373  0.0362  0.2297
  938POPC   PO413604  16.976  18.369   6.172  0.0396 -0.0643  0.0005
  938POPC   GL113605  17.168  18.338   6.533  0.1753  0.4107 -0.0221
  938POPC   GL213606  17.416  18.567   6.443 -0.2968  0.0029  0.0649
  938POPC   C1A13607  16.916  18.319   6.903 -0.1688  0.1700 -0.1856
  938POPC   D2A13608  16.893  17.965   7.143  0.3179 -0.2184 -0.2936
  938POPC   C3A13609  16.499  17.652   7.190 -0.0195  0.0208  0.1139
  938POPC   C4A13610  16.151  17.441   7.044  0.2080  0.2465  0.1877
  938POPC   C1B13611  17.371  18.542   6.923  0.4396  0.2150 -0.3166
  938POPC   C2B13612  17.392  18.163   7.086 -0.0909 -0.0024 -0.0512
  938POPC   C3B13613  17.453  17.866   7.345 -0.0249  0.1204 -0.1120
  938POPC   C4B13614  17.470  17.777   7.738  0.3153 -0.1778  0.0565
  939POPC   NC313615  15.674   9.480   5.341  0.1021 -0.1983  0.1093
  939POPC   PO413616  15.357   9.641   5.471 -0.4880 -0.0597 -0.1987
  939POPC   GL113617  15.310   9.593   5.926  0.0707 -0.0231  0.0136
  939POPC   GL213618  15.030   9.518   5.979  0.1894 -0.1505  0.0807
  939POPC   C1A13619  15.456   9.905   6.350  0.1851  0.2629  0.4426
  939POPC   D2A13620  15.459   9.882   6.770  0.1978  0.0415  0.0196
  939POPC   C3A13621  15.618   9.930   7.208  0.0994  0.2226 -0.1434
  939POPC   C4A13622  15.536   9.565   7.570 -0.1163  0.0632  0.1502
  939POPC   C1B13623  15.214   9.369   6.391 -0.1472  0.2213  0.3025
  939POPC   C2B13624  15.089   9.442   6.835  0.2191 -0.1928  0.0555
  939POPC   C3B13625  15.095   9.632   7.188  0.2890 -0.0078 -0.3954
  939POPC   C4B13626  15.164   9.878   7.475  0.4259  0.0719  0.1993
  940POPC   NC313627   0.533  18.880   6.152 -0.2597 -0.0126  0.1860
  940POPC   PO413628   0.959  18.996   6.046 -0.0122 -0.2698 -0.0620
  940POPC   GL113629   1.275  18.987   6.244  0.2336  0.0902  0.0925
  940POPC   GL213630   1.365  19.300   6.271  0.2343  0.3679 -0.2392
  940POPC   C1A13631   1.462  18.791   6.613  0.1518 -0.0636 -0.1703
  940POPC   D2A13632   1.680  18.751   7.012 -0.3335  0.1307 -0.0207
  940POPC   C3A13633   1.740  18.724   7.514 -0.2442 -0.3950  0.0852
  940POPC   C4A13634   2.007  18.557   7.703 -0.4249 -0.2378 -0.2049
  940POPC   C1B13635   1.406  19.298   6.651 -0.0962  0.1052  0.2090
  940POPC   C2B13636   1.445  19.235   7.024 -0.1638  0.0725 -0.3323
  940POPC   C3B13637   1.749  19.425   7.375  0.0646  0.0184 -0.1674
  940POPC   C4B13638   1.664  19.885   7.626  0.2779 -0.2104  0.0109
  941YOPC   NC313639  16.089  14.818   5.408  0.0979 -0.0010  0.1084
  941YOPC   PO413640  16.538  14.722   5.320  0.0040  0.2699  0.2504
  941YOPC   GL113641  16.523  14.773   5.768 -0.0276 -0.1351  0.3679
  941YOPC   GL213642  16.740  14.993   5.970  0.2959  0.2951  0.3806
  941YOPC   C1A13643  16.203  14.606   6.069 -0.0676  0.2333 -0.4016
  941YOPC   D2A13644  16.058  14.567   6.408 -0.0417  0.1726 -0.0077
  941YOPC   C3A13645  16.128  14.234   6.689  0.1385  0.0838  0.0873
  941YOPC   C4A13646  15.807  14.084   6.968  0.1915 -0.0436  0.1100
  941YOPC   C1B13647  16.957  15.229   6.318 -0.3935 -0.0779 -0.1545
  941YOPC   C2B13648  16.934  15.196   6.680 -0.1119 -0.0825 -0.1807
  941YOPC   D3B13649  16.971  14.970   7.094 -0.2607  0.1374  0.1106
  941YOPC   C4B13650  16.886  14.608   7.332  0.1493 -0.1231 -0.2367
  942YOPC   NC313651   7.284  16.789   5.230 -0.0988 -0.0694 -0.0815
  942YOPC   PO413652   7.608  16.961   5.297  0.2957  0.2087 -0.2429
  942YOPC   GL113653   7.280  16.909   5.722 -0.2221  0.1239 -0.5344
  942YOPC   GL213654   7.565  16.656   5.785 -0.3111  0.0561 -0.0625
  942YOPC   C1A13655   7.275  17.160   6.149 -0.2573  0.0066 -0.4850
  942YOPC   D2A13656   7.251  17.529   6.436 -0.0719 -0.2140 -0.0801
  942YOPC   C3A13657   7.036  17.669   6.792 -0.0115  0.2451  0.3773
  942YOPC   C4A13658   6.879  17.732   7.140  0.3709 -0.3702 -0.4676
  942YOPC   C1B13659   7.998  16.883   5.778  0.2263  0.1223 -0.0061
  942YOPC   C2B13660   7.901  17.244   5.971 -0.1329 -0.1827  0.0162
  942YOPC   D3B13661   7.716  17.442   6.345  0.0880  0.1080 -0.2098
  942YOPC   C4B13662   7.734  17.780   6.473 -0.2307 -0.0823 -0.1933
  943YOPC   NC313663   1.679  16.782   5.524 -0.0485 -0.2095 -0.2617
  943YOPC   PO413664   2.061  16.869   5.564  0.1073  0.1664 -0.2790
  943YOPC   GL113665   1.988  16.894   6.057  0.2434  0.1641  0.0632
  943YOPC   GL213666   2.242  16.656   6.189 -0.0984 -0.3062 -0.2763
  943YOPC   C1A13667   2.008  17.075   6.364 -0.2383  0.0473 -0.0902
  943YOPC   D2A13668   2.235  16.999   6.713  0.4153 -0.0027 -0.1214
  943YOPC   C3A13669   2.049  17.035   7.102  0.2007 -0.1516  0.1015
  943YOPC   C4A13670   1.849  16.883   7.390 -0.1198  0.1708  0.2927
  943YOPC   C1B13671   2.399  16.511   6.604  0.0040 -0.2060  0.0424
  943YOPC   C2B13672   2.377  16.555   7.063 -0.3560  0.2441  0.0104
  943YOPC   D3B13673   2.366  16.723   7.473  0.0730 -0.2462 -0.1054
  943YOPC   C4B13674   2.210  16.901   7.839  0.0656 -0.1871  0.2780
  944YOPC   NC313675  15.357   4.577   5.857 -0.0825 -0.0948  0.2643
  944YOPC   PO413676  15.556   4.317   6.223  0.0127 -0.1775 -0.0812
  944YOPC   GL113677  15.457   4.787   6.287  0.0264  0.0667  0.2770
  944YOPC   GL213678  15.148   4.927   6.279 -0.1163  0.0339  0.1339
  944YOPC   C1A13679  15.326   4.932   6.797  0.0352  0.2370  0.0256
  944YOPC   D2A13680  15.362   4.736   7.269 -0.1966  0.1740  0.0408
  944YOPC   C3A13681  15.223   4.408   7.408 -0.2693  0.0412  0.1981
  944YOPC   C4A13682  15.307   4.030   7.400  0.2180 -0.0896  0.5681
  944YOPC   C1B13683  14.810   4.734   6.708 -0.2225 -0.0556  0.0514
  944YOPC   C2B13684  14.778   4.486   7.083  0.0585  0.0926  0.0508
  944YOPC   D3B13685  14.442   4.174   7.166  0.1123 -0.0431  0.2816
  944YOPC   C4B13686  14.289   3.928   7.463  0.0109  0.1142  0.0875
  945YOPC   NC313687  13.093  11.903   5.155  0.2294  0.0872  0.0396
  945YOPC   PO413688  13.076  11.484   5.354  0.0494  0.5034  0.3445
  945YOPC   GL113689  13.008  11.470   5.899  0.3954 -0.3992  0.0811
  945YOPC   GL213690  13.041  11.609   6.180  0.1762 -0.0759 -0.1670
  945YOPC   C1A13691  12.883  11.068   6.022  0.0835 -0.0545 -0.3286
  945YOPC   D2A13692  12.655  10.924   6.389 -0.4010 -0.0380 -0.0743
  945YOPC   C3A13693  12.343  10.659   6.481 -0.4011 -0.3219 -0.1648
  945YOPC   C4A13694  12.308  10.140   6.466  0.0424  0.1482 -0.1342
  945YOPC   C1B13695  12.833  12.002   6.312 -0.0570 -0.2083 -0.0954
  945YOPC   C2B13696  12.626  12.210   6.630 -0.1660 -0.3347 -0.2569
  945YOPC   D3B13697  12.779  12.590   6.815  0.1456  0.0056  0.4494
  945YOPC   C4B13698  12.933  12.704   7.219  0.1629  0.0015 -0.3219
  946YOPC   NC313699  11.008  16.474   5.209  0.4492  0.3135  0.0297
  946YOPC   PO413700  10.777  16.177   5.453  0.0987  0.1254  0.0921
  946YOPC   GL113701  10.660  15.914   5.607  0.0092 -0.0520  0.1021
  946YOPC   GL213702  10.660  15.654   5.511  0.0051  0.1679  0.0965
  946YOPC   C1A13703  10.473  15.784   5.999 -0.2310  0.0938  0.2573
  946YOPC   D2A13704  10.674  15.688   6.401 -0.3154 -0.1388  0.0680
  946YOPC   C3A13705  10.619  15.562   6.746  0.0706 -0.0107 -0.0765
  946YOPC   C4A13706  10.488  15.557   7.193 -0.1203  0.1575 -0.2464
  946YOPC   C1B13707  10.931  15.635   5.902 -0.1980  0.1047 -0.0170
  946YOPC   C2B13708  11.300  15.537   6.096  0.0614 -0.1645 -0.2814
  946YOPC   D3B13709  11.467  15.889   6.288  0.1084 -0.1557 -0.1259
  946YOPC   C4B13710  11.425  15.988   6.746  0.1960 -0.1408 -0.4869
  947YOPC   NC313711  18.723   6.182   5.314  0.2710  0.0149 -0.2542
  947YOPC   PO413712  18.621   6.568   5.603  0.2447  0.1332 -0.2477
  947YOPC   GL113713  18.541   6.645   6.053 -0.1790 -0.2867 -0.5321
  947YOPC   GL213714  18.471   7.008   6.188 -0.1741 -0.0020 -0.3349
  947YOPC   C1A13715  18.849   6.691   6.318 -0.1170 -0.0169 -0.0890
  947YOPC   D2A13716  19.215   6.853   6.369  0.1955  0.1000  0.1845
  947YOPC   C3A13717  19.275   7.365   6.439  0.0163 -0.0340 -0.2437
  947YOPC   C4A13718  19.139   7.542   6.729  0.1562  0.1655 -0.1925
  947YOPC   C1B13719  18.806   7.149   6.431  0.2386 -0.0035 -0.1160
  947YOPC   C2B13720  18.887   7.051   6.891  0.4286 -0.1183  0.1264
  947YOPC   D3B13721  18.634   7.269   7.309  0.0090  0.3607 -0.0973
  947YOPC   C4B13722  18.805   7.586   7.593 -0.2637  0.2831 -0.2234
  948YOPC   NC313723   7.294  13.395   5.524 -0.1490  0.0095  0.0426
  948YOPC   PO413724   7.222  13.835   5.368  0.1296 -0.2093 -0.1964
  948YOPC   GL113725   7.268  13.778   5.827  0.2449 -0.4594 -0.0775
  948YOPC   GL213726   7.422  14.111   5.824  0.2342  0.0346 -0.0014
  948YOPC   C1A13727   7.508  13.823   6.214 -0.0230  0.1394  0.2629
  948YOPC   D2A13728   7.781  14.057   6.617  0.2794 -0.1531  0.0820
  948YOPC   C3A13729   7.497  14.291   6.920 -0.0567 -0.2341  0.0376
  948YOPC   C4A13730   7.583  14.593   7.144  0.0950 -0.0955 -0.0052
  948YOPC   C1B13731   7.649  14.293   6.188 -0.2477 -0.2470  0.1252
  948YOPC   C2B13732   7.439  14.517   6.461 -0.1452  0.0561  0.2304
  948YOPC   D3B13733   6.935  14.493   6.477 -0.1209  0.1665  0.0197
  948YOPC   C4B13734   6.902  14.284   6.928 -0.2021  0.1267 -0.0275
  949YOPC   NC313735  12.000  10.022   5.696 -0.3332  0.0871 -0.0562
  949YOPC   PO413736  12.275  10.410   5.628 -0.1439  0.1501 -0.1466
  949YOPC   GL113737  11.998  10.485   5.993 -0.1074  0.0354 -0.0335
  949YOPC   GL213738  11.722  10.443   5.822 -0.0190 -0.0724 -0.1858
  949YOPC   C1A13739  11.923  10.426   6.432 -0.0426 -0.4856 -0.0779
  949YOPC   D2A13740  11.800  10.293   6.824 -0.2258  0.0186  0.0438
  949YOPC   C3A13741  11.597  10.597   6.965 -0.0917 -0.1164 -0.0556
  949YOPC   C4A13742  11.417  11.075   7.065  0.3183  0.0506  0.0157
  949YOPC   C1B13743  11.463  10.233   6.199 -0.0001 -0.1719 -0.2033
  949YOPC   C2B13744  11.380  10.128   6.613 -0.0077  0.0157 -0.2422
  949YOPC   D3B13745  11.147   9.703   6.622  0.2454 -0.0280  0.0585
  949YOPC   C4B13746  10.780   9.416   6.716 -0.1652  0.0189  0.0208
  950YOPC   NC313747   4.482  18.289   5.054 -0.1690 -0.1518 -0.1359
  950YOPC   PO413748   4.083  18.412   5.129  0.1489 -0.1094 -0.0821
  950YOPC   GL113749   4.260  18.335   5.494 -0.3361  0.0706 -0.0450
  950YOPC   GL213750   4.300  18.022   5.770 -0.0117 -0.3742 -0.0463
  950YOPC   C1A13751   4.019  18.442   5.959  0.2767  0.0047  0.0555
  950YOPC   D2A13752   3.990  18.832   6.236 -0.1730 -0.1285 -0.4108
  950YOPC   C3A13753   3.901  19.263   6.390 -0.0424 -0.1360 -0.1207
  950YOPC   C4A13754   3.807  19.694   6.418 -0.0112  0.2031 -0.2902
  950YOPC   C1B13755   4.541  18.290   5.975  0.0057 -0.1027  0.1336
  950YOPC   C2B13756   4.985  18.547   6.068  0.1077  0.3041  0.1737
  950YOPC   D3B13757   5.313  18.646   6.380 -0.1086 -0.0980 -0.0646
  950YOPC   C4B13758   5.409  18.981   6.625 -0.1862  0.0179  0.0641
  951YOPC   NC313759  11.296   5.257   4.990  0.1728 -0.1996  0.0633
  951YOPC   PO413760  11.466   5.374   5.342  0.1418 -0.1204 -0.0213
  951YOPC   GL113761  11.309   5.486   5.824  0.0163  0.2883 -0.3037
  951YOPC   GL213762  11.100   5.854   5.866 -0.3002 -0.1280 -0.1947
  951YOPC   C1A13763  11.163   5.510   6.299  0.0448 -0.0524 -0.0138
  951YOPC   D2A13764  11.010   5.513   6.687  0.2664  0.0515  0.1986
  951YOPC   C3A13765  10.633   5.386   7.051 -0.0256 -0.0283  0.3528
  951YOPC   C4A13766  10.190   5.426   7.256 -0.1215  0.0811 -0.3512
  951YOPC   C1B13767  11.080   6.061   6.300 -0.2711 -0.3245  0.2391
  951YOPC   C2B13768  11.210   6.012   6.740  0.0080  0.0625  0.0742
  951YOPC   D3B13769  11.457   5.699   7.003 -0.3626  0.0355 -0.1847
  951YOPC   C4B13770  11.503   5.574   7.464  0.3746  0.2090 -0.0329
  952YOPC   NC313771   1.959   6.859   5.207 -0.1577 -0.0751  0.0812
  952YOPC   PO413772   1.564   6.881   5.397  0.3146 -0.2793 -0.0458
  952YOPC   GL113773   1.727   6.873   5.752 -0.1992 -0.6237  0.1030
  952YOPC   GL213774   1.585   6.704   6.002 -0.2077  0.2605  0.2206
  952YOPC   C1A13775   2.076   6.603   6.022 -0.0285 -0.0172  0.0466
  952YOPC   D2A13776   2.310   6.696   6.422 -0.1017 -0.1408  0.0416
  952YOPC   C3A13777   2.384   7.153   6.468  0.1262 -0.2335  0.0953
  952YOPC   C4A13778   2.241   7.554   6.411 -0.0705  0.0522 -0.1348
  952YOPC   C1B13779   1.356   6.974   6.272 -0.0963  0.1566  0.4631
  952YOPC   C2B13780   1.102   6.965   6.678  0.2714  0.1674 -0.0049
  952YOPC   D3B13781   0.912   6.546   6.760  0.2216 -0.0306  0.0222
  952YOPC   C4B13782   0.817   6.166   7.006 -0.0243  0.1402  0.0196
  953YOPC   NC313783   8.191  10.035   5.323 -0.0557  0.1418 -0.1067
  953YOPC   PO413784   7.754  10.019   5.251 -0.1624  0.3450 -0.3030
  953YOPC   GL113785   7.696   9.803   5.673 -0.1555 -0.0886  0.0687
  953YOPC   GL213786   7.691  10.069   5.917 -0.0485  0.1058  0.0558
  953YOPC   C1A13787   7.917   9.606   5.991  0.2517  0.2349 -0.2377
  953YOPC   D2A13788   8.186   9.657   6.396  0.1466 -0.0262  0.1954
  953YOPC   C3A13789   8.001   9.728   6.790  0.1390  0.1529  0.1047
  953YOPC   C4A13790   7.827   9.818   7.113 -0.3001 -0.0306  0.0879
  953YOPC   C1B13791   7.533   9.990   6.454 -0.1509 -0.2883 -0.2864
  953YOPC   C2B13792   7.486   9.678   6.776  0.1033 -0.0491 -0.0951
  953YOPC   D3B13793   7.474   9.274   6.927 -0.2470 -0.0248 -0.0857
  953YOPC   C4B13794   7.769   8.932   6.904  0.0067 -0.0364  0.0396
  954YOPC   NC313795   5.119   7.143   4.900 -0.3560 -0.1033 -0.0699
  954YOPC   PO413796   4.818   6.639   5.014 -0.3189 -0.1940 -0.1388
  954YOPC   GL113797   4.622   6.509   5.379  0.1454 -0.0468  0.0028
  954YOPC   GL213798   4.872   6.566   5.635 -0.4321 -0.2530  0.1765
  954YOPC   C1A13799   4.300   6.559   5.792  0.1039 -0.2769  0.1798
  954YOPC   D2A13800   4.201   6.616   6.222 -0.0576 -0.2289  0.2185
  954YOPC   C3A13801   4.072   6.373   6.617 -0.1677  0.1147 -0.1319
  954YOPC   C4A13802   4.250   5.903   6.818  0.1851 -0.0839  0.0656
  954YOPC   C1B13803   4.793   6.498   6.030 -0.2195  0.0287  0.0232
  954YOPC   C2B13804   4.644   6.681   6.376  0.0454  0.2697  0.3636
  954YOPC   D3B13805   4.974   6.707   6.644  0.0200  0.3306 -0.0389
  954YOPC   C4B13806   5.184   6.980   6.849  0.0517 -0.1530 -0.0637
  955YOPC   NC313807  13.803  14.004   4.612  0.2041  0.0000  0.1737
  955YOPC   PO413808  13.670  14.384   4.841  0.1364 -0.2562 -0.2694
  955YOPC   GL113809  13.536  14.374   5.312  0.2143  0.1254  0.0057
  955YOPC   GL213810  13.261  14.498   5.413  0.2122  0.4096  0.2086
  955YOPC   C1A13811  13.698  14.338   5.786  0.1254  0.1433  0.0865
  955YOPC   D2A13812  13.859  13.957   6.063  0.2271 -0.0531 -0.5806
  955YOPC   C3A13813  13.882  13.910   6.489  0.2226 -0.3776  0.0404
  955YOPC   C4A13814  13.760  14.062   7.006 -0.0413  0.0058  0.0857
  955YOPC   C1B13815  13.235  14.469   5.813  0.1911 -0.0397 -0.0605
  955YOPC   C2B13816  13.370  14.357   6.245  0.0655 -0.0463  0.0668
  955YOPC   D3B13817  13.300  14.726   6.568 -0.1085  0.0269  0.0490
  955YOPC   C4B13818  13.293  15.022   6.997 -0.0086  0.2128  0.1182
  956YOPC   NC313819   4.957   2.004   5.072  0.0438  0.1944 -0.3324
  956YOPC   PO413820   4.723   2.454   5.169 -0.0082  0.0711  0.2640
  956YOPC   GL113821   4.766   2.269   5.486 -0.0551  0.0792 -0.3518
  956YOPC   GL213822   4.624   2.053   5.553  0.3814  0.2262  0.1213
  956YOPC   C1A13823   4.741   2.235   6.045  0.2319  0.1545 -0.0661
  956YOPC   D2A13824   4.801   2.299   6.444  0.0466  0.0317  0.3609
  956YOPC   C3A13825   4.870   2.016   6.668  0.0720  0.1880  0.0369
  956YOPC   C4A13826   4.879   1.750   6.907  0.0289 -0.3950  0.1848
  956YOPC   C1B13827   4.303   1.956   5.931 -0.2046 -0.0629 -0.0667
  956YOPC   C2B13828   4.305   2.242   6.379 -0.0377  0.1939  0.1353
  956YOPC   D3B13829   3.939   2.401   6.581 -0.0575 -0.2855  0.2110
  956YOPC   C4B13830   3.648   2.524   6.891  0.0507  0.1460 -0.3605
  957YOPC   NC313831   2.845   3.643   5.371  0.2755 -0.0303  0.1462
  957YOPC   PO413832   2.483   3.877   5.620  0.0517 -0.2908  0.0282
  957YOPC   GL113833   2.692   3.877   5.944 -0.0323  0.0603 -0.0311
  957YOPC   GL213834   2.661   4.152   6.050  0.3587 -0.2786 -0.1411
  957YOPC   C1A13835   2.768   3.596   6.267 -0.1936 -0.2381  0.0023
  957YOPC   D2A13836   2.782   3.362   6.617 -0.0502 -0.3963 -0.1025
  957YOPC   C3A13837   2.610   3.554   6.969 -0.0077 -0.1983 -0.0330
  957YOPC   C4A13838   2.336   3.502   7.229  0.0076 -0.0994  0.0304
  957YOPC   C1B13839   2.656   4.096   6.472  0.1634 -0.0431  0.2707
  957YOPC   C2B13840   2.979   3.909   6.686  0.0995 -0.1089  0.1012
  957YOPC   D3B13841   3.034   3.786   7.186 -0.1462 -0.1481 -0.1462
  957YOPC   C4B13842   2.721   3.484   7.555 -0.2126  0.0069  0.4802
  958YOPC   NC313843   8.584  11.706   5.347 -0.1589 -0.3639  0.0845
  958YOPC   PO413844   8.220  11.426   5.320  0.0947 -0.2401 -0.1025
  958YOPC   GL113845   8.366  11.364   5.681 -0.1242  0.0605 -0.2525
  958YOPC   GL213846   8.470  11.590   5.834 -0.2117  0.2977  0.2201
  958YOPC   C1A13847   8.162  11.187   5.942  0.1343  0.0289 -0.2104
  958YOPC   D2A13848   8.135  10.703   6.014  0.2008  0.0292 -0.2212
  958YOPC   C3A13849   7.857  10.502   5.748  0.0195 -0.1724 -0.0030
  958YOPC   C4A13850   7.663  10.761   5.452  0.2938 -0.3392 -0.1387
  958YOPC   C1B13851   8.593  11.478   6.148  0.0845 -0.2382  0.0423
  958YOPC   C2B13852   8.968  11.436   6.237  0.2660 -0.3097 -0.2267
  958YOPC   D3B13853   8.922  11.444   6.725 -0.1392  0.0906 -0.1580
  958YOPC   C4B13854   8.844  11.355   7.067  0.2112  0.1499 -0.0613
  959YOPC   NC313855   7.511   5.480   5.175 -0.0784  0.2181  0.2546
  959YOPC   PO413856   7.047   5.484   5.097 -0.2392  0.2474 -0.2490
  959YOPC   GL113857   6.988   5.321   5.577 -0.0311  0.0964 -0.1634
  959YOPC   GL213858   6.666   5.504   5.765  0.1883 -0.1172 -0.0257
  959YOPC   C1A13859   7.036   5.415   6.013  0.1267 -0.2291  0.3945
  959YOPC   D2A13860   6.953   5.402   6.456  0.1728 -0.1570  0.0239
  959YOPC   C3A13861   7.079   5.695   6.797  0.2253  0.0022  0.0831
  959YOPC   C4A13862   7.215   6.011   6.951 -0.1337 -0.0077 -0.0627
  959YOPC   C1B13863   6.482   5.416   6.263 -0.0199 -0.0579 -0.0578
  959YOPC   C2B13864   6.469   5.632   6.704 -0.0107  0.3936 -0.1653
  959YOPC   D3B13865   6.625   6.115   6.795 -0.2776 -0.1655  0.0428
  959YOPC   C4B13866   6.936   6.420   6.948  0.1467 -0.1210 -0.0864
  960YOPC   NC313867   0.569  15.551   5.866  0.3986  0.2997  0.0767
  960YOPC   PO413868   0.501  15.134   5.905  0.0264  0.1053 -0.1724
  960YOPC   GL113869   0.117  15.135   6.150  0.0661  0.2121 -0.4127
  960YOPC   GL213870   0.178  15.280   6.378  0.1234  0.1697 -0.2864
  960YOPC   C1A13871  -0.254  14.933   6.360 -0.0162 -0.2475  0.2029
  960YOPC   D2A13872  -0.589  14.785   6.290 -0.0195 -0.1413 -0.2518
  960YOPC   C3A13873  -0.826  14.621   6.676  0.1674 -0.1095  0.2790
  960YOPC   C4A13874  -1.179  14.331   6.726 -0.1457 -0.0811 -0.0651
  960YOPC   C1B13875   0.117  15.085   6.776 -0.0807  0.1881 -0.2495
  960YOPC   C2B13876   0.167  15.329   7.224 -0.1698 -0.0432 -0.0863
  960YOPC   D3B13877   0.236  15.678   7.307  0.0077 -0.4265  0.2169
  960YOPC   C4B13878   0.272  15.909   7.677 -0.0461  0.2047  0.3378
  961YOPC   NC313879   0.919   6.047   5.273 -0.1040 -0.2597  0.0913
  961YOPC   PO413880   1.305   6.198   5.431 -0.1009 -0.0253  0.1898
  961YOPC   GL113881   1.446   6.116   5.812 -0.4468 -0.0813  0.0805
  961YOPC   GL213882   1.678   6.164   6.065 -0.1136  0.1365 -0.0306
  961YOPC   C1A13883   1.179   6.248   6.175 -0.1923 -0.0012  0.0412
  961YOPC   D2A13884   1.056   6.143   6.535  0.0096  0.0460 -0.1216
  961YOPC   C3A13885   0.712   5.793   6.644  0.2757  0.0940 -0.1682
  961YOPC   C4A13886   0.248   5.682   6.732 -0.1129 -0.1835 -0.2574
  961YOPC   C1B13887   1.610   6.041   6.491  0.3383  0.3432 -0.0913
  961YOPC   C2B13888   1.777   5.927   6.857  0.0556  0.0730 -0.2827
  961YOPC   D3B13889   2.027   5.542   6.979 -0.1706 -0.2430 -0.1170
  961YOPC   C4B13890   2.248   5.550   7.303  0.2193 -0.0222  0.0616
  962YOPC   NC313891  15.410  18.017   5.573  0.0960  0.3706 -0.1806
  962YOPC   PO413892  15.239  17.638   5.435 -0.0132 -0.0446  0.0197
  962YOPC   GL113893  15.560  17.522   5.834  0.2822  0.0855  0.0688
  962YOPC   GL213894  15.255  17.613   5.963  0.1284 -0.0624  0.1113
  962YOPC   C1A13895  15.630  17.539   6.270 -0.4435 -0.3368  0.2991
  962YOPC   D2A13896  15.819  17.521   6.609 -0.1628 -0.1581 -0.0083
  962YOPC   C3A13897  15.667  17.556   6.975  0.1245 -0.0274  0.3885
  962YOPC   C4A13898  15.413  17.514   7.307  0.1072  0.0373 -0.1985
  962YOPC   C1B13899  15.143  17.259   6.061  0.1818  0.1702  0.2659
  962YOPC   C2B13900  14.832  17.061   6.142 -0.0900  0.4251  0.2040
  962YOPC   D3B13901  14.903  17.055   6.590 -0.0532 -0.2420  0.1309
  962YOPC   C4B13902  15.247  17.033   6.846 -0.1766 -0.1521  0.1096
  963YOPC   NC313903   0.778   8.527   4.899  0.0609  0.1857  0.1873
  963YOPC   PO413904   1.143   8.724   5.102 -0.1159 -0.1425  0.0586
  963YOPC   GL113905   0.831   8.712   5.457 -0.2012  0.0422  0.2369
  963YOPC   GL213906   0.670   8.989   5.546  0.1879 -0.0592 -0.3757
  963YOPC   C1A13907   1.058   8.583   5.815 -0.1468  0.2029  0.4705
  963YOPC   D2A13908   1.298   8.367   6.065 -0.1978  0.1921 -0.0948
  963YOPC   C3A13909   1.194   8.487   6.480  0.0376 -0.1525  0.0844
  963YOPC   C4A13910   1.034   8.610   6.934  0.0753 -0.0588 -0.0901
  963YOPC   C1B13911   0.788   9.080   5.889 -0.2240  0.1584  0.2731
  963YOPC   C2B13912   1.147   9.070   6.120  0.2327  0.0485 -0.1719
  963YOPC   D3B13913   1.228   9.051   6.601  0.0827  0.3623  0.3081
  963YOPC   C4B13914   1.487   9.179   6.960 -0.0506  0.1779  0.0937
  964YOPC   NC313915   5.351  17.704   4.775  0.0317  0.2199  0.0620
  964YOPC   PO413916   5.717  17.586   5.048 -0.0803 -0.2523 -0.1505
  964YOPC   GL113917   5.844  17.289   5.360 -0.1195  0.0668 -0.0654
  964YOPC   GL213918   5.926  17.082   5.341  0.0314 -0.0603 -0.0836
  964YOPC   C1A13919   5.854  17.420   5.737 -0.0874  0.0512  0.1037
  964YOPC   D2A13920   5.623  17.291   6.058  0.1243 -0.2612  0.0932
  964YOPC   C3A13921   5.737  17.194   6.415 -0.0287  0.1186 -0.0713
  964YOPC   C4A13922   5.815  17.081   6.836 -0.3272  0.0845  0.2812
  964YOPC   C1B13923   6.030  16.951   5.734  0.0298  0.1087 -0.1788
  964YOPC   C2B13924   6.070  16.830   6.163 -0.0241 -0.1495 -0.3564
  964YOPC   D3B13925   6.232  17.207   6.574 -0.1574  0.1487  0.0264
  964YOPC   C4B13926   6.157  17.420   7.045 -0.0289 -0.2438 -0.2540
  965YOPC   NC313927   0.459  18.501   5.434 -0.2018 -0.3018 -0.3398
  965YOPC   PO413928   0.264  18.708   5.743  0.1155  0.2987 -0.0653
  965YOPC   GL113929   0.134  18.526   6.233 -0.0019 -0.0222 -0.1868
  965YOPC   GL213930   0.213  18.068   6.268 -0.2435 -0.1883  0.0349
  965YOPC   C1A13931   0.180  18.673   6.655 -0.3233 -0.3503  0.5693
  965YOPC   D2A13932  -0.015  18.871   7.085 -0.0395  0.0169  0.0513
  965YOPC   C3A13933  -0.007  19.127   7.363 -0.0172  0.0076 -0.0012
  965YOPC   C4A13934  -0.109  19.249   7.861 -0.0664 -0.1428 -0.0393
  965YOPC   C1B13935   0.327  18.159   6.725  0.0955  0.1602  0.3487
  965YOPC   C2B13936   0.484  18.103   7.078  0.4091 -0.2014 -0.4292
  965YOPC   D3B13937   0.787  18.278   7.407  0.0340 -0.3231 -0.1639
  965YOPC   C4B13938   0.587  18.302   7.780 -0.0605  0.1652 -0.3883
  966YOPC   NC313939   3.267  15.513   5.197 -0.3576  0.1634 -0.2429
  966YOPC   PO413940   3.661  15.734   5.147  0.1788 -0.1030 -0.1071
  966YOPC   GL113941   3.632  15.910   5.693  0.0008 -0.0921 -0.0403
  966YOPC   GL213942   3.846  15.683   5.964 -0.0592 -0.0987  0.0312
  966YOPC   C1A13943   3.755  16.089   6.182  0.3335 -0.1061 -0.1318
  966YOPC   D2A13944   3.534  16.240   6.636  0.5660 -0.2307  0.1140
  966YOPC   C3A13945   3.811  16.262   7.029  0.3399  0.1766 -0.4345
  966YOPC   C4A13946   4.001  16.520   7.302 -0.2658  0.0782  0.3908
  966YOPC   C1B13947   3.721  15.572   6.416 -0.0037 -0.2156  0.0968
  966YOPC   C2B13948   3.764  15.665   6.803  0.0389  0.0564  0.0326
  966YOPC   D3B13949   4.061  15.748   7.020 -0.2821 -0.3475  0.1415
  966YOPC   C4B13950   4.138  16.015   7.443 -0.0477  0.1592 -0.0322
  967YOPC   NC313951  16.610  11.567   5.108 -0.1533  0.0342 -0.1975
  967YOPC   PO413952  16.489  11.194   5.225  0.1286 -0.1858 -0.1261
  967YOPC   GL113953  16.660  11.239   5.600 -0.0922  0.0600 -0.1535
  967YOPC   GL213954  16.686  10.886   5.550  0.2604 -0.1919  0.2439
  967YOPC   C1A13955  16.797  11.238   5.970 -0.1228 -0.2796  0.1008
  967YOPC   D2A13956  16.642  11.158   6.412  0.1852  0.2179 -0.1445
  967YOPC   C3A13957  16.555  11.410   6.680  0.0802  0.4897 -0.1950
  967YOPC   C4A13958  16.620  11.697   6.913  0.0637 -0.3234  0.0717
  967YOPC   C1B13959  16.474  10.852   5.996 -0.1171 -0.1145  0.0304
  967YOPC   C2B13960  16.236  10.912   6.342  0.1115 -0.2425  0.3040
  967YOPC   D3B13961  16.016  10.687   6.596 -0.3594  0.0604  0.0008
  967YOPC   C4B13962  15.765  10.243   6.519 -0.0473 -0.0815 -0.2554
  968YOPC   NC313963  14.256   4.472   5.699  0.1539 -0.3666  0.0993
  968YOPC   PO413964  14.199   4.870   5.974  0.1418 -0.0318 -0.0050
  968YOPC   GL113965  14.144   4.991   6.392  0.2455 -0.1212 -0.4849
  968YOPC   GL213966  14.353   4.887   6.581 -0.1142  0.0484 -0.1034
  968YOPC   C1A13967  13.948   5.110   6.779 -0.1390 -0.1355 -0.2164
  968YOPC   D2A13968  14.164   5.198   7.091  0.0933 -0.1971 -0.1193
  968YOPC   C3A13969  14.208   5.005   7.461 -0.1784 -0.1300 -0.2859
  968YOPC   C4A13970  13.939   4.774   7.780  0.2190  0.0342 -0.1672
  968YOPC   C1B13971  14.332   4.705   6.973  0.1973  0.0161 -0.4013
  968YOPC   C2B13972  14.290   4.539   7.402  0.1589  0.4712  0.1815
  968YOPC   D3B13973  14.018   4.321   7.643  0.2159 -0.2020  0.1476
  968YOPC   C4B13974  13.937   3.966   7.936  0.0256 -0.0284 -0.1292
  969YOPC   NC313975  18.683   2.213   5.776  0.2440  0.0815  0.0247
  969YOPC   PO413976  19.072   2.020   5.834 -0.1301 -0.0154 -0.2617
  969YOPC   GL113977  18.940   1.895   6.257 -0.1265  0.0557  0.4599
  969YOPC   GL213978  19.147   1.655   6.422 -0.0086  0.2020 -0.0456
  969YOPC   C1A13979  18.930   2.120   6.616  0.0596 -0.2002 -0.2189
  969YOPC   D2A13980  19.391   2.202   6.554  0.4861 -0.0065  0.3094
  969YOPC   C3A13981  19.705   2.392   6.787  0.0592 -0.2791  0.3411
  969YOPC   C4A13982  20.073   2.519   6.950  0.1651 -0.1980  0.1547
  969YOPC   C1B13983  19.236   1.721   6.824 -0.0643 -0.0274  0.1974
  969YOPC   C2B13984  19.124   1.608   7.265 -0.1381 -0.1162  0.0228
  969YOPC   D3B13985  18.903   1.469   7.443  0.3185  0.0795  0.0724
  969YOPC   C4B13986  18.622   1.036   7.632  0.1063 -0.0711 -0.3835
  970YOPC   NC313987   8.575  12.712   5.432  0.0070 -0.1508  0.3234
  970YOPC   PO413988   8.221  12.526   5.457  0.1043 -0.2369 -0.0863
  970YOPC   GL113989   7.922  12.534   5.809  0.0710  0.0793  0.0680
  970YOPC   GL213990   7.762  12.210   5.825 -0.1058  0.3468  0.3783
  970YOPC   C1A13991   8.039  12.414   6.169 -0.0482 -0.0410 -0.1197
  970YOPC   D2A13992   8.025  12.498   6.598 -0.2847  0.3101 -0.1187
  970YOPC   C3A13993   7.691  12.753   6.909  0.0642 -0.0519  0.1310
  970YOPC   C4A13994   7.323  12.668   7.177 -0.1597  0.0582  0.2307
  970YOPC   C1B13995   7.524  12.406   6.167 -0.2401 -0.4753 -0.3506
  970YOPC   C2B13996   7.406  12.632   6.539 -0.0533 -0.1327  0.3240
  970YOPC   D3B13997   6.952  12.635   6.540 -0.0720 -0.0296  0.0772
  970YOPC   C4B13998   6.705  13.006   6.556  0.1677 -0.2244  0.0190
  971YOPC   NC313999   1.739  10.069   5.732  0.0204 -0.0063 -0.0211
  971YOPC   PO414000   1.933  10.489   5.537  0.1898  0.3333  0.0881
  971YOPC   GL114001   2.075  10.308   6.021  0.0337  0.3967 -0.1177
  971YOPC   GL214002   1.988  10.588   6.120 -0.2775 -0.1172  0.0297
  971YOPC   C1A14003   1.974  10.090   6.404  0.1498  0.0547  0.1690
  971YOPC   D2A14004   2.310   9.921   6.738  0.1638  0.1679 -0.0409
  971YOPC   C3A14005   2.195   9.907   7.177  0.0134 -0.3749  0.0969
  971YOPC   C4A14006   2.331  10.220   7.483 -0.0506 -0.1030 -0.3524
  971YOPC   C1B14007   1.941  10.566   6.532  0.0134  0.0724 -0.3102
  971YOPC   C2B14008   1.665  10.638   6.914  0.0713  0.0541  0.1137
  971YOPC   D3B14009   1.427  10.377   7.108 -0.3135 -0.0638 -0.1069
  971YOPC   C4B14010   1.349   9.980   7.045  0.2958  0.1256 -0.0844
  972YOPC   NC314011  15.574  12.399   5.202 -0.3597  0.2557 -0.1155
  972YOPC   PO414012  15.157  12.487   5.129 -0.3104 -0.1795  0.0689
  972YOPC   GL114013  14.948  12.412   5.537 -0.1261  0.2116 -0.0743
  972YOPC   GL214014  14.790  12.082   5.621 -0.0329  0.1756 -0.2433
  972YOPC   C1A14015  14.825  12.446   5.947  0.0206  0.3649  0.0838
  972YOPC   D2A14016  14.994  12.623   6.274 -0.0874 -0.0890 -0.0259
  972YOPC   C3A14017  14.560  12.878   6.561  0.3283 -0.1745  0.1501
  972YOPC   C4A14018  14.316  13.127   6.374 -0.0356  0.1116 -0.0749
  972YOPC   C1B14019  14.984  11.987   6.045 -0.2158  0.3885  0.0555
  972YOPC   C2B14020  15.058  12.128   6.432  0.0960 -0.2756  0.1084
  972YOPC   D3B14021  15.252  11.714   6.623 -0.1754 -0.2351  0.0750
  972YOPC   C4B14022  15.204  11.490   6.903 -0.0978  0.0670  0.3686
  973YOPC   NC314023   0.842  15.904   5.389  0.0193  0.1652  0.0068
  973YOPC   PO414024   0.433  15.991   5.600 -0.3853  0.2199  0.1390
  973YOPC   GL114025   0.450  16.179   6.016  0.4149  0.2721  0.2626
  973YOPC   GL214026   0.790  16.130   6.166  0.1356  0.0245 -0.0019
  973YOPC   C1A14027   0.207  16.137   6.361 -0.1608 -0.1296  0.2583
  973YOPC   D2A14028   0.072  16.358   6.650  0.1837  0.0751 -0.0122
  973YOPC   C3A14029   0.057  16.276   7.099  0.0250  0.1339 -0.0737
  973YOPC   C4A14030  -0.103  16.021   7.435 -0.1698 -0.2619  0.1832
  973YOPC   C1B14031   0.678  16.036   6.554  0.0224  0.2142 -0.0102
  973YOPC   C2B14032   0.434  16.035   6.785 -0.0780  0.1086  0.3269
  973YOPC   D3B14033   0.173  15.735   6.746 -0.1959  0.1408 -0.2057
  973YOPC   C4B14034  -0.115  15.720   7.004 -0.1180 -0.0930 -0.0891
  974YOPC   NC314035  17.896  13.256   4.893  0.0928 -0.1778  0.0531
  974YOPC   PO414036  17.911  13.397   5.258 -0.0998  0.0184  0.1473
  974YOPC   GL114037  18.189  13.718   5.564 -0.3329 -0.0694  0.0883
  974YOPC   GL214038  18.461  13.795   5.809 -0.1404  0.2097  0.1824
  974YOPC   C1A14039  17.927  13.906   5.984 -0.1056  0.1256  0.0126
  974YOPC   D2A14040  18.030  13.753   6.423 -0.0308 -0.0130  0.2458
  974YOPC   C3A14041  17.913  13.815   6.714  0.1433 -0.0163 -0.1079
  974YOPC   C4A14042  17.946  13.499   7.054 -0.4124 -0.0581  0.1666
  974YOPC   C1B14043  18.378  14.003   6.110 -0.0976  0.1670 -0.0574
  974YOPC   C2B14044  18.265  14.422   6.226 -0.0066  0.3169 -0.2553
  974YOPC   D3B14045  18.033  14.795   6.374  0.0759  0.2619 -0.1600
  974YOPC   C4B14046  17.789  15.074   6.584 -0.2332  0.2593 -0.1599
  975YOPC   NC314047  16.836  15.095   5.431 -0.0951 -0.2369 -0.1005
  975YOPC   PO414048  16.401  15.266   5.657 -0.2001 -0.3029 -0.2901
  975YOPC   GL114049  16.262  15.109   6.096 -0.1642 -0.3023  0.1557
  975YOPC   GL214050  15.955  15.051   5.980 -0.1063 -0.3220 -0.1753
  975YOPC   C1A14051  16.197  15.071   6.541  0.0573  0.4217  0.1317
  975YOPC   D2A14052  16.491  15.013   6.858 -0.2178 -0.2284 -0.1488
  975YOPC   C3A14053  16.086  15.112   7.091  0.2086  0.0909  0.0245
  975YOPC   C4A14054  15.746  15.289   7.058 -0.0990 -0.0475 -0.3489
  975YOPC   C1B14055  15.764  14.951   6.400  0.1327  0.0275  0.2938
  975YOPC   C2B14056  15.740  14.750   6.716  0.3145 -0.2190  0.1290
  975YOPC   D3B14057  16.114  14.666   6.950  0.0456  0.1496  0.1633
  975YOPC   C4B14058  16.432  14.741   7.281  0.1651 -0.0403 -0.2009
  976YOPC   NC314059  18.468   7.813   5.404 -0.1637 -0.1638 -0.3138
  976YOPC   PO414060  18.251   7.467   5.672 -0.0412 -0.1535 -0.0025
  976YOPC   GL114061  18.122   7.367   6.128  0.1575  0.0926 -0.0174
  976YOPC   GL214062  18.190   7.599   6.321 -0.2071 -0.1645 -0.0137
  976YOPC   C1A14063  18.370   7.276   6.633  0.3392 -0.2398 -0.0034
  976YOPC   D2A14064  18.422   7.422   6.937 -0.2167  0.4320 -0.2385
  976YOPC   C3A14065  18.764   7.651   7.031 -0.1028 -0.3182 -0.1270
  976YOPC   C4A14066  19.164   7.388   7.266  0.1498  0.2416 -0.1204
  976YOPC   C1B14067  18.143   7.842   6.729  0.1628  0.2437  0.0710
  976YOPC   C2B14068  17.983   7.786   7.004 -0.1774  0.2196 -0.2793
  976YOPC   D3B14069  18.240   7.635   7.383 -0.0866  0.1071 -0.3165
  976YOPC   C4B14070  18.381   7.414   7.759 -0.1948 -0.3202  0.1992
  977YOPC   NC314071  11.280  17.321   5.028 -0.0095 -0.2269 -0.1361
  977YOPC   PO414072  11.244  17.572   5.428 -0.0014  0.0821 -0.4950
  977YOPC   GL114073  11.174  17.722   5.816  0.0648  0.0239 -0.0380
  977YOPC   GL214074  10.853  17.940   6.049  0.1393 -0.3858  0.2594
  977YOPC   C1A14075  11.369  17.954   6.118 -0.0410  0.0837  0.3751
  977YOPC   D2A14076  11.312  18.059   6.607 -0.3106 -0.0379 -0.1550
  977YOPC   C3A14077  10.912  18.166   6.938  0.0647  0.1503  0.2042
  977YOPC   C4A14078  10.423  18.377   7.143  0.0784  0.0691 -0.2543
  977YOPC   C1B14079  10.856  17.978   6.494  0.0641  0.0351  0.3014
  977YOPC   C2B14080  10.542  17.872   6.806  0.0176  0.1593  0.0064
  977YOPC   D3B14081  10.188  18.192   6.770 -0.1265  0.0353 -0.0692
  977YOPC   C4B14082   9.963  18.493   6.929  0.0944 -0.0387 -0.0823
  978YOPC   NC314083   4.394  14.428   5.610 -0.1682  0.0295 -0.2274
  978YOPC   PO414084   4.765  14.630   5.799 -0.2194 -0.1832 -0.1897
  978YOPC   GL114085   4.730  14.458   6.199  0.1882 -0.3038 -0.0834
  978YOPC   GL214086   4.484  14.247   6.179 -0.1627  0.1387  0.0973
  978YOPC   C1A14087   4.653  14.527   6.601  0.5048  0.2002 -0.2105
  978YOPC   D2A14088   4.793  14.816   6.985 -0.2260 -0.2917  0.1920
  978YOPC   C3A14089   4.541  14.893   7.412 -0.3193 -0.1643  0.1763
  978YOPC   C4A14090   4.472  15.088   7.792 -0.0264 -0.1117 -0.0568
  978YOPC   C1B14091   4.357  14.147   6.576  0.0264 -0.1673 -0.1316
  978YOPC   C2B14092   4.488  14.184   6.917  0.1824  0.5076 -0.5431
  978YOPC   D3B14093   4.078  14.214   6.974  0.1782 -0.0711  0.1914
  978YOPC   C4B14094   3.755  14.100   7.239 -0.3073  0.0838 -0.4265
  979YOPC   NC314095   3.870  10.596   5.672  0.0981  0.1129 -0.0950
  979YOPC   PO414096   4.093  10.371   5.425 -0.0111 -0.3775  0.1260
  979YOPC   GL114097   4.101  10.256   6.003  0.3354  0.1021  0.4291
  979YOPC   GL214098   4.024  10.044   6.156 -0.3878 -0.0546 -0.0783
  979YOPC   C1A14099   4.282  10.371   6.445 -0.1370  0.0804 -0.0935
  979YOPC   D2A14100   4.375  10.714   6.763 -0.1377 -0.3300 -0.2102
  979YOPC   C3A14101   4.572  10.496   7.125  0.0829 -0.0750 -0.2576
  979YOPC   C4A14102   4.455  10.209   7.577 -0.1218  0.1389 -0.0890
  979YOPC   C1B14103   4.063   9.866   6.453 -0.1387  0.2102  0.0774
  979YOPC   C2B14104   4.106   9.880   6.828  0.0597  0.4853 -0.1751
  979YOPC   D3B14105   3.876   9.487   7.044 -0.0479 -0.2075  0.0250
  979YOPC   C4B14106   3.629   9.210   7.107 -0.1432  0.1978 -0.1814
  980YOPC   NC314107  18.713   9.262   4.872 -0.4603  0.0211 -0.2405
  980YOPC   PO414108  18.719   9.032   5.243 -0.1689  0.0866 -0.1089
  980YOPC   GL114109  18.787   8.821   5.574  0.1491  0.1854  0.1050
  980YOPC   GL214110  18.548   8.636   5.674  0.3207  0.3878  0.1888
  980YOPC   C1A14111  18.764   8.922   6.021  0.1639  0.2791  0.1453
  980YOPC   D2A14112  18.952   8.948   6.374 -0.2206  0.0575  0.2691
  980YOPC   C3A14113  19.239   8.782   6.458 -0.2711  0.0950 -0.1942
  980YOPC   C4A14114  19.417   8.417   6.484  0.2604  0.0537  0.0109
  980YOPC   C1B14115  18.553   8.413   6.035  0.1190 -0.1718  0.1180
  980YOPC   C2B14116  18.259   8.382   6.427 -0.0750  0.2311  0.2616
  980YOPC   D3B14117  17.907   8.509   6.388  0.0276 -0.0027 -0.3766
  980YOPC   C4B14118  17.409   8.625   6.355  0.2542 -0.1745  0.1090
  981YOPC   NC314119   1.186   7.801   5.268  0.2018  0.1119  0.1067
  981YOPC   PO414120   1.225   7.828   5.735 -0.2242 -0.1152 -0.0043
  981YOPC   GL114121   0.923   7.884   6.073 -0.1708  0.0507 -0.0478
  981YOPC   GL214122   0.884   8.155   6.135  0.0459 -0.0722 -0.2516
  981YOPC   C1A14123   0.854   7.596   6.419 -0.2604  0.2521 -0.1217
  981YOPC   D2A14124   0.907   7.492   6.870 -0.2479 -0.2850  0.1598
  981YOPC   C3A14125   0.839   7.826   7.258 -0.2467 -0.1479 -0.0625
  981YOPC   C4A14126   0.903   8.191   7.281 -0.3655  0.2837  0.1148
  981YOPC   C1B14127   0.620   8.148   6.490  0.0786  0.0411  0.3471
  981YOPC   C2B14128   0.471   7.949   6.908 -0.2928  0.2433 -0.1440
  981YOPC   D3B14129   0.447   7.467   6.928  0.2873  0.0275 -0.6120
  981YOPC   C4B14130   0.527   7.218   7.280 -0.1285 -0.0519  0.0600
  982YOPC   NC314131  12.024   0.173   5.649  0.0372 -0.2960 -0.3603
  982YOPC   PO414132  11.740   0.585   5.641  0.2230  0.3228 -0.1330
  982YOPC   GL114133  11.512   0.236   5.924 -0.1288 -0.1381  0.0961
  982YOPC   GL214134  11.537  -0.193   6.059  0.3753 -0.2791  0.0600
  982YOPC   C1A14135  11.322   0.118   6.290 -0.1459 -0.2792 -0.0935
  982YOPC   D2A14136  11.357  -0.100   6.741 -0.2501  0.0371 -0.0771
  982YOPC   C3A14137  11.493  -0.547   6.761 -0.0298  0.2987  0.0135
  982YOPC   C4A14138  11.744  -1.007   6.865  0.2428 -0.0147  0.0468
  982YOPC   C1B14139  11.707  -0.247   6.313 -0.2185  0.1766 -0.2478
  982YOPC   C2B14140  12.025  -0.504   6.736 -0.0275  0.0226 -0.2431
  982YOPC   D3B14141  12.489  -0.573   6.729 -0.0207  0.0819  0.1348
  982YOPC   C4B14142  12.726  -0.514   6.474  0.1261 -0.0551  0.2811
  983YOPC   NC314143  11.998   9.474   5.235 -0.2973 -0.4164  0.0558
  983YOPC   PO414144  11.721   9.682   5.475  0.0217  0.0274  0.0502
  983YOPC   GL114145  11.744   9.741   5.975  0.0034  0.0952 -0.2321
  983YOPC   GL214146  11.462   9.722   6.126 -0.0628  0.0125 -0.1145
  983YOPC   C1A14147  11.849   9.889   6.456 -0.0527  0.1889  0.2357
  983YOPC   D2A14148  11.634   9.686   6.841  0.0640 -0.1791  0.1114
  983YOPC   C3A14149  11.756   9.580   7.174  0.2404 -0.3198  0.1979
  983YOPC   C4A14150  11.888   9.247   7.309 -0.2183  0.3453  0.1793
  983YOPC   C1B14151  11.072   9.914   6.085 -0.0607  0.1696  0.0348
  983YOPC   C2B14152  10.829  10.018   6.448 -0.0427 -0.1622 -0.0342
  983YOPC   D3B14153  10.510  10.108   6.220  0.3190 -0.1839  0.3270
  983YOPC   C4B14154  10.198  10.222   5.895  0.0133 -0.0171 -0.0039
  984YOPC   NC314155   8.912   2.557   5.480  0.4527 -0.1604 -0.4669
  984YOPC   PO414156   8.472   2.421   5.461 -0.2256  0.2980  0.5283
  984YOPC   GL114157   8.576   2.226   5.777 -0.0941 -0.0297  0.2255
  984YOPC   GL214158   8.374   1.942   5.970  0.2951  0.3261  0.2794
  984YOPC   C1A14159   8.500   2.363   6.226 -0.2355  0.1877 -0.1506
  984YOPC   D2A14160   8.390   2.302   6.623  0.0813  0.2184  0.1281
  984YOPC   C3A14161   8.405   2.260   7.070 -0.2920  0.0645 -0.2893
  984YOPC   C4A14162   8.401   2.235   7.418 -0.1853 -0.1047 -0.3704
  984YOPC   C1B14163   8.411   1.825   6.482 -0.1868 -0.0205 -0.0436
  984YOPC   C2B14164   8.632   1.835   6.872  0.0904 -0.1138  0.3469
  984YOPC   D3B14165   8.871   1.615   7.262  0.1747 -0.1436 -0.0729
  984YOPC   C4B14166   9.299   1.507   7.389 -0.3367 -0.3496  0.2155
  985YOPC   NC314167  12.068   5.950   4.918 -0.3261 -0.3235  0.1461
  985YOPC   PO414168  12.080   6.099   5.397 -0.0174 -0.0006 -0.2851
  985YOPC   GL114169  11.906   5.953   5.864  0.0562  0.2965 -0.1477
  985YOPC   GL214170  11.529   6.016   6.017 -0.1441 -0.2818  0.2845
  985YOPC   C1A14171  12.200   5.831   6.126 -0.0050  0.2059 -0.4120
  985YOPC   D2A14172  12.074   6.098   6.427 -0.0031  0.1111 -0.1194
  985YOPC   C3A14173  11.776   6.118   6.683 -0.1607  0.2028  0.3131
  985YOPC   C4A14174  11.784   6.366   7.016  0.0956  0.1746  0.2016
  985YOPC   C1B14175  11.636   5.672   6.262 -0.0743 -0.0762 -0.2946
  985YOPC   C2B14176  12.071   5.581   6.515  0.0234  0.0048  0.0912
  985YOPC   D3B14177  12.293   5.842   6.834  0.0903 -0.1028 -0.3021
  985YOPC   C4B14178  12.469   5.551   7.199  0.2700  0.1986  0.1000
  986YOPC   NC314179  18.305  18.393   6.038  0.1354  0.3718 -0.2630
  986YOPC   PO414180  18.721  18.382   5.915  0.2799  0.2161 -0.0273
  986YOPC   GL114181  18.716  18.576   6.316  0.1603  0.1035  0.0176
  986YOPC   GL214182  18.976  18.372   6.542  0.0521 -0.5617  0.0804
  986YOPC   C1A14183  18.624  18.966   6.615  0.0854  0.1855 -0.0332
  986YOPC   D2A14184  18.466  19.011   6.894 -0.0270  0.1734 -0.0653
  986YOPC   C3A14185  18.604  19.066   7.285 -0.1675 -0.1487 -0.1062
  986YOPC   C4A14186  18.744  19.289   7.532  0.2263 -0.0548 -0.1359
  986YOPC   C1B14187  18.785  18.576   6.859 -0.4031 -0.0735  0.2409
  986YOPC   C2B14188  18.834  18.591   7.304 -0.1676  0.1724 -0.3179
  986YOPC   D3B14189  18.913  18.334   7.650 -0.0187  0.0807 -0.1060
  986YOPC   C4B14190  18.793  18.195   7.948  0.2222  0.0068  0.2881
  987YOPC   NC314191  12.183  11.537   5.349 -0.0863  0.1719 -0.2477
  987YOPC   PO414192  12.038  11.300   5.732  0.1334  0.2882 -0.1237
  987YOPC   GL114193  12.199  11.375   6.051  0.0951  0.2213 -0.0450
  987YOPC   GL214194  12.233  11.651   6.046  0.1154  0.2048 -0.2991
  987YOPC   C1A14195  12.624  11.432   6.284  0.3360 -0.0766  0.2523
  987YOPC   D2A14196  12.850  11.514   6.608 -0.6658  0.1514  0.3330
  987YOPC   C3A14197  12.854  11.505   6.988  0.0132  0.0420 -0.0375
  987YOPC   C4A14198  12.661  11.354   7.382  0.2111  0.0709 -0.0367
  987YOPC   C1B14199  12.391  11.784   6.500  0.1395  0.3564  0.1049
  987YOPC   C2B14200  12.373  11.737   6.867  0.1386  0.1371 -0.1488
  987YOPC   D3B14201  12.603  11.937   7.124  0.1101 -0.2664 -0.3482
  987YOPC   C4B14202  12.624  12.297   7.383 -0.0829  0.4011  0.3579
  988YOPC   NC314203  18.567   0.506   5.697  0.2406  0.1687  0.0092
  988YOPC   PO414204  18.569   0.865   5.594  0.2479 -0.0164  0.0533
  988YOPC   GL114205  18.796   0.982   5.923  0.2876 -0.0189 -0.1824
  988YOPC   GL214206  18.905   0.712   6.098 -0.2758 -0.1890  0.2105
  988YOPC   C1A14207  18.972   1.127   6.351 -0.4729 -0.1704  0.2589
  988YOPC   D2A14208  19.050   1.274   6.814 -0.1202 -0.1273 -0.0122
  988YOPC   C3A14209  19.402   1.048   7.125  0.1065  0.1391  0.0230
  988YOPC   C4A14210  19.508   1.316   7.480 -0.1924 -0.3925  0.1428
  988YOPC   C1B14211  18.842   0.669   6.510 -0.0134 -0.1627  0.0148
  988YOPC   C2B14212  19.109   0.726   6.822  0.1567 -0.3456  0.0884
  988YOPC   D3B14213  19.458   0.567   6.896  0.1685  0.0751 -0.0897
  988YOPC   C4B14214  19.825   0.571   7.196 -0.1134  0.0234 -0.0763
  989YOPC   NC314215  15.382  13.146   4.752  0.0290  0.2114 -0.0659
  989YOPC   PO414216  15.203  13.513   5.027  0.1171 -0.2459  0.1112
  989YOPC   GL114217  14.915  13.472   5.404  0.2378  0.2909 -0.2221
  989YOPC   GL214218  14.674  13.282   5.443 -0.0134  0.0826  0.1584
  989YOPC   C1A14219  14.755  13.539   5.836  0.3022 -0.1619 -0.3256
  989YOPC   D2A14220  14.687  13.662   6.226  0.2681 -0.2957 -0.2381
  989YOPC   C3A14221  14.779  13.456   6.591  0.3431  0.4071 -0.1079
  989YOPC   C4A14222  14.689  13.119   6.962  0.0927 -0.2086 -0.3760
  989YOPC   C1B14223  15.027  12.977   5.608  0.0183 -0.1334 -0.2089
  989YOPC   C2B14224  15.269  12.861   5.919 -0.0023  0.1573  0.2188
  989YOPC   D3B14225  15.624  13.164   5.848 -0.0001 -0.1314  0.1946
  989YOPC   C4B14226  15.689  13.641   5.826 -0.1153  0.2235 -0.1604
  990YOPC   NC314227  17.319   9.983   4.918  0.0207  0.1812 -0.3638
  990YOPC   PO414228  17.607  10.205   5.124 -0.1207  0.2788 -0.3851
  990YOPC   GL114229  17.628  10.339   5.478 -0.1399  0.3635 -0.2086
  990YOPC   GL214230  17.563  10.703   5.551 -0.2174  0.2050 -0.0285
  990YOPC   C1A14231  17.965  10.410   5.797  0.2350 -0.1720  0.1211
  990YOPC   D2A14232  18.404  10.233   5.774  0.1591  0.0772  0.1988
  990YOPC   C3A14233  18.773  10.426   5.919  0.3035 -0.0181 -0.1451
  990YOPC   C4A14234  18.766  10.733   6.268  0.1054 -0.1179  0.0198
  990YOPC   C1B14235  17.495  10.516   5.937 -0.3603 -0.2632 -0.0142
  990YOPC   C2B14236  17.695  10.377   6.349 -0.0688  0.1444  0.0245
  990YOPC   D3B14237  18.092  10.237   6.315  0.4106 -0.1418  0.1113
  990YOPC   C4B14238  18.274   9.901   6.135  0.0222  0.2484 -0.2789
  991YOPC   NC314239   1.838   4.956   5.009  0.0215 -0.0411  0.0667
  991YOPC   PO414240   2.097   4.888   5.383 -0.0742 -0.2773 -0.1196
  991YOPC   GL114241   1.979   4.995   5.732 -0.2022 -0.0980 -0.1764
  991YOPC   GL214242   1.863   5.247   5.656  0.0784  0.1300 -0.1043
  991YOPC   C1A14243   2.080   4.835   6.230 -0.0921 -0.2348 -0.2261
  991YOPC   D2A14244   1.840   4.963   6.630 -0.1025  0.2222 -0.1263
  991YOPC   C3A14245   1.714   5.121   6.918  0.0393 -0.0641 -0.0709
  991YOPC   C4A14246   1.460   5.459   6.987  0.1230 -0.0113 -0.1868
  991YOPC   C1B14247   1.352   5.200   5.737  0.2257 -0.1667 -0.1029
  991YOPC   C2B14248   0.938   5.247   5.947  0.1603  0.3259 -0.1168
  991YOPC   D3B14249   0.637   5.595   5.873 -0.0227 -0.6469  0.1828
  991YOPC   C4B14250   0.376   5.838   6.078 -0.1407  0.1273  0.2443
  992YOPC   NC314251   7.332   3.000   5.215  0.2182  0.1557 -0.0621
  992YOPC   PO414252   7.388   3.427   5.339 -0.2916  0.1469  0.0636
  992YOPC   GL114253   7.272   3.446   5.763 -0.0306  0.3038 -0.1861
  992YOPC   GL214254   7.032   3.554   5.688  0.1789 -0.1058 -0.0010
  992YOPC   C1A14255   7.568   3.375   6.173 -0.2144 -0.1927  0.0478
  992YOPC   D2A14256   7.924   3.653   6.330  0.1058  0.2837 -0.0846
  992YOPC   C3A14257   8.399   3.376   6.425 -0.3074  0.0880  0.2579
  992YOPC   C4A14258   8.791   3.168   6.097 -0.0810  0.1015  0.0486
  992YOPC   C1B14259   7.034   3.580   6.151  0.0288  0.1927  0.0568
  992YOPC   C2B14260   7.108   3.469   6.594 -0.0872 -0.3700  0.0518
  992YOPC   D3B14261   7.280   3.126   6.818 -0.2610  0.1438 -0.1643
  992YOPC   C4B14262   7.542   2.898   6.621  0.0703  0.0763 -0.3095
  993YOPC   NC314263   1.737  17.871   5.900 -0.0425  0.0794  0.3342
  993YOPC   PO414264   1.492  18.159   5.989  0.0888  0.1604 -0.0075
  993YOPC   GL114265   1.609  18.097   6.451 -0.0674  0.0086 -0.0373
  993YOPC   GL214266   1.817  18.024   6.427 -0.0463  0.2127 -0.0120
  993YOPC   C1A14267   1.618  18.197   6.920 -0.1576 -0.0014  0.0059
  993YOPC   D2A14268   1.615  18.281   7.375 -0.0735 -0.1593  0.0942
  993YOPC   C3A14269   1.584  18.123   7.845  0.0141 -0.0128  0.1849
  993YOPC   C4A14270   1.599  18.169   8.374  0.3581  0.0687  0.3861
  993YOPC   C1B14271   2.156  18.055   6.718 -0.6277 -0.0478  0.3659
  993YOPC   C2B14272   2.492  17.954   6.895  0.1791 -0.1659 -0.1895
  993YOPC   D3B14273   2.434  17.699   7.270  0.0031  0.1693 -0.0249
  993YOPC   C4B14274   2.072  17.400   7.473 -0.2047  0.2943 -0.1705
  994YOPC   NC314275  14.633  10.612   4.947  0.0806  0.2961  0.1367
  994YOPC   PO414276  14.513  10.586   5.402 -0.2411 -0.0835 -0.1684
  994YOPC   GL114277  14.598  10.768   5.779  0.0932 -0.0760  0.1199
  994YOPC   GL214278  14.280  10.674   5.961 -0.0117 -0.0741 -0.0926
  994YOPC   C1A14279  14.867  10.896   6.134 -0.1048  0.1649 -0.0094
  994YOPC   D2A14280  14.933  11.083   6.547  0.2214 -0.3699  0.1391
  994YOPC   C3A14281  14.732  11.400   6.686 -0.3104 -0.0816  0.6183
  994YOPC   C4A14282  14.746  11.606   7.130  0.1011 -0.1766  0.1627
  994YOPC   C1B14283  14.359  10.774   6.368  0.0402  0.3748 -0.0417
  994YOPC   C2B14284  14.593  10.770   6.717  0.0522  0.4890  0.1359
  994YOPC   D3B14285  14.635  10.963   7.081 -0.3133  0.0454 -0.0140
  994YOPC   C4B14286  14.799  11.206   7.323 -0.0516  0.0038  0.1724
  995YOPC   NC314287   2.659   7.198   4.925  0.0680 -0.2728  0.2147
  995YOPC   PO414288   2.453   6.886   5.280 -0.0326 -0.3786  0.0535
  995YOPC   GL114289   2.357   6.912   5.632 -0.0848  0.1229 -0.0258
  995YOPC   GL214290   2.543   6.816   5.872 -0.0563  0.4417  0.1646
  995YOPC   C1A14291   2.182   7.193   5.985 -0.0452  0.1215 -0.2111
  995YOPC   D2A14292   1.909   7.180   6.273  0.4562 -0.1231  0.3240
  995YOPC   C3A14293   1.803   6.718   6.503  0.0491 -0.0710 -0.1620
  995YOPC   C4A14294   1.322   6.578   6.493  0.2059  0.0688  0.1320
  995YOPC   C1B14295   2.682   7.099   6.091  0.2092 -0.0997 -0.2372
  995YOPC   C2B14296   2.961   7.417   6.374 -0.1180  0.2384  0.0126
  995YOPC   D3B14297   3.253   7.545   6.285 -0.0811  0.0777  0.0787
  995YOPC   C4B14298   3.346   7.837   5.968  0.2660  0.0042 -0.2400
  996YOPC   NC314299   5.879   0.904   4.654  0.1763  0.0509  0.3727
  996YOPC   PO414300   5.689   0.766   5.047  0.0013  0.0325  0.0274
  996YOPC   GL114301   5.781   0.891   5.444  0.0305  0.3039 -0.2891
  996YOPC   GL214302   5.534   0.783   5.599 -0.1500  0.0323  0.2381
  996YOPC   C1A14303   5.729   1.152   5.902  0.0568 -0.0130 -0.0465
  996YOPC   D2A14304   5.840   1.401   6.279 -0.0873  0.2392  0.2351
  996YOPC   C3A14305   5.617   1.308   6.643 -0.1727 -0.0893 -0.1917
  996YOPC   C4A14306   5.632   0.996   6.961  0.0036 -0.1519  0.1226
  996YOPC   C1B14307   5.650   0.678   6.007 -0.2533  0.2509 -0.0084
  996YOPC   C2B14308   5.655   0.790   6.361 -0.0209 -0.0180 -0.0888
  996YOPC   D3B14309   5.516   0.492   6.829  0.2107  0.0856  0.4766
  996YOPC   C4B14310   5.219   0.320   7.104 -0.2993  0.2135  0.3170
  997YOPC   NC314311  14.795  17.036   5.238  0.0963  0.0792 -0.0436
  997YOPC   PO414312  14.638  17.412   5.565  0.3676  0.3595 -0.1787
  997YOPC   GL114313  14.635  17.491   5.882  0.0366  0.0596  0.0551
  997YOPC   GL214314  14.394  17.339   6.079  0.0109  0.1411 -0.2418
  997YOPC   C1A14315  14.811  17.602   6.278  0.0560  0.3327  0.1259
  997YOPC   D2A14316  15.163  17.508   6.577  0.0490 -0.0237 -0.0353
  997YOPC   C3A14317  15.023  17.701   7.002 -0.2020 -0.1821  0.0775
  997YOPC   C4A14318  14.831  17.528   7.447  0.1231 -0.1027  0.0063
  997YOPC   C1B14319  14.189  17.444   6.564 -0.0323  0.2968  0.1748
  997YOPC   C2B14320  14.155  17.455   6.963  0.0519 -0.0872 -0.0641
  997YOPC   D3B14321  14.344  17.253   7.306 -0.2346  0.1488  0.2347
  997YOPC   C4B14322  14.630  17.083   7.555 -0.2518  0.2459 -0.0800
  998YOPC   NC314323  17.084  19.159   5.702 -0.2408  0.3606 -0.0148
  998YOPC   PO414324  16.917  19.569   5.819 -0.0114  0.0612  0.1512
  998YOPC   GL114325  16.796  19.673   6.142  0.0600 -0.0735  0.0288
  998YOPC   GL214326  16.605  19.981   6.199  0.1287  0.0853  0.1426
  998YOPC   C1A14327  16.596  19.361   6.453  0.1603 -0.0700 -0.0767
  998YOPC   D2A14328  16.449  19.575   6.838 -0.3217  0.2118 -0.1745
  998YOPC   C3A14329  16.287  19.387   7.204  0.0570  0.0098  0.0212
  998YOPC   C4A14330  15.973  19.070   7.427  0.0470 -0.3262 -0.0037
  998YOPC   C1B14331  16.476  20.148   6.575 -0.0654  0.2047  0.1794
  998YOPC   C2B14332  16.510  20.249   7.140 -0.3714  0.1892 -0.0977
  998YOPC   D3B14333  16.836  19.928   7.252  0.3056  0.2715 -0.0764
  998YOPC   C4B14334  17.191  20.030   7.373 -0.2074  0.3610 -0.0614
  999YOPC   NC314335   6.338  13.719   5.638  0.0432  0.2219  0.3402
  999YOPC   PO414336   6.505  14.035   5.510  0.0750 -0.1973 -0.1944
  999YOPC   GL114337   6.868  14.071   5.724 -0.2396 -0.2851 -0.0640
  999YOPC   GL214338   7.076  14.303   5.575 -0.1001 -0.4113 -0.0044
  999YOPC   C1A14339   7.087  14.088   6.152  0.0627 -0.0900 -0.2972
  999YOPC   D2A14340   7.207  14.077   6.626 -0.0721  0.1577 -0.3077
  999YOPC   C3A14341   6.942  13.760   6.803  0.1854  0.2080 -0.0961
  999YOPC   C4A14342   6.649  13.410   6.921 -0.1852  0.3093  0.1306
  999YOPC   C1B14343   7.279  14.534   5.903  0.0700  0.1249  0.0980
  999YOPC   C2B14344   7.274  14.817   6.134  0.3812 -0.0236  0.0607
  999YOPC   D3B14345   7.021  14.986   6.447  0.0508 -0.0933 -0.3286
  999YOPC   C4B14346   6.668  15.054   6.594  0.1312 -0.0582 -0.1057
 1000YOPC   NC314347   9.039   0.601   5.102  0.0677 -0.3352 -0.1403
 1000YOPC   PO414348   8.528   0.637   5.099 -0.0497  0.0013  0.0261
 1000YOPC   GL114349   8.332   0.338   5.296  0.3359  0.1145 -0.2060
 1000YOPC   GL214350   8.112   0.230   5.517 -0.0187  0.1645  0.0990
 1000YOPC   C1A14351   8.551   0.368   5.759  0.3800  0.0849  0.2314
 1000YOPC   D2A14352   8.882   0.198   5.894 -0.0847 -0.0550  0.0127
 1000YOPC   C3A14353   8.994   0.159   6.313  0.0380  0.2043  0.1898
 1000YOPC   C4A14354   8.705   0.089   6.665  0.1096 -0.1174  0.2912
 1000YOPC   C1B14355   7.959   0.545   5.822  0.1306 -0.2743 -0.0817
 1000YOPC   C2B14356   7.795   0.849   6.136 -0.2378  0.0141  0.0259
 1000YOPC   D3B14357   7.560   0.980   6.396 -0.1526 -0.3077  0.0013
 1000YOPC   C4B14358   7.148   1.212   6.388  0.1780 -0.0397 -0.0670
 1001YOPC   NC314359  10.107  14.943   5.210 -0.1257 -0.2986 -0.2362
 1001YOPC   PO414360  10.242  15.397   5.298 -0.1477  0.2017 -0.0451
 1001YOPC   GL114361  10.344  15.347   5.764  0.0620  0.0155 -0.2256
 1001YOPC   GL214362  10.154  15.324   5.977  0.0600  0.0835  0.0370
 1001YOPC   C1A14363  10.496  14.899   5.959  0.2837  0.2292 -0.3361
 1001YOPC   D2A14364  10.556  14.698   6.254  0.2344  0.2260 -0.3837
 1001YOPC   C3A14365  10.876  14.525   6.486 -0.1272 -0.0619  0.2028
 1001YOPC   C4A14366  11.292  14.604   6.626 -0.1928 -0.2937 -0.4122
 1001YOPC   C1B14367   9.811  15.364   6.240  0.0223  0.0038 -0.0853
 1001YOPC   C2B14368   9.780  15.246   6.631 -0.2132  0.3010 -0.2228
 1001YOPC   D3B14369  10.166  15.276   6.859 -0.0206 -0.1445  0.2425
 1001YOPC   C4B14370  10.339  15.087   7.174 -0.1870 -0.1540  0.0066
 1002YOPC   NC314371  16.120  11.591   4.999  0.1903 -0.2486 -0.2252
 1002YOPC   PO414372  16.380  11.948   5.282  0.4969  0.2185 -0.3335
 1002YOPC   GL114373  16.182  12.076   5.667 -0.1135  0.0653 -0.2408
 1002YOPC   GL214374  16.072  12.278   5.812 -0.2181  0.2163 -0.0202
 1002YOPC   C1A14375  16.452  12.076   6.104 -0.1573  0.0319  0.1600
 1002YOPC   D2A14376  16.623  11.963   6.505  0.1196  0.0513  0.3569
 1002YOPC   C3A14377  16.435  12.191   6.840  0.0113 -0.0704 -0.2702
 1002YOPC   C4A14378  16.290  12.015   7.115  0.1920 -0.2015  0.0550
 1002YOPC   C1B14379  16.016  12.360   6.316  0.1243  0.0623  0.1453
 1002YOPC   C2B14380  16.091  12.563   6.738  0.2082 -0.1229 -0.1584
 1002YOPC   D3B14381  15.699  12.867   6.837  0.1421  0.1212 -0.2193
 1002YOPC   C4B14382  15.537  13.145   7.087  0.2366  0.1754 -0.1054
 1003YOPC   NC314383  14.815   6.913   5.886 -0.0451 -0.0172  0.0390
 1003YOPC   PO414384  14.756   6.457   5.897 -0.1148 -0.1216 -0.0680
 1003YOPC   GL114385  14.629   6.537   6.231 -0.0929  0.1252 -0.0290
 1003YOPC   GL214386  14.339   6.623   6.332  0.0721  0.0469  0.1037
 1003YOPC   C1A14387  14.657   6.337   6.606  0.2177 -0.0053 -0.0604
 1003YOPC   D2A14388  14.550   6.096   6.938  0.1611  0.3064 -0.1431
 1003YOPC   C3A14389  14.435   6.165   7.373 -0.0090  0.0360  0.0725
 1003YOPC   C4A14390  14.226   6.032   7.785 -0.4078 -0.0502  0.0426
 1003YOPC   C1B14391  14.252   6.937   6.764  0.2604 -0.1984  0.0350
 1003YOPC   C2B14392  14.005   7.223   7.042 -0.0978  0.3286  0.2151
 1003YOPC   D3B14393  14.299   7.436   7.348 -0.1845  0.1218  0.2048
 1003YOPC   C4B14394  14.435   7.743   7.638 -0.1497  0.2276 -0.1388
 1004YOPC   NC314395   5.858   2.199   5.012  0.1606  0.0385  0.0263
 1004YOPC   PO414396   5.334   2.337   4.879 -0.3367  0.0069 -0.0295
 1004YOPC   GL114397   5.284   2.283   5.324 -0.0698 -0.2019 -0.2158
 1004YOPC   GL214398   5.294   2.615   5.579 -0.1631 -0.2138 -0.0040
 1004YOPC   C1A14399   5.141   2.016   5.721  0.0151 -0.1443 -0.0626
 1004YOPC   D2A14400   4.907   1.730   5.804 -0.2491 -0.0546  0.1389
 1004YOPC   C3A14401   4.880   1.354   6.146 -0.1398  0.0465 -0.1756
 1004YOPC   C4A14402   4.833   1.005   5.855  0.0132  0.0215 -0.1500
 1004YOPC   C1B14403   5.639   2.350   5.700 -0.3351  0.0026 -0.0236
 1004YOPC   C2B14404   5.958   2.244   5.983 -0.1331 -0.0015 -0.0616
 1004YOPC   D3B14405   6.084   2.309   6.347  0.0989 -0.0078  0.0117
 1004YOPC   C4B14406   6.167   2.047   6.742 -0.2500 -0.2506 -0.1563
 1005YOPC   NC314407   7.207   0.936   4.935  0.0930 -0.3162  0.1047
 1005YOPC   PO414408   7.109   0.497   5.087 -0.0070 -0.2611 -0.0122
 1005YOPC   GL114409   7.089   0.329   5.523  0.0292  0.0221 -0.0243
 1005YOPC   GL214410   7.488   0.337   5.464 -0.1719  0.1523 -0.2156
 1005YOPC   C1A14411   7.052   0.227   5.982 -0.2045  0.2053 -0.2090
 1005YOPC   D2A14412   6.808   0.205   6.305 -0.2813 -0.1497  0.0881
 1005YOPC   C3A14413   6.693  -0.229   6.585 -0.2160 -0.3218  0.3944
 1005YOPC   C4A14414   6.737  -0.430   6.936 -0.4246 -0.0684 -0.0396
 1005YOPC   C1B14415   7.405   0.574   5.841 -0.1093  0.4227  0.1328
 1005YOPC   C2B14416   7.185   0.644   6.361 -0.0420 -0.1455 -0.1015
 1005YOPC   D3B14417   6.965   0.474   6.690 -0.0570  0.3063 -0.2624
 1005YOPC   C4B14418   7.054   0.114   6.865 -0.0507  0.5226  0.0386
 1006YOPC   NC314419  15.733  16.265   5.220 -0.3481  0.3964 -0.1995
 1006YOPC   PO414420  15.641  15.950   5.452 -0.1335  0.1692 -0.2874
 1006YOPC   GL114421  15.423  15.888   5.819 -0.0591  0.0400  0.0785
 1006YOPC   GL214422  15.534  15.919   6.138 -0.2987  0.2344 -0.1570
 1006YOPC   C1A14423  15.024  15.909   6.014 -0.1624  0.1800 -0.1849
 1006YOPC   D2A14424  15.136  16.060   6.427 -0.2812  0.0073 -0.0195
 1006YOPC   C3A14425  14.801  16.168   6.740 -0.2087  0.0397 -0.2763
 1006YOPC   C4A14426  14.620  16.572   6.625 -0.2235 -0.3124 -0.3074
 1006YOPC   C1B14427  15.878  15.964   6.469  0.3035 -0.4512  0.2517
 1006YOPC   C2B14428  15.963  15.991   6.929 -0.0899 -0.0417  0.3029
 1006YOPC   D3B14429  15.717  15.791   7.245 -0.3536  0.0790 -0.1159
 1006YOPC   C4B14430  15.581  15.798   7.631  0.0719  0.0404 -0.1068
 1007YOPC   NC314431  10.092   9.060   4.926  0.2406  0.1366  0.0481
 1007YOPC   PO414432   9.879   9.478   5.139  0.1477  0.0785 -0.0110
 1007YOPC   GL114433   9.874   9.360   5.581  0.0443  0.0757 -0.2234
 1007YOPC   GL214434   9.706   9.540   5.865  0.0771  0.5073  0.2046
 1007YOPC   C1A14435  10.259   9.208   5.872 -0.1676 -0.0541  0.4343
 1007YOPC   D2A14436  10.292   9.232   6.239  0.0331  0.2544  0.0312
 1007YOPC   C3A14437  10.376   9.077   6.696  0.0948  0.3991  0.1904
 1007YOPC   C4A14438  10.232   9.384   6.896 -0.0036 -0.2635 -0.1946
 1007YOPC   C1B14439  10.174   9.756   5.993 -0.0714 -0.2595  0.0059
 1007YOPC   C2B14440  10.617   9.539   5.978 -0.0221 -0.2390 -0.0244
 1007YOPC   D3B14441  10.853   9.455   6.256 -0.2343 -0.2237  0.3751
 1007YOPC   C4B14442  11.275   9.260   6.342 -0.0999  0.1837  0.2224
 1008YOPC   NC314443   1.395   0.289   5.440  0.1220 -0.0723 -0.2469
 1008YOPC   PO414444   1.520   0.457   5.820 -0.2347 -0.1950 -0.2532
 1008YOPC   GL114445   1.498   0.638   6.213 -0.1165  0.2034 -0.4721
 1008YOPC   GL214446   1.723   0.751   6.507 -0.1059  0.1714 -0.1925
 1008YOPC   C1A14447   1.143   0.682   6.459 -0.4080  0.3016  0.0063
 1008YOPC   D2A14448   1.005   0.772   6.933  0.0839  0.1776 -0.0286
 1008YOPC   C3A14449   1.305   0.699   7.249  0.2239  0.0192  0.3822
 1008YOPC   C4A14450   1.226   0.526   7.694 -0.1518  0.4537  0.0140
 1008YOPC   C1B14451   1.453   1.010   6.729  0.0214 -0.0588 -0.1719
 1008YOPC   C2B14452   1.004   1.135   6.604  0.1691 -0.0867  0.0868
 1008YOPC   D3B14453   0.748   1.361   6.318  0.0638  0.1152 -0.0991
 1008YOPC   C4B14454   0.389   1.421   6.481  0.0871  0.0400 -0.1836
 1009YOPC   NC314455   0.731  12.414   5.337  0.1899 -0.2925  0.0434
 1009YOPC   PO414456   0.907  11.906   5.510  0.1388 -0.3016  0.1635
 1009YOPC   GL114457   0.853  11.798   5.903 -0.0798  0.3148  0.0431
 1009YOPC   GL214458   0.977  12.093   5.972 -0.3589 -0.1607  0.1595
 1009YOPC   C1A14459   0.574  11.436   6.059  0.1471  0.1694 -0.0835
 1009YOPC   D2A14460   0.221  11.157   6.059 -0.2330 -0.4312  0.1273
 1009YOPC   C3A14461  -0.059  11.122   6.435  0.2089 -0.2277  0.4784
 1009YOPC   C4A14462  -0.431  11.442   6.537  0.3578 -0.0103  0.0625
 1009YOPC   C1B14463   0.824  12.315   6.312 -0.1882 -0.1079  0.0203
 1009YOPC   C2B14464   0.566  12.280   6.731  0.2343  0.1544  0.3198
 1009YOPC   D3B14465   0.189  11.862   6.742  0.1242 -0.1695 -0.1550
 1009YOPC   C4B14466   0.050  11.644   6.469 -0.0646  0.3075  0.1100
 1010YOPC   NC314467  13.464   3.971   6.044  0.2674  0.1960  0.0196
 1010YOPC   PO414468  13.250   4.318   5.984  0.3324 -0.1622 -0.2086
 1010YOPC   GL114469  13.006   4.252   6.352  0.3020 -0.3579  0.1253
 1010YOPC   GL214470  13.279   4.273   6.472 -0.3178 -0.0556  0.0480
 1010YOPC   C1A14471  12.760   4.368   6.711  0.0243  0.3513  0.0139
 1010YOPC   D2A14472  12.444   4.487   6.935 -0.3333 -0.1557  0.1015
 1010YOPC   C3A14473  12.543   4.701   7.325 -0.0758  0.1251 -0.1662
 1010YOPC   C4A14474  12.632   4.900   7.736 -0.1152 -0.1135  0.0333
 1010YOPC   C1B14475  13.158   3.983   6.721 -0.0004  0.0197 -0.0506
 1010YOPC   C2B14476  12.877   3.833   6.813 -0.1212 -0.0137  0.0708
 1010YOPC   D3B14477  12.764   3.632   7.111 -0.2279  0.2879  0.0616
 1010YOPC   C4B14478  12.725   3.702   7.486 -0.2388 -0.1402 -0.2691
 1011YOPC   NC314479  18.269  10.103   4.556 -0.3742 -0.2583 -0.2255
 1011YOPC   PO414480  18.486   9.997   4.998 -0.3061  0.0844 -0.0385
 1011YOPC   GL114481  18.242   9.915   5.429 -0.2037  0.0622 -0.1592
 1011YOPC   GL214482  17.917   9.943   5.466  0.0368  0.1272  0.0525
 1011YOPC   C1A14483  18.345   9.604   5.781  0.0678 -0.2323  0.0236
 1011YOPC   D2A14484  18.085   9.266   6.050 -0.1125  0.0562 -0.1282
 1011YOPC   C3A14485  18.146   9.299   6.450  0.0805  0.3054 -0.1560
 1011YOPC   C4A14486  17.960   9.363   6.851  0.3162 -0.4462  0.0582
 1011YOPC   C1B14487  17.876   9.924   5.847 -0.0718  0.2090 -0.0708
 1011YOPC   C2B14488  17.816   9.723   6.259 -0.5706  0.1183  0.2396
 1011YOPC   D3B14489  17.604   9.356   6.438  0.1300  0.1628  0.3675
 1011YOPC   C4B14490  17.705   9.005   6.422 -0.2147  0.1745 -0.1094
 1012YOPC   NC314491  18.656   4.554   5.311  0.3008  0.1496  0.2532
 1012YOPC   PO414492  18.583   4.935   5.348  0.3824  0.1295 -0.0930
 1012YOPC   GL114493  18.404   4.817   5.823 -0.1940  0.1455  0.2280
 1012YOPC   GL214494  18.573   4.530   5.839 -0.2030 -0.0138  0.0100
 1012YOPC   C1A14495  18.217   4.709   6.162 -0.0694 -0.2914 -0.1053
 1012YOPC   D2A14496  18.358   4.786   6.461  0.3474  0.0263  0.2080
 1012YOPC   C3A14497  18.279   4.669   6.813  0.2259  0.0835  0.1160
 1012YOPC   C4A14498  18.270   4.474   7.197 -0.1484  0.1277  0.1291
 1012YOPC   C1B14499  18.974   4.751   6.033 -0.0249 -0.0549  0.3019
 1012YOPC   C2B14500  19.318   4.842   6.348 -0.1455 -0.2522 -0.2145
 1012YOPC   D3B14501  19.301   5.164   6.604  0.3204 -0.1137 -0.0138
 1012YOPC   C4B14502  19.066   5.411   6.926 -0.3390 -0.2578  0.0941
 1013YOPC   NC314503   6.179  10.670   5.079 -0.0679 -0.2703  0.2321
 1013YOPC   PO414504   5.914  10.398   5.304  0.1896 -0.4099  0.0844
 1013YOPC   GL114505   5.937  10.310   5.636 -0.0508 -0.0238 -0.1380
 1013YOPC   GL214506   6.148  10.072   5.833 -0.0070 -0.0936 -0.2450
 1013YOPC   C1A14507   5.948  10.531   5.979  0.0816  0.1769 -0.1061
 1013YOPC   D2A14508   6.108  10.691   6.390 -0.2431 -0.0502 -0.0329
 1013YOPC   C3A14509   5.877  11.011   6.592  0.4346 -0.5745 -0.2324
 1013YOPC   C4A14510   5.891  11.433   6.587  0.3706  0.0359  0.1460
 1013YOPC   C1B14511   6.385  10.245   6.127 -0.2207 -0.2823 -0.0117
 1013YOPC   C2B14512   6.405  10.329   6.503  0.0246 -0.0649 -0.4708
 1013YOPC   D3B14513   6.396  10.672   6.790 -0.3903 -0.1154 -0.0118
 1013YOPC   C4B14514   6.015  10.757   7.052  0.0009 -0.0965 -0.0737
 1014YOPC   NC314515  16.193  17.041   5.503  0.0012  0.3026 -0.1091
 1014YOPC   PO414516  15.960  16.695   5.467  0.0006 -0.0073  0.0796
 1014YOPC   GL114517  16.021  16.649   5.957 -0.1617 -0.1853  0.0378
 1014YOPC   GL214518  16.042  16.460   6.127  0.0067 -0.0463  0.1228
 1014YOPC   C1A14519  16.044  16.863   6.357 -0.2301 -0.2501 -0.3640
 1014YOPC   D2A14520  16.372  17.185   6.548  0.1745 -0.1227 -0.1208
 1014YOPC   C3A14521  16.674  17.302   6.331  0.0290  0.0391 -0.0470
 1014YOPC   C4A14522  17.028  17.424   6.102 -0.0057 -0.1549 -0.2073
 1014YOPC   C1B14523  16.046  16.444   6.587  0.0923 -0.2080 -0.1557
 1014YOPC   C2B14524  16.101  16.513   7.114  0.3437 -0.2776 -0.0161
 1014YOPC   D3B14525  16.218  16.960   7.087 -0.0821  0.0164 -0.1250
 1014YOPC   C4B14526  16.451  17.172   7.444 -0.0828  0.2047  0.3011
 1015YOPC   NC314527  13.664   7.523   5.639 -0.0625 -0.2101  0.2127
 1015YOPC   PO414528  14.103   7.522   5.445 -0.1453  0.1628  0.2726
 1015YOPC   GL114529  14.053   7.462   5.897 -0.2626  0.1079  0.2249
 1015YOPC   GL214530  13.751   7.402   6.164  0.1315 -0.0399 -0.0163
 1015YOPC   C1A14531  14.209   7.136   6.192  0.0892  0.1681 -0.1288
 1015YOPC   D2A14532  14.572   7.038   6.412  0.2605  0.2545 -0.1434
 1015YOPC   C3A14533  14.800   6.796   6.704  0.1194  0.1827  0.2349
 1015YOPC   C4A14534  14.913   7.000   7.189  0.0725 -0.2490  0.2782
 1015YOPC   C1B14535  13.486   7.481   6.535  0.0435 -0.1229 -0.0861
 1015YOPC   C2B14536  13.615   7.496   6.868 -0.2435 -0.0161 -0.1775
 1015YOPC   D3B14537  13.546   7.300   7.299  0.0005  0.2847  0.2364
 1015YOPC   C4B14538  13.472   7.336   7.733 -0.2210  0.2074 -0.0785
 1016YOPC   NC314539  10.312  16.296   5.459 -0.2975 -0.0863  0.0536
 1016YOPC   PO414540  10.154  16.712   5.460 -0.0263 -0.1082  0.1878
 1016YOPC   GL114541  10.097  16.593   5.805  0.0083 -0.2759 -0.0763
 1016YOPC   GL214542   9.941  16.246   5.845  0.3201  0.5557  0.0468
 1016YOPC   C1A14543  10.109  16.584   6.244  0.0315 -0.0050  0.1486
 1016YOPC   D2A14544  10.104  16.673   6.651  0.2983  0.1074 -0.1411
 1016YOPC   C3A14545   9.800  16.669   6.926  0.0517 -0.0906  0.0905
 1016YOPC   C4A14546   9.726  16.405   7.301 -0.0370  0.1762 -0.0884
 1016YOPC   C1B14547  10.086  16.071   6.180 -0.1214 -0.0131 -0.2824
 1016YOPC   C2B14548  10.176  15.656   6.423  0.0994 -0.3922 -0.3826
 1016YOPC   D3B14549  10.421  15.252   6.422  0.3663 -0.0478  0.1347
 1016YOPC   C4B14550  10.419  14.819   6.767 -0.0518  0.2608  0.1653
 1017YOPC   NC314551  12.179  18.368   5.538 -0.1334 -0.1229 -0.2978
 1017YOPC   PO414552  12.138  18.860   5.646  0.0247  0.0449 -0.0146
 1017YOPC   GL114553  12.155  18.693   6.029 -0.2255 -0.3099 -0.2866
 1017YOPC   GL214554  12.395  19.015   6.066 -0.1678 -0.1741  0.0956
 1017YOPC   C1A14555  12.294  18.325   6.228 -0.1169  0.0846  0.0687
 1017YOPC   D2A14556  12.240  18.189   6.660  0.2279 -0.0114 -0.1418
 1017YOPC   C3A14557  12.285  18.320   7.086 -0.1760 -0.0186  0.2239
 1017YOPC   C4A14558  12.169  18.366   7.485 -0.0630 -0.1047  0.0101
 1017YOPC   C1B14559  12.283  19.016   6.436  0.3187  0.0168 -0.4115
 1017YOPC   C2B14560  12.367  19.048   6.882 -0.3316  0.0023 -0.0823
 1017YOPC   D3B14561  12.460  18.815   7.193  0.2138  0.0774 -0.3561
 1017YOPC   C4B14562  12.491  18.729   7.593  0.0216 -0.3491  0.3146
 1018YOPC   NC314563  14.403  11.717   5.125 -0.2232 -0.2059  0.1133
 1018YOPC   PO414564  14.325  11.934   5.426 -0.0086 -0.1435  0.0477
 1018YOPC   GL114565  14.344  11.692   5.826  0.0363 -0.3579 -0.2393
 1018YOPC   GL214566  14.472  11.979   5.972  0.1005  0.0827 -0.0183
 1018YOPC   C1A14567  14.738  11.569   5.811 -0.1977 -0.2488 -0.2223
 1018YOPC   D2A14568  14.982  11.439   6.212 -0.2064  0.3804  0.0294
 1018YOPC   C3A14569  15.416  11.604   6.112 -0.1827 -0.1445  0.0151
 1018YOPC   C4A14570  15.575  11.982   5.952  0.1021  0.0283  0.2643
 1018YOPC   C1B14571  14.697  11.808   6.416 -0.1776 -0.3299 -0.2986
 1018YOPC   C2B14572  14.735  11.976   6.831  0.2857 -0.1255  0.0636
 1018YOPC   D3B14573  15.115  12.184   7.017  0.3896  0.1316  0.1167
 1018YOPC   C4B14574  15.372  12.463   6.984 -0.0925 -0.0098 -0.1721
 1019YOPC   NC314575  13.519   7.008   5.424 -0.0256 -0.0010 -0.1459
 1019YOPC   PO414576  13.035   6.985   5.439  0.2260  0.0508  0.0588
 1019YOPC   GL114577  12.935   6.852   5.868  0.4180  0.1682  0.1314
 1019YOPC   GL214578  13.124   6.798   6.081  0.1175  0.2888 -0.5190
 1019YOPC   C1A14579  12.616   7.032   6.282 -0.4273  0.3405  0.1382
 1019YOPC   D2A14580  12.612   7.081   6.813  0.2210  0.0865 -0.0683
 1019YOPC   C3A14581  12.308   6.879   7.041  0.0266  0.0712 -0.2480
 1019YOPC   C4A14582  12.254   6.642   7.428  0.1169 -0.1725 -0.3146
 1019YOPC   C1B14583  13.073   6.881   6.522 -0.1720 -0.0065 -0.2647
 1019YOPC   C2B14584  13.305   7.078   6.840  0.1268  0.0179  0.0601
 1019YOPC   D3B14585  12.999   7.181   7.141  0.5442 -0.2356 -0.1291
 1019YOPC   C4B14586  13.089   7.469   7.441 -0.0099  0.0006 -0.2748
 1020YOPC   NC314587  10.560  12.048   5.422  0.1137  0.0068  0.3492
 1020YOPC   PO414588  10.473  11.658   5.397 -0.0240  0.0077 -0.0624
 1020YOPC   GL114589  10.310  11.558   5.722 -0.2002  0.1460 -0.2609
 1020YOPC   GL214590  10.529  11.757   5.956 -0.2400  0.0423 -0.0567
 1020YOPC   C1A14591  10.191  11.464   6.223  0.3418  0.0738 -0.0529
 1020YOPC   D2A14592  10.146  11.491   6.632 -0.1186 -0.0639 -0.1645
 1020YOPC   C3A14593  10.197  11.844   6.828 -0.3220 -0.2451 -0.2290
 1020YOPC   C4A14594   9.955  12.045   7.094  0.2507 -0.0850 -0.3588
 1020YOPC   C1B14595  10.469  11.813   6.428 -0.3770  0.1519  0.0839
 1020YOPC   C2B14596  10.642  12.150   6.722  0.3178 -0.0659  0.0635
 1020YOPC   D3B14597  10.751  11.881   7.004  0.1686  0.0594 -0.0007
 1020YOPC   C4B14598  10.446  11.806   7.353 -0.6381 -0.1318  0.2613
 1021YOPC   NC314599   2.422   9.097   5.251 -0.2550 -0.2099 -0.0116
 1021YOPC   PO414600   2.295   8.636   5.357  0.3549 -0.0979 -0.0314
 1021YOPC   GL114601   2.265   8.631   5.784  0.4894  0.3782 -0.2658
 1021YOPC   GL214602   1.952   8.356   5.927  0.1574 -0.1834  0.1136
 1021YOPC   C1A14603   2.267   8.597   6.170  0.1523  0.2145 -0.0287
 1021YOPC   D2A14604   2.276   8.669   6.638 -0.0237  0.0090 -0.1957
 1021YOPC   C3A14605   2.110   8.358   6.741 -0.0178 -0.0740  0.2497
 1021YOPC   C4A14606   2.327   7.946   6.920 -0.2159 -0.0880  0.0280
 1021YOPC   C1B14607   1.790   8.493   6.215  0.1405 -0.1148 -0.1831
 1021YOPC   C2B14608   1.625   8.287   6.493 -0.2284  0.1913 -0.0979
 1021YOPC   D3B14609   1.526   8.310   6.893 -0.2715  0.2362 -0.1954
 1021YOPC   C4B14610   1.385   8.400   7.222  0.1335  0.2178 -0.2016
 1022YOPC   NC314611   3.570  19.054   5.459 -0.1362  0.0846 -0.2378
 1022YOPC   PO414612   3.222  18.708   5.444 -0.0822  0.0999  0.2631
 1022YOPC   GL114613   3.005  18.656   5.818 -0.1610  0.0792 -0.1303
 1022YOPC   GL214614   2.883  18.796   6.109 -0.2344  0.1927 -0.1803
 1022YOPC   C1A14615   3.146  18.362   6.113  0.3221 -0.0991 -0.1414
 1022YOPC   D2A14616   3.157  18.268   6.576 -0.2150  0.0676  0.1257
 1022YOPC   C3A14617   3.588  18.163   6.709 -0.3216 -0.2197 -0.0364
 1022YOPC   C4A14618   3.891  18.339   6.889  0.0939  0.0328 -0.0588
 1022YOPC   C1B14619   2.990  18.810   6.554  0.2224  0.2209 -0.1015
 1022YOPC   C2B14620   3.211  18.735   6.874 -0.0876 -0.2014 -0.2873
 1022YOPC   D3B14621   2.996  18.541   7.226 -0.1322  0.2742 -0.1428
 1022YOPC   C4B14622   2.560  18.242   7.281 -0.0535  0.2182 -0.2678
 1023YOPC   NC314623  11.937   1.982   5.588 -0.1907 -0.2011  0.2179
 1023YOPC   PO414624  12.273   2.216   5.761 -0.1096  0.2185  0.3523
 1023YOPC   GL114625  12.390   2.241   6.204 -0.0167  0.1607  0.0681
 1023YOPC   GL214626  12.720   2.194   6.292 -0.1602  0.2672 -0.0679
 1023YOPC   C1A14627  12.267   2.159   6.610  0.0996 -0.2075  0.0300
 1023YOPC   D2A14628  12.205   2.315   7.008 -0.1762  0.1003  0.2043
 1023YOPC   C3A14629  12.497   2.307   7.347  0.1680  0.0048  0.1765
 1023YOPC   C4A14630  12.869   2.649   7.305 -0.2825 -0.1364  0.5932
 1023YOPC   C1B14631  12.771   2.144   6.761  0.0403 -0.1904 -0.0754
 1023YOPC   C2B14632  12.691   1.934   7.078 -0.1285  0.3632  0.0197
 1023YOPC   D3B14633  12.865   1.976   7.459 -0.1778 -0.2364  0.2488
 1023YOPC   C4B14634  13.030   1.957   7.926  0.1947  0.1298  0.2425
 1024YOPC   NC314635   5.026   4.629   5.279  0.0924  0.0560  0.1255
 1024YOPC   PO414636   5.015   4.094   5.212  0.1864  0.0620 -0.1186
 1024YOPC   GL114637   5.088   4.126   5.587 -0.2319 -0.0537  0.2259
 1024YOPC   GL214638   4.994   4.414   5.794  0.2776 -0.1344  0.0714
 1024YOPC   C1A14639   5.385   4.170   5.975  0.1741 -0.1411  0.5091
 1024YOPC   D2A14640   5.685   4.420   6.070 -0.0812  0.2941 -0.3155
 1024YOPC   C3A14641   5.917   4.393   6.374 -0.2832 -0.0988 -0.0552
 1024YOPC   C4A14642   6.304   4.196   6.527 -0.2716 -0.1758  0.2247
 1024YOPC   C1B14643   4.650   4.654   6.031  0.1285 -0.1403 -0.2051
 1024YOPC   C2B14644   4.774   4.903   6.382 -0.1272 -0.1632 -0.1120
 1024YOPC   D3B14645   4.674   5.342   6.554  0.1175  0.0246 -0.1330
 1024YOPC   C4B14646   4.851   5.779   6.714 -0.0116  0.2072 -0.2002
 1025YOPC   NC314647  12.135   7.462   5.072  0.2822 -0.2477  0.0175
 1025YOPC   PO414648  12.057   7.687   5.460  0.0838 -0.0971 -0.0091
 1025YOPC   GL114649  11.894   7.740   5.932 -0.2450 -0.1847  0.2869
 1025YOPC   GL214650  11.625   7.896   5.926 -0.1110  0.2787  0.1690
 1025YOPC   C1A14651  11.879   7.472   6.321 -0.1555 -0.2173 -0.1404
 1025YOPC   D2A14652  11.879   7.422   6.774 -0.0644  0.4470 -0.2458
 1025YOPC   C3A14653  12.257   7.422   6.991  0.0712  0.0670  0.0009
 1025YOPC   C4A14654  12.302   7.256   7.415 -0.0522 -0.1910  0.0137
 1025YOPC   C1B14655  11.845   8.050   6.302  0.0359  0.2157 -0.0927
 1025YOPC   C2B14656  12.053   7.856   6.703 -0.1157 -0.0938 -0.0185
 1025YOPC   D3B14657  11.797   7.745   7.131  0.3154 -0.0328  0.2241
 1025YOPC   C4B14658  11.596   7.656   7.530 -0.0354 -0.0621 -0.0798
 1026YOPC   NC314659   9.582  13.160   5.030  0.1513 -0.2786  0.0159
 1026YOPC   PO414660   9.640  12.783   4.848 -0.0511  0.1880 -0.0279
 1026YOPC   GL114661   9.727  12.773   5.314 -0.1807  0.0806  0.1269
 1026YOPC   GL214662   9.896  12.946   5.431  0.1881  0.0551  0.1123
 1026YOPC   C1A14663   9.527  12.718   5.787  0.0826 -0.0897  0.0489
 1026YOPC   D2A14664   9.175  12.654   5.993 -0.3128  0.0105  0.0236
 1026YOPC   C3A14665   9.009  12.440   6.347 -0.0239 -0.1995  0.0259
 1026YOPC   C4A14666   9.110  12.406   6.691  0.1819  0.2537 -0.1938
 1026YOPC   C1B14667   9.968  12.959   5.864 -0.1674  0.1956 -0.0617
 1026YOPC   C2B14668  10.259  12.849   6.307  0.0035  0.5258 -0.0118
 1026YOPC   D3B14669  10.043  12.845   6.716  0.0438 -0.3754 -0.5093
 1026YOPC   C4B14670   9.953  12.647   7.164  0.1570 -0.0004 -0.2025
 1027YOPC   NC314671  18.678  10.423   5.181 -0.0122  0.0468 -0.0558
 1027YOPC   PO414672  18.464  10.778   5.253  0.1811 -0.0977 -0.1784
 1027YOPC   GL114673  18.235  10.797   5.609 -0.0294  0.1543 -0.0118
 1027YOPC   GL214674  18.459  11.038   5.679 -0.1531 -0.2877 -0.1125
 1027YOPC   C1A14675  18.316  10.701   6.039  0.1895 -0.2069 -0.0949
 1027YOPC   D2A14676  18.024  10.750   6.474  0.0331  0.2892 -0.0926
 1027YOPC   C3A14677  18.371  10.523   6.649 -0.2112 -0.1099  0.1326
 1027YOPC   C4A14678  18.660  10.253   6.940  0.0410 -0.0476  0.1340
 1027YOPC   C1B14679  18.458  11.170   6.098  0.0991  0.0376  0.2828
 1027YOPC   C2B14680  18.432  11.019   6.524  0.1901  0.1213 -0.0403
 1027YOPC   D3B14681  18.753  10.985   6.822  0.1183 -0.0904  0.1672
 1027YOPC   C4B14682  19.073  11.071   6.935 -0.2830 -0.3779  0.3126
 1028YOPC   NC314683   0.356   1.928   5.100 -0.2536 -0.2608  0.2181
 1028YOPC   PO414684   0.635   1.709   5.293 -0.1638 -0.1451  0.0241
 1028YOPC   GL114685   0.789   1.794   5.655  0.0486  0.1961  0.0124
 1028YOPC   GL214686   0.694   1.728   5.969  0.0724 -0.1306 -0.0940
 1028YOPC   C1A14687   1.114   2.042   5.928  0.0568  0.1964 -0.5072
 1028YOPC   D2A14688   1.536   2.171   6.107  0.1339 -0.2726  0.0065
 1028YOPC   C3A14689   1.607   1.980   6.519 -0.0367 -0.0971 -0.0024
 1028YOPC   C4A14690   1.960   1.913   6.810 -0.2068  0.2321 -0.0301
 1028YOPC   C1B14691   0.457   1.874   6.294 -0.2392 -0.0032 -0.3376
 1028YOPC   C2B14692   0.487   1.897   6.802  0.0047  0.0694 -0.0781
 1028YOPC   D3B14693   0.440   1.559   7.111  0.0279  0.0166  0.1472
 1028YOPC   C4B14694   0.815   1.423   7.415  0.1647 -0.1343 -0.4509
 1029YOPC   NC314695   2.801   9.840   5.203  0.2284 -0.0646  0.0569
 1029YOPC   PO414696   2.912  10.035   5.621  0.0038 -0.0118 -0.3418
 1029YOPC   GL114697   2.870  10.163   6.004 -0.0231  0.1894 -0.2293
 1029YOPC   GL214698   2.995  10.445   6.097  0.1039  0.0834  0.0297
 1029YOPC   C1A14699   2.588  10.004   6.323  0.1692 -0.1339  0.2856
 1029YOPC   D2A14700   2.761   9.996   6.720  0.1962 -0.0104  0.2897
 1029YOPC   C3A14701   2.648  10.174   7.114  0.1552 -0.0635  0.1907
 1029YOPC   C4A14702   2.908  10.345   7.447  0.3360  0.4389 -0.2326
 1029YOPC   C1B14703   2.760  10.677   6.328 -0.0620 -0.1067 -0.2995
 1029YOPC   C2B14704   2.983  11.057   6.431 -0.1541  0.1654  0.0542
 1029YOPC   D3B14705   3.281  11.146   6.813 -0.1949  0.1375  0.1354
 1029YOPC   C4B14706   3.184  11.223   7.212 -0.1676  0.1374 -0.0705
 1030YOPC   NC314707  14.982   7.894   5.754  0.0301  0.0387 -0.5496
 1030YOPC   PO414708  14.784   7.561   5.644  0.1911 -0.2473  0.1347
 1030YOPC   GL114709  14.645   7.549   5.973 -0.0252 -0.1019  0.0301
 1030YOPC   GL214710  14.742   7.890   6.209 -0.0686  0.0958  0.2240
 1030YOPC   C1A14711  14.523   7.537   6.481 -0.3551  0.1790 -0.3847
 1030YOPC   D2A14712  14.526   7.419   6.880 -0.1380 -0.0320 -0.1427
 1030YOPC   C3A14713  14.953   7.421   6.917  0.0177 -0.3246 -0.2593
 1030YOPC   C4A14714  15.382   7.610   6.836  0.0162  0.0138  0.0135
 1030YOPC   C1B14715  14.983   7.776   6.498 -0.1765  0.0532 -0.0309
 1030YOPC   C2B14716  14.965   7.314   6.459  0.0946 -0.3970  0.1106
 1030YOPC   D3B14717  15.287   7.035   6.659 -0.1350 -0.0639 -0.2086
 1030YOPC   C4B14718  15.374   6.899   7.031  0.2740 -0.0468  0.1223
 1031YOPC   NC314719  16.730   6.511   5.908  0.2416 -0.0640 -0.1392
 1031YOPC   PO414720  17.043   6.705   5.736  0.0798 -0.0959  0.1383
 1031YOPC   GL114721  17.293   6.841   6.058  0.1098 -0.3147 -0.3411
 1031YOPC   GL214722  17.097   7.223   6.148 -0.1581  0.0848 -0.0276
 1031YOPC   C1A14723  17.480   6.764   6.379 -0.4661 -0.3161  0.0522
 1031YOPC   D2A14724  17.523   6.723   6.841 -0.0078 -0.0481 -0.2971
 1031YOPC   C3A14725  17.097   6.691   7.025 -0.0426 -0.0128  0.0655
 1031YOPC   C4A14726  16.824   6.373   6.988  0.0902 -0.0415 -0.1447
 1031YOPC   C1B14727  16.836   7.205   6.407 -0.1944  0.0316 -0.3233
 1031YOPC   C2B14728  16.818   7.422   6.872 -0.0537  0.2332 -0.0473
 1031YOPC   D3B14729  16.757   7.651   7.233  0.2020 -0.3986  0.0270
 1031YOPC   C4B14730  16.901   7.787   7.615 -0.0519  0.2549 -0.3440
 1032YOPC   NC314731  16.480   8.717   5.051  0.1380 -0.0812 -0.1286
 1032YOPC   PO414732  16.304   8.446   5.227 -0.0958  0.0964 -0.1615
 1032YOPC   GL114733  16.611   8.484   5.530  0.2496  0.1983 -0.1192
 1032YOPC   GL214734  16.719   8.157   5.830  0.1734 -0.1624  0.0266
 1032YOPC   C1A14735  16.867   8.624   5.681  0.0727  0.1779 -0.0184
 1032YOPC   D2A14736  16.971   9.139   5.781  0.1222  0.0686 -0.1305
 1032YOPC   C3A14737  16.829   9.358   6.018 -0.3013  0.0381 -0.0281
 1032YOPC   C4A14738  16.773   9.235   6.510  0.2980 -0.0023 -0.3066
 1032YOPC   C1B14739  17.063   8.210   6.170  0.1664 -0.1842 -0.2719
 1032YOPC   C2B14740  17.290   8.089   6.516  0.0584 -0.1831  0.0734
 1032YOPC   D3B14741  17.748   8.120   6.649 -0.0454  0.0508 -0.2802
 1032YOPC   C4B14742  17.873   8.233   7.030 -0.0994 -0.0977  0.1246
 1033YOPC   NC314743  16.020  10.268   5.254  0.0807  0.4447 -0.1818
 1033YOPC   PO414744  16.299   9.943   5.458 -0.1668  0.0104  0.0798
 1033YOPC   GL114745  16.484   9.887   5.776  0.2329  0.1616 -0.0185
 1033YOPC   GL214746  16.436   9.603   6.042  0.1881 -0.2890 -0.0751
 1033YOPC   C1A14747  16.706   9.974   6.227  0.0915 -0.1332 -0.2536
 1033YOPC   D2A14748  16.810   9.954   6.649  0.0145 -0.3121  0.1784
 1033YOPC   C3A14749  17.000  10.218   6.929  0.2545  0.0401 -0.3099
 1033YOPC   C4A14750  16.988  10.337   7.445 -0.1961 -0.0006  0.0380
 1033YOPC   C1B14751  16.461   9.591   6.524  0.2432 -0.0548  0.2266
 1033YOPC   C2B14752  16.561   9.760   7.042  0.1732 -0.2833 -0.2100
 1033YOPC   D3B14753  16.356   9.526   7.243  0.0594  0.0085 -0.0754
 1033YOPC   C4B14754  15.858   9.494   7.117 -0.1081  0.3389 -0.1485
 1034YOPC   NC314755  13.547  13.876   5.085 -0.0550 -0.0667 -0.0012
 1034YOPC   PO414756  13.475  13.646   5.393 -0.0032  0.2311 -0.3990
 1034YOPC   GL114757  13.677  13.577   5.788  0.0877  0.0718  0.0743
 1034YOPC   GL214758  13.482  13.377   5.960  0.0412 -0.0230  0.1018
 1034YOPC   C1A14759  13.983  13.492   6.145 -0.0194  0.1032  0.1175
 1034YOPC   D2A14760  14.288  13.643   6.464  0.2895 -0.1029  0.3409
 1034YOPC   C3A14761  14.141  13.798   6.869  0.2376 -0.2533  0.0867
 1034YOPC   C4A14762  13.918  13.576   7.227  0.2507 -0.0538  0.2673
 1034YOPC   C1B14763  13.302  13.552   6.467 -0.1091  0.0173 -0.0670
 1034YOPC   C2B14764  13.580  13.663   6.765  0.0758  0.2215  0.0839
 1034YOPC   D3B14765  13.462  13.681   7.226 -0.0285 -0.1982  0.0269
 1034YOPC   C4B14766  13.171  13.854   7.494  0.3152  0.0429 -0.5349
 1035YOPC   NC314767   6.385   1.603   4.817 -0.0395  0.0292 -0.0065
 1035YOPC   PO414768   6.219   1.153   4.960 -0.0000  0.0706  0.0822
 1035YOPC   GL114769   6.209   1.174   5.353  0.3470  0.0428  0.0215
 1035YOPC   GL214770   6.270   1.448   5.353  0.2437  0.1300 -0.1269
 1035YOPC   C1A14771   6.421   0.929   5.579 -0.2271  0.3959  0.0621
 1035YOPC   D2A14772   6.483   0.481   5.674 -0.1486 -0.2536  0.1399
 1035YOPC   C3A14773   6.426   0.249   6.009  0.3043 -0.2136 -0.2050
 1035YOPC   C4A14774   6.320   0.121   6.428  0.1627  0.1909 -0.0131
 1035YOPC   C1B14775   6.185   1.346   5.802  0.1352  0.2072  0.2087
 1035YOPC   C2B14776   6.133   0.889   6.081 -0.0038  0.3745  0.0180
 1035YOPC   D3B14777   6.313   0.643   6.347 -0.1301 -0.5640  0.2033
 1035YOPC   C4B14778   6.514   0.541   6.834 -0.0000 -0.1131 -0.2604
 1036YOPC   NC314779  17.728   5.603   5.458  0.0777 -0.0191 -0.0155
 1036YOPC   PO414780  17.526   5.884   5.869  0.0023  0.0345  0.0824
 1036YOPC   GL114781  17.672   5.806   6.289  0.0038  0.1415 -0.0429
 1036YOPC   GL214782  17.930   5.631   6.423  0.1997  0.0749  0.2469
 1036YOPC   C1A14783  17.808   6.120   6.624 -0.0252 -0.2188 -0.3540
 1036YOPC   D2A14784  17.981   6.463   6.901 -0.0642 -0.2029 -0.0075
 1036YOPC   C3A14785  18.172   6.470   7.308 -0.1093 -0.1104 -0.2866
 1036YOPC   C4A14786  18.407   6.627   7.555  0.0127 -0.0612  0.0345
 1036YOPC   C1B14787  17.786   5.610   6.893 -0.1776 -0.4272  0.1242
 1036YOPC   C2B14788  17.517   5.823   7.026  0.6407  0.1813 -0.2524
 1036YOPC   D3B14789  17.415   6.268   7.015 -0.1459  0.2766 -0.1592
 1036YOPC   C4B14790  17.257   6.342   7.439 -0.0901  0.0122 -0.0328
 1037YOPC   NC314791   4.328   4.759   4.805  0.0104  0.0572 -0.2517
 1037YOPC   PO414792   4.702   4.983   5.045  0.1784  0.1354 -0.2714
 1037YOPC   GL114793   4.685   5.149   5.497 -0.1124  0.0193  0.0951
 1037YOPC   GL214794   5.024   4.924   5.712 -0.0484  0.2908 -0.0068
 1037YOPC   C1A14795   4.827   5.374   5.908 -0.0927 -0.0912  0.1969
 1037YOPC   D2A14796   5.266   5.279   6.099 -0.0295 -0.1632 -0.0039
 1037YOPC   C3A14797   5.335   5.608   6.393 -0.0333  0.0206  0.0893
 1037YOPC   C4A14798   5.297   5.598   6.887  0.2141  0.2624 -0.0415
 1037YOPC   C1B14799   5.192   4.780   6.083 -0.1239  0.0393 -0.4384
 1037YOPC   C2B14800   5.152   4.666   6.472 -0.2333  0.0750 -0.0579
 1037YOPC   D3B14801   5.423   4.694   6.818  0.2970  0.1808 -0.1664
 1037YOPC   C4B14802   5.655   4.387   6.786 -0.0383  0.1999 -0.0511
 1038YOPC   NC314803   0.589   0.953   5.887 -0.0843 -0.1584 -0.0980
 1038YOPC   PO414804   1.013   1.231   5.692  0.1269  0.1064  0.1272
 1038YOPC   GL114805   1.150   1.443   6.007 -0.2660  0.0724  0.0514
 1038YOPC   GL214806   1.296   1.258   6.254 -0.2897 -0.2061 -0.2203
 1038YOPC   C1A14807   1.071   1.775   6.340  0.0841 -0.1889  0.0655
 1038YOPC   D2A14808   0.847   1.590   6.759  0.2128  0.0006 -0.3567
 1038YOPC   C3A14809   1.129   1.330   7.069 -0.2559  0.1987  0.1557
 1038YOPC   C4A14810   1.664   1.038   7.171  0.1843  0.1312 -0.2647
 1038YOPC   C1B14811   1.423   1.508   6.607  0.1373 -0.2564 -0.5255
 1038YOPC   C2B14812   1.411   1.686   7.070  0.0149 -0.4792 -0.1273
 1038YOPC   D3B14813   1.817   1.703   7.312 -0.1441  0.2027 -0.1047
 1038YOPC   C4B14814   1.995   1.939   7.661  0.2281 -0.0650 -0.1539
 1039YOPC   NC314815  14.135  12.328   5.743  0.1739 -0.0626 -0.0193
 1039YOPC   PO414816  13.901  11.954   5.824 -0.1599 -0.2256 -0.0187
 1039YOPC   GL114817  14.003  12.304   6.265  0.0008  0.0720 -0.0944
 1039YOPC   GL214818  13.712  12.461   6.178 -0.1979  0.2844 -0.3318
 1039YOPC   C1A14819  13.808  12.337   6.657 -0.0845 -0.0569  0.2304
 1039YOPC   D2A14820  13.828  12.599   6.957  0.0748  0.1843 -0.2211
 1039YOPC   C3A14821  14.039  12.645   7.333 -0.2052 -0.2362 -0.6480
 1039YOPC   C4A14822  14.102  12.726   7.753 -0.1837 -0.0894 -0.0168
 1039YOPC   C1B14823  13.383  12.228   6.424  0.4387  0.0565 -0.1139
 1039YOPC   C2B14824  13.331  11.906   6.693  0.0182 -0.1496 -0.0220
 1039YOPC   D3B14825  13.704  11.903   6.945  0.2134 -0.0261 -0.0525
 1039YOPC   C4B14826  13.961  12.112   7.292  0.0672  0.2121 -0.3958
 1040YOPC   NC314827   1.688   6.017   5.158 -0.0234 -0.0132 -0.2077
 1040YOPC   PO414828   1.801   5.457   5.159  0.0989 -0.1145  0.0395
 1040YOPC   GL114829   1.683   5.693   5.585 -0.0558  0.3037  0.1516
 1040YOPC   GL214830   1.278   5.718   5.559  0.0002  0.0863  0.0771
 1040YOPC   C1A14831   1.759   5.696   5.957  0.2858  0.0933  0.3226
 1040YOPC   D2A14832   2.032   5.794   6.337 -0.2575 -0.0440  0.6458
 1040YOPC   C3A14833   2.060   6.230   6.489  0.1115  0.1498  0.1905
 1040YOPC   C4A14834   2.225   6.461   6.876  0.4121 -0.0721  0.5939
 1040YOPC   C1B14835   1.284   5.636   5.969  0.0489  0.1237  0.2641
 1040YOPC   C2B14836   0.997   5.738   6.241 -0.0777 -0.2079  0.3690
 1040YOPC   D3B14837   1.196   5.684   6.647  0.1150 -0.1425 -0.0447
 1040YOPC   C4B14838   1.337   6.091   6.955 -0.0391 -0.1004  0.0927
 1041YOPC   NC314839   8.970   8.539   5.082 -0.4642 -0.1204  0.2030
 1041YOPC   PO414840   8.616   8.173   5.148 -0.0363 -0.0809 -0.1182
 1041YOPC   GL114841   8.634   8.123   5.551  0.0966 -0.1191 -0.1207
 1041YOPC   GL214842   8.416   8.161   5.704  0.0555 -0.0241 -0.0459
 1041YOPC   C1A14843   8.747   7.838   5.934 -0.2182  0.0969 -0.1523
 1041YOPC   D2A14844   8.716   7.680   6.350 -0.0544  0.2987  0.1338
 1041YOPC   C3A14845   8.640   7.399   6.555  0.0921  0.0792  0.2395
 1041YOPC   C4A14846   8.608   7.296   7.052 -0.1745  0.0792 -0.1345
 1041YOPC   C1B14847   8.374   8.078   6.139 -0.0178 -0.0768 -0.2470
 1041YOPC   C2B14848   8.357   8.017   6.527  0.0104 -0.3854  0.0499
 1041YOPC   D3B14849   8.118   8.297   6.528  0.3868  0.3401  0.3012
 1041YOPC   C4B14850   7.746   8.443   6.700  0.0847  0.0419  0.0326
 1042YOPC   NC314851  10.925   0.991   5.387 -0.0106 -0.1024 -0.0610
 1042YOPC   PO414852  11.070   0.677   5.236 -0.2330 -0.1938  0.0649
 1042YOPC   GL114853  11.191   0.636   5.725 -0.0039 -0.0322  0.0010
 1042YOPC   GL214854  10.837   0.594   5.683 -0.0702  0.0590 -0.0402
 1042YOPC   C1A14855  11.169   0.583   6.143  0.2214  0.1696  0.0438
 1042YOPC   D2A14856  11.202   0.759   6.601  0.0463 -0.0166  0.3099
 1042YOPC   C3A14857  11.211   0.367   6.734 -0.2511  0.0642  0.1442
 1042YOPC   C4A14858  11.336   0.193   7.169 -0.1455  0.1273 -0.2004
 1042YOPC   C1B14859  10.669   0.603   6.063 -0.0783 -0.1341 -0.2593
 1042YOPC   C2B14860  10.706   0.635   6.484 -0.1556  0.5041 -0.0729
 1042YOPC   D3B14861  10.458   0.370   6.765  0.1961 -0.2165 -0.0661
 1042YOPC   C4B14862  10.228  -0.062   6.852 -0.0089  0.1332 -0.0203
 1043YOPC   NC314863   9.474  18.900   5.157  0.0301 -0.0924  0.2132
 1043YOPC   PO414864   9.281  19.234   5.051  0.0687  0.3193 -0.1882
 1043YOPC   GL114865   9.202  19.393   5.428  0.1461 -0.1449 -0.0866
 1043YOPC   GL214866   8.842  19.435   5.416 -0.0548  0.4034 -0.1582
 1043YOPC   C1A14867   9.334  19.328   5.831 -0.0354  0.1463  0.0673
 1043YOPC   D2A14868   9.366  19.041   6.222 -0.0254 -0.0813  0.0081
 1043YOPC   C3A14869   9.156  18.864   6.541  0.4201 -0.0234  0.1591
 1043YOPC   C4A14870   8.819  18.914   6.905  0.0564 -0.0310 -0.1856
 1043YOPC   C1B14871   8.626  19.013   5.604 -0.0263  0.2203 -0.0354
 1043YOPC   C2B14872   8.181  18.919   5.741 -0.3195 -0.1976 -0.1000
 1043YOPC   D3B14873   8.262  19.198   5.987  0.1056 -0.0129  0.1618
 1043YOPC   C4B14874   8.022  19.250   6.331  0.1724  0.3350  0.0709
 1044YOPC   NC314875   8.082   4.718   5.224 -0.1708  0.0834  0.0215
 1044YOPC   PO414876   8.196   5.048   5.459 -0.2376 -0.1697  0.0117
 1044YOPC   GL114877   8.350   5.207   5.835 -0.0197 -0.1127  0.2121
 1044YOPC   GL214878   8.635   5.317   5.926  0.0139 -0.0612 -0.0329
 1044YOPC   C1A14879   8.218   5.134   6.221  0.1210  0.2938 -0.0696
 1044YOPC   D2A14880   8.267   5.272   6.670  0.2342 -0.1607  0.2006
 1044YOPC   C3A14881   8.230   5.632   7.021  0.3845  0.2326  0.0017
 1044YOPC   C4A14882   7.928   5.783   7.476 -0.1792  0.1222 -0.1842
 1044YOPC   C1B14883   8.677   5.862   5.982 -0.0988 -0.1966 -0.1247
 1044YOPC   C2B14884   8.674   6.099   6.303  0.4162 -0.2461  0.0795
 1044YOPC   D3B14885   8.979   6.089   6.608 -0.0352  0.2943  0.2056
 1044YOPC   C4B14886   9.100   5.955   6.988 -0.1720 -0.2730 -0.1567
 1045YOPC   NC314887  15.001   3.070   5.457  0.0159 -0.1264  0.1489
 1045YOPC   PO414888  15.044   3.156   5.825 -0.4564 -0.1710  0.3852
 1045YOPC   GL114889  15.031   3.198   6.261  0.3252  0.2071  0.1010
 1045YOPC   GL214890  14.934   3.493   6.331 -0.0532 -0.1392 -0.1632
 1045YOPC   C1A14891  15.113   3.146   6.651 -0.0484 -0.2952 -0.0662
 1045YOPC   D2A14892  15.243   3.058   7.065 -0.1417 -0.0562 -0.2738
 1045YOPC   C3A14893  15.143   3.442   7.242 -0.2015 -0.1209  0.2389
 1045YOPC   C4A14894  15.436   3.582   7.538 -0.0519 -0.0301  0.0810
 1045YOPC   C1B14895  14.661   3.474   6.615 -0.1699  0.0728  0.4094
 1045YOPC   C2B14896  14.512   3.506   7.060 -0.1424  0.0909 -0.0882
 1045YOPC   D3B14897  14.409   3.461   7.472  0.1035  0.3202  0.0261
 1045YOPC   C4B14898  14.473   3.720   7.896 -0.0378 -0.0719  0.0363
 1046YOPC   NC314899   3.256   5.489   5.282 -0.2361  0.0696  0.3149
 1046YOPC   PO414900   3.366   5.926   5.515 -0.1587 -0.0988  0.1843
 1046YOPC   GL114901   3.639   6.286   5.765 -0.0956  0.0152 -0.4778
 1046YOPC   GL214902   4.031   6.169   5.653 -0.2192  0.2606  0.3260
 1046YOPC   C1A14903   3.737   6.550   6.099 -0.0698  0.1095 -0.1628
 1046YOPC   D2A14904   3.764   6.805   6.385  0.1707 -0.1801 -0.0721
 1046YOPC   C3A14905   3.530   7.077   6.584  0.1576  0.1578  0.1053
 1046YOPC   C4A14906   3.232   7.310   6.796  0.1534  0.1159  0.1412
 1046YOPC   C1B14907   4.004   6.123   6.123 -0.5873  0.1578  0.1246
 1046YOPC   C2B14908   3.965   5.750   6.411 -0.1728 -0.1550  0.0833
 1046YOPC   D3B14909   4.208   5.433   6.529  0.1639 -0.1191 -0.2118
 1046YOPC   C4B14910   4.366   5.364   6.958  0.3098 -0.2844 -0.3228
 1047YOPC   NC314911  17.570  14.254   4.867 -0.0507  0.2629 -0.1645
 1047YOPC   PO414912  17.267  13.914   5.056  0.1796 -0.0123  0.2163
 1047YOPC   GL114913  17.371  13.733   5.545 -0.4063 -0.0792  0.1032
 1047YOPC   GL214914  17.126  13.564   5.630 -0.2097 -0.0865  0.0776
 1047YOPC   C1A14915  17.466  13.662   5.985  0.3319  0.0232 -0.0467
 1047YOPC   D2A14916  17.733  13.306   6.152 -0.2259  0.0055  0.1367
 1047YOPC   C3A14917  18.120  13.446   5.933  0.3467 -0.0225 -0.0436
 1047YOPC   C4A14918  18.488  13.542   6.291  0.1210 -0.0885  0.0717
 1047YOPC   C1B14919  16.970  13.605   6.013 -0.2040 -0.1496 -0.0420
 1047YOPC   C2B14920  16.600  13.784   6.301 -0.5934  0.1154  0.0632
 1047YOPC   D3B14921  16.234  13.758   6.503 -0.1300  0.1085  0.0980
 1047YOPC   C4B14922  15.855  13.893   6.337  0.2031 -0.1122 -0.2905
 1048YOPC   NC314923  16.995  16.544   5.508 -0.3781  0.1845  0.0984
 1048YOPC   PO414924  17.300  16.792   5.813  0.0280 -0.4687 -0.3951
 1048YOPC   GL114925  17.468  17.071   6.232 -0.2209 -0.0229  0.0419
 1048YOPC   GL214926  17.832  17.130   6.306 -0.1150  0.0303 -0.1865
 1048YOPC   C1A14927  17.450  17.416   6.578 -0.1951  0.0561 -0.0389
 1048YOPC   D2A14928  17.633  17.512   7.024 -0.2194 -0.1258 -0.3302
 1048YOPC   C3A14929  17.851  17.806   7.047 -0.1995 -0.2692 -0.0369
 1048YOPC   C4A14930  18.293  17.978   7.145  0.1348 -0.1955  0.2032
 1048YOPC   C1B14931  17.793  17.093   6.717 -0.0136  0.1637  0.0241
 1048YOPC   C2B14932  17.518  17.033   7.092  0.1858  0.1123  0.0145
 1048YOPC   D3B14933  17.546  16.756   7.304 -0.1166  0.1474  0.0647
 1048YOPC   C4B14934  17.322  16.589   7.613 -0.2315 -0.1916 -0.0093
 1049YOPC   NC314935   5.447  13.216   5.520  0.1883  0.1430  0.2330
 1049YOPC   PO414936   5.026  13.104   5.661 -0.0055 -0.0384 -0.1230
 1049YOPC   GL114937   4.964  13.172   6.165  0.0540  0.3267  0.1551
 1049YOPC   GL214938   4.674  13.383   6.281 -0.1008  0.0887  0.0896
 1049YOPC   C1A14939   5.091  13.096   6.522  0.2062  0.2419  0.1389
 1049YOPC   D2A14940   4.716  13.091   6.929  0.1173 -0.1434 -0.0698
 1049YOPC   C3A14941   4.609  12.618   7.068  0.1610 -0.0498  0.1313
 1049YOPC   C4A14942   4.517  12.196   7.128  0.0047  0.0630  0.0964
 1049YOPC   C1B14943   4.783  13.577   6.695  0.2053  0.0362 -0.0590
 1049YOPC   C2B14944   4.681  13.615   7.084 -0.0794 -0.1446 -0.4915
 1049YOPC   D3B14945   4.591  13.923   7.297 -0.0268 -0.2861 -0.1235
 1049YOPC   C4B14946   4.415  14.379   7.541 -0.2432 -0.2944  0.1280
 1050YOPC   NC314947   4.237  12.481   5.465  0.0775 -0.0149  0.0687
 1050YOPC   PO414948   4.559  12.255   5.586  0.0473  0.2247  0.0992
 1050YOPC   GL114949   4.516  12.476   5.982 -0.1942  0.0176 -0.1651
 1050YOPC   GL214950   4.365  12.312   6.234  0.0064  0.0999  0.2344
 1050YOPC   C1A14951   4.735  12.686   6.406 -0.0043  0.3852  0.1349
 1050YOPC   D2A14952   4.949  12.628   6.734 -0.0958 -0.2693 -0.0137
 1050YOPC   C3A14953   5.163  12.413   7.045 -0.3406 -0.1357 -0.0219
 1050YOPC   C4A14954   5.254  12.022   7.173  0.1668  0.2707  0.3402
 1050YOPC   C1B14955   4.334  12.375   6.657  0.2084 -0.2559 -0.0207
 1050YOPC   C2B14956   4.100  12.489   7.086  0.1332 -0.0141 -0.1714
 1050YOPC   D3B14957   4.284  12.697   7.495  0.4277  0.1213 -0.0820
 1050YOPC   C4B14958   4.541  13.013   7.787 -0.0957  0.0934 -0.0030
 1051YOPC   NC314959  10.224  18.412   5.284 -0.1690 -0.0836 -0.0730
 1051YOPC   PO414960  10.364  18.088   5.355 -0.1185 -0.0241  0.0528
 1051YOPC   GL114961  10.215  17.851   5.724  0.2223 -0.0787 -0.0801
 1051YOPC   GL214962  10.253  17.538   5.787 -0.2917 -0.4697  0.2436
 1051YOPC   C1A14963   9.880  17.944   5.874 -0.3432  0.0963  0.0662
 1051YOPC   D2A14964   9.817  17.845   6.211 -0.2068  0.0581  0.2401
 1051YOPC   C3A14965   9.999  17.781   6.478 -0.2690  0.2039  0.3778
 1051YOPC   C4A14966  10.366  17.471   6.520 -0.0441 -0.0016  0.3229
 1051YOPC   C1B14967  10.375  17.761   6.145 -0.2109  0.2913 -0.1507
 1051YOPC   C2B14968  10.298  18.105   6.164 -0.0026  0.0274  0.1258
 1051YOPC   D3B14969   9.911  18.314   6.352 -0.1024 -0.0805 -0.0037
 1051YOPC   C4B14970   9.507  18.502   6.535  0.4253  0.0397  0.0488
 1052YOPC   NC314971   7.657   7.560   5.226 -0.4414  0.2131 -0.0055
 1052YOPC   PO414972   8.036   7.470   5.128 -0.4308  0.1781 -0.0161
 1052YOPC   GL114973   8.298   7.681   5.403 -0.0020 -0.2208 -0.2565
 1052YOPC   GL214974   8.376   7.542   5.618  0.2403  0.0915 -0.0370
 1052YOPC   C1A14975   8.842   7.590   5.438  0.3292 -0.5980 -0.0835
 1052YOPC   D2A14976   9.173   7.333   5.642  0.0023 -0.5130 -0.0682
 1052YOPC   C3A14977   9.445   7.580   5.899  0.3655  0.1027 -0.1600
 1052YOPC   C4A14978   9.769   7.776   6.118 -0.0933  0.0420 -0.1563
 1052YOPC   C1B14979   8.694   7.333   5.790  0.0008 -0.1236  0.1865
 1052YOPC   C2B14980   9.038   7.441   6.136 -0.2231  0.1363  0.0233
 1052YOPC   D3B14981   9.306   7.661   6.327  0.0984  0.0977 -0.5895
 1052YOPC   C4B14982   9.680   7.771   6.607  0.1111  0.1562  0.4485
 1053YOPC   NC314983   8.332  14.806   5.223  0.0001 -0.1230  0.0226
 1053YOPC   PO414984   8.693  14.645   5.385  0.0876  0.3411  0.0794
 1053YOPC   GL114985   8.596  14.662   5.819 -0.1465  0.2655  0.1541
 1053YOPC   GL214986   8.304  14.896   5.753 -0.0639 -0.1761 -0.0968
 1053YOPC   C1A14987   8.452  14.759   6.342 -0.0974  0.0233 -0.0102
 1053YOPC   D2A14988   8.580  15.039   6.543  0.2784 -0.0627 -0.0131
 1053YOPC   C3A14989   8.482  15.219   6.795  0.0419  0.1811 -0.0763
 1053YOPC   C4A14990   8.749  15.346   7.147 -0.0717 -0.1015  0.2281
 1053YOPC   C1B14991   8.372  15.182   6.107  0.0365 -0.2890  0.3280
 1053YOPC   C2B14992   8.374  15.505   6.381  0.0874  0.2180 -0.3089
 1053YOPC   D3B14993   8.095  15.566   6.738  0.1241 -0.0522  0.2608
 1053YOPC   C4B14994   7.664  15.766   6.655  0.3626 -0.2954  0.0597
 1054YOPC   NC314995   5.176  10.977   5.140  0.0484  0.4324  0.1959
 1054YOPC   PO414996   5.110  11.214   5.588  0.0565 -0.0629 -0.2011
 1054YOPC   GL114997   5.346  11.500   5.804  0.2101 -0.0710 -0.1415
 1054YOPC   GL214998   5.613  11.600   5.738  0.2011 -0.0785  0.0678
 1054YOPC   C1A14999   5.608  11.476   6.189  0.0265 -0.3598  0.1642
 1054YOPC   D2A15000   6.031  11.672   6.192 -0.1095 -0.0702  0.1018
 1054YOPC   C3A15001   5.839  11.919   6.482  0.1176  0.2205  0.2565
 1054YOPC   C4A15002   6.036  12.252   6.466  0.3819 -0.1753 -0.3572
 1054YOPC   C1B15003   5.843  11.192   5.874  0.2236  0.1559 -0.3176
 1054YOPC   C2B15004   5.561  10.860   6.177  0.0351  0.0226 -0.0731
 1054YOPC   D3B15005   5.399  10.925   6.465  0.0700 -0.1660 -0.1407
 1054YOPC   C4B15006   5.354  11.189   6.844 -0.3051  0.1278  0.3013
 1055YOPC   NC315007  15.644   0.323   5.619  0.3783  0.0556  0.2193
 1055YOPC   PO415008  15.996   0.220   5.788  0.0158 -0.0746  0.3657
 1055YOPC   GL115009  15.814   0.178   6.173 -0.0165 -0.1892 -0.0896
 1055YOPC   GL215010  15.543   0.414   6.140  0.4657  0.0495 -0.0727
 1055YOPC   C1A15011  15.635   0.073   6.497  0.0857 -0.0611  0.3946
 1055YOPC   D2A15012  15.398   0.138   6.900  0.1120 -0.3120 -0.1994
 1055YOPC   C3A15013  15.211   0.533   7.187 -0.2562  0.3488 -0.1769
 1055YOPC   C4A15014  14.828   0.650   7.472  0.1435  0.1897 -0.0325
 1055YOPC   C1B15015  15.315   0.538   6.562  0.3989 -0.1183  0.0378
 1055YOPC   C2B15016  14.838   0.491   6.768 -0.3096  0.1453  0.0544
 1055YOPC   D3B15017  14.841   0.229   7.151  0.0794 -0.0653  0.0519
 1055YOPC   C4B15018  14.721   0.068   7.613 -0.0768 -0.3880 -0.3246
 1056YOPC   NC315019  10.602   4.196   5.996 -0.0516 -0.1682  0.5260
 1056YOPC   PO415020  10.861   4.369   5.876 -0.0424  0.3520 -0.0033
 1056YOPC   GL115021  10.866   4.570   6.314  0.1590 -0.0699  0.1390
 1056YOPC   GL215022  10.603   4.694   6.297  0.0100 -0.0807  0.2309
 1056YOPC   C1A15023  11.069   4.782   6.494  0.3120  0.1535 -0.3514
 1056YOPC   D2A15024  11.072   5.033   6.876 -0.0474  0.2596  0.1103
 1056YOPC   C3A15025  11.426   5.130   7.108 -0.1694  0.0451 -0.0115
 1056YOPC   C4A15026  11.742   5.171   7.390  0.1928  0.2574  0.2231
 1056YOPC   C1B15027  10.608   4.823   6.765  0.2849  0.1546 -0.0337
 1056YOPC   C2B15028  10.624   4.881   7.211 -0.0842 -0.3101 -0.2659
 1056YOPC   D3B15029  11.014   4.839   7.362 -0.0032  0.0929 -0.0132
 1056YOPC   C4B15030  11.441   4.656   7.378  0.1282  0.2704  0.0855
 1057YOPC   NC315031   4.094  16.659   4.938 -0.0904 -0.1420 -0.1150
 1057YOPC   PO415032   3.743  16.931   5.255  0.0603  0.0455  0.0268
 1057YOPC   GL115033   4.000  16.667   5.408 -0.0839  0.0007 -0.1200
 1057YOPC   GL215034   4.125  16.796   5.620 -0.2057  0.2817 -0.1310
 1057YOPC   C1A15035   3.775  16.404   5.766  0.1969  0.0308  0.2112
 1057YOPC   D2A15036   3.613  16.601   6.126  0.1966 -0.0384 -0.2846
 1057YOPC   C3A15037   3.458  17.088   6.258  0.0866 -0.1155  0.1336
 1057YOPC   C4A15038   3.147  17.323   6.393  0.0830  0.0976  0.1487
 1057YOPC   C1B15039   4.276  16.712   6.009 -0.1679 -0.0227  0.0596
 1057YOPC   C2B15040   4.567  16.812   6.199  0.0185 -0.1873  0.0117
 1057YOPC   D3B15041   4.381  16.850   6.500  0.2089  0.0799  0.2860
 1057YOPC   C4B15042   4.225  16.596   6.844 -0.0455 -0.1930  0.0754
 1058YOPC   NC315043  12.647  16.833   5.376  0.2347 -0.1687 -0.0268
 1058YOPC   PO415044  12.368  16.601   5.722 -0.4053  0.0135  0.2070
 1058YOPC   GL115045  12.479  17.051   5.876 -0.3122  0.3729 -0.3345
 1058YOPC   GL215046  12.465  17.292   5.668  0.1047 -0.0998 -0.0119
 1058YOPC   C1A15047  12.503  17.314   6.213 -0.0652 -0.2334  0.1120
 1058YOPC   D2A15048  12.398  17.722   6.357  0.3787  0.3080  0.1320
 1058YOPC   C3A15049  12.422  17.767   6.883 -0.2117  0.4812 -0.1478
 1058YOPC   C4A15050  12.464  17.902   7.330 -0.1126  0.1695  0.0522
 1058YOPC   C1B15051  12.209  17.450   5.866 -0.0357 -0.1976  0.1316
 1058YOPC   C2B15052  11.789  17.542   6.006 -0.1276 -0.0335 -0.1738
 1058YOPC   D3B15053  11.484  17.243   6.148 -0.1089  0.1518 -0.4006
 1058YOPC   C4B15054  11.562  16.810   6.429 -0.3359 -0.0207  0.0777
 1059YOPC   NC315055   7.522   9.019   5.072 -0.1259 -0.1321  0.1065
 1059YOPC   PO415056   7.197   9.329   4.965 -0.1916 -0.0800 -0.0500
 1059YOPC   GL115057   6.902   9.216   5.307  0.2723  0.0759 -0.0307
 1059YOPC   GL215058   7.015   9.472   5.580  0.2093 -0.0283 -0.0758
 1059YOPC   C1A15059   6.746   8.927   5.597  0.4406  0.2353  0.2230
 1059YOPC   D2A15060   6.709   8.672   6.039 -0.3218 -0.1653 -0.0938
 1059YOPC   C3A15061   6.847   8.283   6.119  0.2444 -0.0131  0.2142
 1059YOPC   C4A15062   6.790   7.808   6.237  0.2526  0.2731 -0.0927
 1059YOPC   C1B15063   6.946   9.400   5.998  0.4550 -0.0013 -0.0533
 1059YOPC   C2B15064   6.995   9.009   6.170 -0.0181 -0.0815 -0.0955
 1059YOPC   D3B15065   6.965   8.940   6.613  0.4621  0.3438  0.1731
 1059YOPC   C4B15066   6.859   8.985   7.088 -0.0797 -0.0133 -0.0511
 1060YOPC   NC315067   2.355  18.598   5.367  0.0344  0.1144  0.0232
 1060YOPC   PO415068   2.160  18.934   5.510 -0.0298  0.1814 -0.2691
 1060YOPC   GL115069   2.370  18.777   5.927  0.0329 -0.2492 -0.4879
 1060YOPC   GL215070   2.542  18.526   5.839  0.0145 -0.0544 -0.2005
 1060YOPC   C1A15071   2.453  18.845   6.327 -0.1387 -0.0608  0.1237
 1060YOPC   D2A15072   2.297  19.329   6.427 -0.0961 -0.2075 -0.0601
 1060YOPC   C3A15073   2.042  19.541   6.653  0.3295  0.1015  0.1621
 1060YOPC   C4A15074   1.782  19.728   7.009 -0.0491  0.1512 -0.0427
 1060YOPC   C1B15075   2.706  18.411   6.326  0.1023 -0.0070 -0.0821
 1060YOPC   C2B15076   2.722  18.428   6.784  0.2596 -0.0404 -0.0237
 1060YOPC   D3B15077   2.616  18.943   6.999  0.2568 -0.0271 -0.0384
 1060YOPC   C4B15078   2.651  19.249   7.440  0.1800 -0.1894  0.0602
 1061YOPC   NC315079  12.066  14.350   4.254  0.0504  0.0956  0.0575
 1061YOPC   PO415080  12.047  14.228   4.755 -0.1997 -0.3379  0.2119
 1061YOPC   GL115081  11.849  14.141   5.187 -0.2715  0.4110  0.0635
 1061YOPC   GL215082  11.504  14.244   5.168 -0.0317 -0.0628 -0.0515
 1061YOPC   C1A15083  11.753  13.931   5.660 -0.1569  0.2365  0.2306
 1061YOPC   D2A15084  11.829  14.082   6.008 -0.0894 -0.1759  0.1556
 1061YOPC   C3A15085  11.876  13.983   6.338  0.1893  0.0379 -0.2259
 1061YOPC   C4A15086  11.828  13.859   6.674  0.0036  0.2883  0.0947
 1061YOPC   C1B15087  11.562  14.428   5.527 -0.0905 -0.0207  0.0419
 1061YOPC   C2B15088  11.693  14.589   5.889 -0.1252 -0.1046  0.0129
 1061YOPC   D3B15089  11.719  14.485   6.295  0.0397 -0.0862 -0.0500
 1061YOPC   C4B15090  11.778  14.433   6.658  0.0354  0.2334 -0.0034
 1062YOPC   NC315091   2.532  16.948   5.321  0.0289 -0.5208 -0.0258
 1062YOPC   PO415092   2.719  16.485   5.472 -0.1268 -0.0504 -0.0833
 1062YOPC   GL115093   2.745  16.607   5.841 -0.0570 -0.1549 -0.1758
 1062YOPC   GL215094   2.674  16.375   6.045 -0.1917  0.1024  0.3141
 1062YOPC   C1A15095   3.074  16.777   6.140 -0.0223 -0.0163 -0.0032
 1062YOPC   D2A15096   3.336  16.685   6.525  0.2152 -0.1210  0.3176
 1062YOPC   C3A15097   3.283  16.869   6.917  0.2852 -0.1817  0.1531
 1062YOPC   C4A15098   3.604  16.800   6.998 -0.0413 -0.0244 -0.0396
 1062YOPC   C1B15099   2.916  16.428   6.479  0.1555 -0.0917  0.0224
 1062YOPC   C2B15100   3.010  16.375   6.853  0.2183  0.4198 -0.3561
 1062YOPC   D3B15101   3.283  16.412   7.133 -0.2799 -0.1004 -0.0267
 1062YOPC   C4B15102   3.406  16.618   7.435 -0.0354  0.1580 -0.0303
 1063YOPC   NC315103   3.547   3.121   5.476 -0.2251  0.1562 -0.1162
 1063YOPC   PO415104   3.201   3.337   5.511  0.1767 -0.3467 -0.0144
 1063YOPC   GL115105   3.180   3.601   5.855  0.1001 -0.1723  0.3459
 1063YOPC   GL215106   3.289   3.933   5.806 -0.0806  0.0205 -0.1144
 1063YOPC   C1A15107   3.285   3.550   6.280  0.0910  0.1428 -0.0358
 1063YOPC   D2A15108   3.227   3.526   6.723 -0.1371 -0.0913  0.1805
 1063YOPC   C3A15109   3.182   3.348   7.155  0.0008 -0.0907 -0.0552
 1063YOPC   C4A15110   3.154   3.368   7.664  0.1283  0.0018  0.1530
 1063YOPC   C1B15111   3.080   4.033   6.211 -0.2794  0.0491 -0.2288
 1063YOPC   C2B15112   3.125   4.402   6.493 -0.0955  0.4097  0.2099
 1063YOPC   D3B15113   2.686   4.573   6.414 -0.0088  0.0508  0.1450
 1063YOPC   C4B15114   2.479   4.856   6.540 -0.0243 -0.1706 -0.0137
 1064YOPC   NC315115   5.738   1.396   5.242  0.0644  0.0145 -0.0814
 1064YOPC   PO415116   5.903   1.705   4.961 -0.0136  0.1988  0.0311
 1064YOPC   GL115117   5.947   1.790   5.491  0.3319 -0.1629  0.1767
 1064YOPC   GL215118   5.617   1.880   5.390 -0.2236  0.1138 -0.1450
 1064YOPC   C1A15119   6.019   1.792   5.908 -0.1052 -0.1889  0.1142
 1064YOPC   D2A15120   6.263   1.735   6.298 -0.0092 -0.1133 -0.2384
 1064YOPC   C3A15121   6.577   1.962   6.429 -0.2386 -0.2769  0.0153
 1064YOPC   C4A15122   6.874   1.548   6.715 -0.2358  0.1876  0.2846
 1064YOPC   C1B15123   5.534   1.863   5.892  0.1737 -0.0298 -0.1032
 1064YOPC   C2B15124   5.770   1.898   6.310 -0.1780  0.0521  0.3626
 1064YOPC   D3B15125   5.613   2.061   6.656  0.2882  0.2586  0.1048
 1064YOPC   C4B15126   5.245   2.321   6.808  0.1216  0.0553  0.2022
 1065YOPC   NC315127  14.507   2.113   5.184  0.0715  0.0945  0.1659
 1065YOPC   PO415128  14.721   1.969   5.549 -0.0627  0.0380 -0.1915
 1065YOPC   GL115129  14.762   1.920   5.978 -0.0172 -0.0499  0.1766
 1065YOPC   GL215130  14.498   1.720   6.137  0.0856  0.3080  0.0332
 1065YOPC   C1A15131  14.973   1.930   6.404  0.2037 -0.1172 -0.2085
 1065YOPC   D2A15132  15.430   1.885   6.686 -0.1869  0.2743  0.0637
 1065YOPC   C3A15133  15.514   2.007   7.184  0.2039 -0.0672 -0.0178
 1065YOPC   C4A15134  15.413   1.951   7.583 -0.1759  0.1600 -0.0697
 1065YOPC   C1B15135  14.559   1.770   6.543  0.4099  0.0860  0.2981
 1065YOPC   C2B15136  14.973   1.876   6.910  0.4059 -0.2657 -0.3630
 1065YOPC   D3B15137  14.989   1.882   7.294  0.0591 -0.0046  0.1089
 1065YOPC   C4B15138  15.014   1.689   7.705  0.1189 -0.0151 -0.0160
 1066YOPC   NC315139  11.317  18.629   5.118  0.2789 -0.0561 -0.2607
 1066YOPC   PO415140  11.078  18.198   5.121 -0.0748 -0.1161 -0.0616
 1066YOPC   GL115141  11.303  18.233   5.502 -0.0649 -0.0007 -0.0892
 1066YOPC   GL215142  11.195  18.434   5.765  0.3569 -0.0357  0.0077
 1066YOPC   C1A15143  11.687  17.991   5.717 -0.1399 -0.0130 -0.3085
 1066YOPC   D2A15144  12.049  18.006   5.973 -0.1754  0.0237  0.0685
 1066YOPC   C3A15145  11.870  17.916   6.434 -0.0550 -0.2774 -0.2409
 1066YOPC   C4A15146  11.610  17.664   6.562  0.1329 -0.0367  0.0736
 1066YOPC   C1B15147  10.910  18.394   6.180  0.0004  0.0129  0.0232
 1066YOPC   C2B15148  10.462  18.476   6.475  0.2645  0.1345 -0.1472
 1066YOPC   D3B15149  10.149  18.773   6.453  0.0502  0.0252 -0.0279
 1066YOPC   C4B15150   9.705  18.957   6.620  0.2864  0.2262 -0.0562
 1067YOPC   NC315151   1.024  18.113   5.988  0.0041 -0.1157  0.1146
 1067YOPC   PO415152   0.573  18.176   5.915  0.2229  0.2253  0.4016
 1067YOPC   GL115153   0.657  18.422   6.348 -0.0152  0.0456 -0.3093
 1067YOPC   GL215154   0.981  18.426   6.372 -0.2259  0.0898 -0.2062
 1067YOPC   C1A15155   0.698  18.438   6.771 -0.0529  0.3245 -0.0949
 1067YOPC   D2A15156   0.500  18.661   7.116 -0.0887 -0.0356 -0.0401
 1067YOPC   C3A15157   0.631  18.779   7.536  0.0447  0.1528  0.0012
 1067YOPC   C4A15158   0.348  18.952   7.788  0.0909 -0.2717 -0.2577
 1067YOPC   C1B15159   1.160  18.341   6.779  0.0341 -0.0095  0.0071
 1067YOPC   C2B15160   1.007  18.054   7.025 -0.0588 -0.2440  0.0110
 1067YOPC   D3B15161   1.267  17.810   7.332  0.0645  0.2770  0.1585
 1067YOPC   C4B15162   1.248  17.498   7.663 -0.1710  0.2201  0.3183
 1068YOPC   NC315163   6.223  15.887   5.201  0.2147  0.1217  0.0463
 1068YOPC   PO415164   6.231  16.267   5.037 -0.0855 -0.3651 -0.3012
 1068YOPC   GL115165   6.045  16.345   5.424 -0.1737 -0.0279 -0.3473
 1068YOPC   GL215166   5.785  16.183   5.446 -0.0519  0.1944 -0.1862
 1068YOPC   C1A15167   6.203  16.406   5.781 -0.3010 -0.1314  0.1314
 1068YOPC   D2A15168   6.315  16.402   6.346 -0.0801 -0.1500 -0.0299
 1068YOPC   C3A15169   6.405  16.720   6.534  0.0284 -0.2153  0.1208
 1068YOPC   C4A15170   6.236  16.856   6.951 -0.0819 -0.1522 -0.1363
 1068YOPC   C1B15171   5.941  16.003   5.812 -0.2008  0.1705 -0.0740
 1068YOPC   C2B15172   5.907  16.277   6.185  0.1619  0.2479 -0.3796
 1068YOPC   D3B15173   6.033  16.117   6.665 -0.2298  0.2324 -0.1774
 1068YOPC   C4B15174   6.221  15.905   7.061  0.2512  0.0350 -0.0599
 1069YOPC   NC315175  10.820  13.345   4.643  0.0122  0.3427 -0.2013
 1069YOPC   PO415176  10.539  13.333   5.007  0.1946 -0.1469 -0.2474
 1069YOPC   GL115177  10.786  13.365   5.444  0.0671 -0.0128 -0.0387
 1069YOPC   GL215178  10.929  12.976   5.401 -0.1270  0.1541 -0.1159
 1069YOPC   C1A15179  10.913  13.650   5.711  0.1057 -0.0685 -0.1663
 1069YOPC   D2A15180  10.958  13.829   6.142  0.3328  0.1110  0.3553
 1069YOPC   C3A15181  11.012  13.845   6.597  0.2773  0.2492 -0.1835
 1069YOPC   C4A15182  11.320  14.039   6.850  0.3048  0.0597  0.2288
 1069YOPC   C1B15183  11.078  13.190   5.744  0.0329  0.0245  0.1720
 1069YOPC   C2B15184  11.231  13.336   6.115 -0.0549 -0.1744  0.1487
 1069YOPC   D3B15185  11.151  12.967   6.548  0.1705  0.2475  0.1808
 1069YOPC   C4B15186  10.996  12.850   6.960  0.0441  0.1255 -0.2109
 1070YOPC   NC315187  12.658  18.940   5.589  0.1823 -0.5743 -0.1652
 1070YOPC   PO415188  13.019  18.698   5.553  0.0684 -0.1164  0.0825
 1070YOPC   GL115189  13.191  18.499   5.884  0.0437 -0.0559 -0.0536
 1070YOPC   GL215190  13.413  18.645   6.020 -0.1059 -0.3004  0.2176
 1070YOPC   C1A15191  13.052  18.341   6.231 -0.3030 -0.1780  0.0799
 1070YOPC   D2A15192  12.745  18.222   6.564  0.3105 -0.2397 -0.1136
 1070YOPC   C3A15193  12.859  18.049   6.910  0.0450  0.2980 -0.0662
 1070YOPC   C4A15194  13.003  17.901   7.417  0.1510  0.1912 -0.1540
 1070YOPC   C1B15195  13.404  18.602   6.415  0.1273 -0.0734 -0.0260
 1070YOPC   C2B15196  13.416  18.873   6.766  0.1520 -0.0467 -0.0842
 1070YOPC   D3B15197  13.410  18.795   7.204 -0.0865  0.3838  0.1535
 1070YOPC   C4B15198  13.464  18.749   7.654 -0.2592  0.1146 -0.3660
 1071YOPC   NC315199   7.244   3.904   5.457 -0.1348 -0.0258  0.0789
 1071YOPC   PO415200   7.253   4.352   5.570 -0.1343 -0.1633  0.1598
 1071YOPC   GL115201   7.509   4.463   5.926  0.3032 -0.0180  0.0972
 1071YOPC   GL215202   7.340   4.478   6.156 -0.2192  0.2621  0.1411
 1071YOPC   C1A15203   7.736   4.789   6.249  0.0542  0.0080 -0.1698
 1071YOPC   D2A15204   7.683   5.141   6.538  0.4438  0.1616 -0.2377
 1071YOPC   C3A15205   7.469   5.366   6.433 -0.2640 -0.0046 -0.0691
 1071YOPC   C4A15206   7.347   5.723   6.257  0.0216 -0.1236 -0.1350
 1071YOPC   C1B15207   7.473   4.564   6.629 -0.0250  0.2387  0.2758
 1071YOPC   C2B15208   7.573   4.787   6.912 -0.0009  0.2078 -0.1170
 1071YOPC   D3B15209   7.429   4.722   7.262  0.1887 -0.3434  0.1013
 1071YOPC   C4B15210   7.045   4.604   7.576  0.1064 -0.2387  0.0302
 1072YOPC   NC315211   1.385   9.436   4.953  0.1886 -0.3395  0.3568
 1072YOPC   PO415212   1.456   9.378   5.377 -0.1197 -0.1805 -0.0790
 1072YOPC   GL115213   1.130   9.366   5.709  0.2455  0.0118  0.1540
 1072YOPC   GL215214   1.181   9.035   5.592 -0.2113  0.0232  0.3544
 1072YOPC   C1A15215   0.987   9.631   6.015 -0.4833 -0.3049  0.0565
 1072YOPC   D2A15216   0.935   9.689   6.324 -0.0405  0.2035 -0.0776
 1072YOPC   C3A15217   0.817   9.302   6.418  0.3247 -0.0265 -0.1254
 1072YOPC   C4A15218   0.374   9.249   6.474 -0.1572  0.0121  0.0897
 1072YOPC   C1B15219   1.516   8.897   5.905 -0.4143 -0.0090  0.2073
 1072YOPC   C2B15220   1.609   8.980   6.345 -0.0210 -0.1442  0.1395
 1072YOPC   D3B15221   1.638   8.775   6.629  0.1058  0.1264  0.1402
 1072YOPC   C4B15222   1.778   8.675   7.091  0.1885 -0.1452  0.2154
 1073YOPC   NC315223   6.992   8.243   5.306 -0.0216  0.0246 -0.1320
 1073YOPC   PO415224   6.515   8.328   5.321  0.0300 -0.0467 -0.0018
 1073YOPC   GL115225   6.310   8.715   5.509 -0.2004 -0.4439 -0.0067
 1073YOPC   GL215226   6.015   8.470   5.621 -0.3159 -0.0467 -0.0913
 1073YOPC   C1A15227   6.246   8.831   5.964  0.0925 -0.2364  0.0256
 1073YOPC   D2A15228   6.274   8.822   6.366 -0.1042 -0.3713 -0.2111
 1073YOPC   C3A15229   6.015   9.058   6.549 -0.1060 -0.0453  0.2958
 1073YOPC   C4A15230   5.741   9.307   6.868 -0.2367 -0.0260  0.1764
 1073YOPC   C1B15231   5.967   8.367   6.030 -0.0903 -0.0408 -0.0701
 1073YOPC   C2B15232   5.901   8.292   6.609  0.3408  0.0573  0.1289
 1073YOPC   D3B15233   6.185   8.375   6.920  0.0160  0.0395 -0.2730
 1073YOPC   C4B15234   6.280   8.130   7.279  0.1360 -0.0003 -0.1373
 1074YOPC   NC315235   5.850  18.600   4.864  0.0538 -0.0262  0.2422
 1074YOPC   PO415236   6.215  18.654   4.859 -0.1069  0.2348  0.1924
 1074YOPC   GL115237   6.346  18.400   5.263  0.1846 -0.0201  0.3647
 1074YOPC   GL215238   6.437  18.613   5.486 -0.0110  0.0580  0.0129
 1074YOPC   C1A15239   6.634  18.121   5.565 -0.2178 -0.3880 -0.3134
 1074YOPC   D2A15240   6.511  18.196   6.016 -0.1372  0.2509 -0.0011
 1074YOPC   C3A15241   6.582  18.556   6.176  0.2255  0.1382 -0.2257
 1074YOPC   C4A15242   6.640  18.947   6.094  0.0903 -0.0816 -0.1381
 1074YOPC   C1B15243   6.114  18.363   5.813 -0.1439  0.1370 -0.0878
 1074YOPC   C2B15244   5.898  18.292   6.168  0.1734  0.1704 -0.2234
 1074YOPC   D3B15245   5.726  18.482   6.634 -0.0139  0.0940  0.2163
 1074YOPC   C4B15246   5.707  18.587   7.080  0.1200 -0.1866 -0.1665
 1075YOPC   NC315247   0.309  13.797   5.345  0.1674 -0.1560  0.1329
 1075YOPC   PO415248   0.050  13.677   5.510  0.0837  0.0189 -0.3163
 1075YOPC   GL115249  -0.044  14.031   5.871  0.2223 -0.1586 -0.3175
 1075YOPC   GL215250  -0.298  13.888   6.048 -0.0673 -0.1985 -0.1978
 1075YOPC   C1A15251  -0.251  14.344   6.128  0.1569 -0.2591  0.0943
 1075YOPC   D2A15252  -0.347  14.438   6.542 -0.2341  0.3500  0.3438
 1075YOPC   C3A15253  -0.211  14.719   6.855 -0.4762 -0.0383  0.2025
 1075YOPC   C4A15254  -0.029  14.782   7.180 -0.1283  0.1025 -0.2200
 1075YOPC   C1B15255  -0.314  13.944   6.471  0.0219 -0.0575 -0.1978
 1075YOPC   C2B15256  -0.642  13.851   6.762 -0.0266 -0.2007  0.1958
 1075YOPC   D3B15257  -0.796  13.375   6.886  0.1558 -0.0396 -0.2584
 1075YOPC   C4B15258  -0.928  13.156   7.309 -0.0274 -0.3278  0.2152
 1076YOPC   NC315259   2.007   2.553   5.262 -0.0652 -0.1090 -0.1054
 1076YOPC   PO415260   2.422   2.358   5.256 -0.3748  0.2156 -0.0453
 1076YOPC   GL115261   2.408   2.395   5.651  0.0958  0.0857  0.1821
 1076YOPC   GL215262   2.712   2.567   5.673  0.4624 -0.3243  0.1886
 1076YOPC   C1A15263   2.113   2.276   5.966  0.0176  0.1627 -0.1113
 1076YOPC   D2A15264   2.158   2.142   6.412  0.0142  0.1548 -0.0515
 1076YOPC   C3A15265   2.187   2.489   6.721  0.3688  0.1701 -0.0121
 1076YOPC   C4A15266   1.879   2.707   6.956 -0.0998 -0.1688 -0.0552
 1076YOPC   C1B15267   2.952   2.636   6.048  0.3148  0.2090  0.1237
 1076YOPC   C2B15268   2.984   2.516   6.453  0.0504  0.0650 -0.0357
 1076YOPC   D3B15269   2.753   2.777   6.756 -0.1373  0.0851  0.0277
 1076YOPC   C4B15270   2.668   3.080   7.104 -0.1119  0.2190 -0.0407
 1077YOPC   NC315271  16.263  17.739   5.598 -0.1376  0.0831 -0.1278
 1077YOPC   PO415272  15.918  18.024   5.696  0.1975  0.1291 -0.1184
 1077YOPC   GL115273  15.661  17.984   6.021  0.2082  0.0086 -0.1439
 1077YOPC   GL215274  15.830  18.096   6.236  0.1816 -0.0906 -0.1527
 1077YOPC   C1A15275  15.373  17.961   6.432 -0.0151 -0.1004  0.1634
 1077YOPC   D2A15276  15.352  18.075   6.883  0.0226 -0.2651  0.1135
 1077YOPC   C3A15277  15.345  18.411   7.136  0.1061 -0.0308  0.0171
 1077YOPC   C4A15278  15.518  18.458   7.449 -0.0507  0.1422 -0.0158
 1077YOPC   C1B15279  15.877  18.042   6.630 -0.1000 -0.0185 -0.0042
 1077YOPC   C2B15280  16.040  17.889   6.992  0.0899  0.2041  0.1534
 1077YOPC   D3B15281  15.758  18.050   7.320  0.3345 -0.1474  0.3614
 1077YOPC   C4B15282  15.277  17.971   7.369  0.1179 -0.1245  0.3878
 1078YOPC   NC315283  12.121  16.233   5.426  0.2228  0.1588  0.1796
 1078YOPC   PO415284  11.916  15.827   5.407  0.1081  0.3685 -0.1694
 1078YOPC   GL115285  11.762  16.093   5.716 -0.2241  0.3033  0.1355
 1078YOPC   GL215286  11.910  16.363   5.844  0.1746 -0.1538  0.1668
 1078YOPC   C1A15287  11.948  15.973   6.154  0.1734  0.0355 -0.2938
 1078YOPC   D2A15288  11.862  15.838   6.580 -0.0267 -0.1812 -0.1122
 1078YOPC   C3A15289  12.102  15.895   7.006 -0.1480  0.1848 -0.0548
 1078YOPC   C4A15290  12.375  16.293   7.196 -0.0530 -0.2446  0.0385
 1078YOPC   C1B15291  11.960  16.459   6.281 -0.0012 -0.1312  0.2743
 1078YOPC   C2B15292  12.022  16.292   6.713 -0.0194 -0.0093 -0.0095
 1078YOPC   D3B15293  11.908  16.630   7.050 -0.2429  0.0185 -0.0265
 1078YOPC   C4B15294  11.661  16.710   7.292 -0.1275  0.1632 -0.0666
 1079YOPC   NC315295   0.080  14.975   5.602  0.1457 -0.0285  0.2473
 1079YOPC   PO415296  -0.290  15.268   5.823  0.1031 -0.4702 -0.2458
 1079YOPC   GL115297  -0.282  15.479   6.239  0.0831 -0.2630 -0.2487
 1079YOPC   GL215298  -0.051  15.693   6.253  0.4508 -0.4769 -0.1691
 1079YOPC   C1A15299  -0.239  15.439   6.652 -0.1038  0.0782  0.0768
 1079YOPC   D2A15300  -0.296  15.277   7.087  0.1641  0.1056  0.3033
 1079YOPC   C3A15301  -0.455  15.586   7.389 -0.2337  0.1830 -0.2226
 1079YOPC   C4A15302  -0.670  15.834   7.691 -0.0528  0.0571  0.1496
 1079YOPC   C1B15303  -0.242  16.007   6.443  0.4302  0.1146 -0.2306
 1079YOPC   C2B15304  -0.524  16.194   6.753 -0.1796 -0.0351 -0.1601
 1079YOPC   D3B15305  -0.330  16.535   6.984  0.1150  0.3631  0.2449
 1079YOPC   C4B15306  -0.309  17.023   6.920 -0.0835  0.2366  0.1315
 1080YOPC   NC315307   5.968   6.146   5.418  0.0721 -0.1312 -0.0830
 1080YOPC   PO415308   5.910   6.699   5.401 -0.2939  0.3057  0.1543
 1080YOPC   GL115309   5.993   6.789   5.804  0.0461  0.1436  0.1318
 1080YOPC   GL215310   6.304   6.874   5.775 -0.0620  0.2964 -0.2984
 1080YOPC   C1A15311   5.708   6.739   6.104  0.0304 -0.0296 -0.2619
 1080YOPC   D2A15312   5.370   6.459   6.263  0.0124 -0.1385 -0.2285
 1080YOPC   C3A15313   5.264   6.143   6.051 -0.1168 -0.0147 -0.1275
 1080YOPC   C4A15314   5.325   5.706   5.868  0.0267 -0.0777  0.0681
 1080YOPC   C1B15315   6.092   7.046   6.221 -0.0241  0.0581 -0.0349
 1080YOPC   C2B15316   6.021   7.229   6.570  0.0543  0.1166  0.1484
 1080YOPC   D3B15317   5.753   6.975   6.700 -0.1446  0.1420 -0.3205
 1080YOPC   C4B15318   5.699   6.948   7.142  0.1436  0.1613  0.1019
 1081YOPC   NC315319   9.104  11.998   5.386 -0.0395 -0.1280  0.2117
 1081YOPC   PO415320   9.037  12.167   5.708  0.1013 -0.2909 -0.1505
 1081YOPC   GL115321   8.759  12.030   6.049  0.0352 -0.2008  0.2515
 1081YOPC   GL215322   8.373  12.031   6.055 -0.2136 -0.1093  0.1539
 1081YOPC   C1A15323   8.786  11.955   6.497  0.0367 -0.3926  0.0223
 1081YOPC   D2A15324   8.596  12.111   6.778 -0.0273 -0.1409 -0.1958
 1081YOPC   C3A15325   8.776  11.987   7.086 -0.0027  0.0916  0.0110
 1081YOPC   C4A15326   9.024  11.775   7.280 -0.1936  0.2790  0.1506
 1081YOPC   C1B15327   8.191  11.991   6.482 -0.1155  0.1955 -0.0862
 1081YOPC   C2B15328   7.974  12.018   6.857 -0.0631 -0.1309 -0.1070
 1081YOPC   D3B15329   7.914  11.699   7.248  0.1630  0.0099 -0.2108
 1081YOPC   C4B15330   7.596  11.347   7.296  0.0922  0.0581 -0.0661
 1082YOPC   NC315331   6.317   7.515   4.847  0.0924 -0.2187 -0.1465
 1082YOPC   PO415332   6.359   7.567   5.271  0.1471  0.4618  0.3320
 1082YOPC   GL115333   6.565   7.884   5.533  0.1841  0.1495 -0.1650
 1082YOPC   GL215334   6.685   7.591   5.762 -0.1085  0.1018  0.3001
 1082YOPC   C1A15335   6.399   8.131   5.956  0.2493  0.2007 -0.1953
 1082YOPC   D2A15336   6.363   8.315   6.447 -0.1158 -0.0929 -0.2356
 1082YOPC   C3A15337   6.644   8.562   6.729  0.0766 -0.1953 -0.2374
 1082YOPC   C4A15338   6.454   8.915   6.819 -0.0923 -0.2748  0.3104
 1082YOPC   C1B15339   6.415   7.661   5.933 -0.2217  0.1478 -0.1572
 1082YOPC   C2B15340   6.464   7.367   6.302 -0.0197 -0.0389  0.1747
 1082YOPC   D3B15341   6.740   7.515   6.597 -0.0706  0.2467  0.0308
 1082YOPC   C4B15342   7.040   7.690   7.000  0.0046  0.1832 -0.3259
 1083YOPC   NC315343  11.575   2.591   5.701  0.0639 -0.2232 -0.5501
 1083YOPC   PO415344  11.284   2.866   5.543  0.0971  0.1049  0.0369
 1083YOPC   GL115345  11.328   3.027   5.936 -0.0001 -0.0150 -0.0689
 1083YOPC   GL215346  11.388   2.771   6.158 -0.3470 -0.1117  0.1551
 1083YOPC   C1A15347  11.137   3.250   6.264  0.0978 -0.0181 -0.0952
 1083YOPC   D2A15348  10.864   3.075   6.614  0.0371 -0.2079  0.1956
 1083YOPC   C3A15349  11.046   3.231   7.039 -0.0494 -0.2094 -0.1525
 1083YOPC   C4A15350  10.933   3.559   7.293 -0.2627 -0.1837 -0.4990
 1083YOPC   C1B15351  11.365   2.823   6.512  0.6066  0.3391 -0.2684
 1083YOPC   C2B15352  11.233   2.773   6.977 -0.0648 -0.3495  0.3207
 1083YOPC   D3B15353  10.795   2.777   7.197 -0.1483  0.2824  0.3223
 1083YOPC   C4B15354  10.577   2.522   7.388  0.1153 -0.1220  0.0066
 1084YOPC   NC315355  14.644   5.078   6.149  0.1884  0.0900  0.4130
 1084YOPC   PO415356  14.906   5.457   5.972 -0.0530 -0.1545 -0.2598
 1084YOPC   GL115357  14.939   5.650   6.280 -0.0219  0.1338  0.2225
 1084YOPC   GL215358  15.152   5.396   6.469 -0.0478  0.1000 -0.0381
 1084YOPC   C1A15359  14.839   5.779   6.625  0.2493 -0.0859  0.1226
 1084YOPC   D2A15360  14.769   5.734   7.185 -0.1213  0.4594 -0.1249
 1084YOPC   C3A15361  14.997   5.556   7.517 -0.2085 -0.0479 -0.0134
 1084YOPC   C4A15362  15.097   5.155   7.713  0.3270 -0.0751  0.1602
 1084YOPC   C1B15363  15.151   5.488   6.948  0.1534  0.0419  0.0676
 1084YOPC   C2B15364  15.212   5.258   7.180  0.0535 -0.1933 -0.0529
 1084YOPC   D3B15365  15.559   5.215   7.471  0.0729  0.2134  0.1476
 1084YOPC   C4B15366  15.619   5.200   7.936  0.2614  0.0244  0.0923
 1085YOPC   NC315367   8.866  13.924   4.832  0.1322  0.1005 -0.2968
 1085YOPC   PO415368   8.617  13.805   5.224 -0.2368  0.1294  0.0100
 1085YOPC   GL115369   8.635  13.704   5.593 -0.1728  0.0822  0.1399
 1085YOPC   GL215370   8.484  13.498   5.836 -0.1014  0.0717  0.0226
 1085YOPC   C1A15371   8.752  13.833   6.027  0.0748  0.1303  0.0262
 1085YOPC   D2A15372   8.666  14.230   6.298  0.2096 -0.3559 -0.2562
 1085YOPC   C3A15373   8.441  14.281   6.720 -0.0637  0.1776  0.1376
 1085YOPC   C4A15374   8.490  14.769   7.037  0.0422  0.0960  0.0045
 1085YOPC   C1B15375   8.607  13.431   6.277 -0.2169  0.1358  0.1428
 1085YOPC   C2B15376   8.763  13.411   6.705 -0.0792 -0.2831 -0.0147
 1085YOPC   D3B15377   8.974  13.123   6.830  0.1810 -0.0515  0.0645
 1085YOPC   C4B15378   9.311  13.183   7.101  0.1224 -0.2377 -0.2010
 1086YOPC   NC315379   6.138   4.929   5.202 -0.1434 -0.0560  0.2626
 1086YOPC   PO415380   6.553   4.776   5.171 -0.1191 -0.0155 -0.1510
 1086YOPC   GL115381   6.710   4.803   5.545  0.3119 -0.2655 -0.2780
 1086YOPC   GL215382   6.428   4.626   5.793  0.1482  0.1520  0.0982
 1086YOPC   C1A15383   6.696   5.089   5.941 -0.1599  0.1461  0.1137
 1086YOPC   D2A15384   6.733   4.987   6.400  0.0306  0.0176 -0.2011
 1086YOPC   C3A15385   6.454   4.653   6.403  0.2860  0.2439  0.4022
 1086YOPC   C4A15386   6.150   4.569   6.782 -0.0833 -0.0590 -0.0421
 1086YOPC   C1B15387   6.580   4.264   6.051 -0.3297  0.2550  0.0304
 1086YOPC   C2B15388   6.788   4.106   6.371  0.1507  0.0273 -0.1512
 1086YOPC   D3B15389   6.781   3.826   6.641 -0.0789 -0.0484 -0.0872
 1086YOPC   C4B15390   6.787   3.708   7.056  0.1681 -0.1657 -0.0193
 1087YOPC   NC315391   1.326   4.298   5.505  0.0910  0.2047  0.1658
 1087YOPC   PO415392   1.149   4.705   5.343  0.0753  0.0696 -0.2675
 1087YOPC   GL115393   1.373   4.690   5.804  0.4148 -0.3614  0.2676
 1087YOPC   GL215394   1.731   4.516   5.901 -0.0454  0.0320  0.0396
 1087YOPC   C1A15395   1.563   4.935   6.075 -0.1107  0.1079 -0.0996
 1087YOPC   D2A15396   1.390   5.232   6.336  0.1917 -0.0190 -0.0031
 1087YOPC   C3A15397   1.267   5.118   6.707  0.3835 -0.3256  0.1690
 1087YOPC   C4A15398   1.291   5.042   7.131 -0.1980  0.0126  0.0865
 1087YOPC   C1B15399   1.870   4.349   6.325 -0.0069 -0.0577  0.0459
 1087YOPC   C2B15400   2.256   4.426   6.569  0.1012  0.0852  0.0579
 1087YOPC   D3B15401   2.314   4.076   6.862 -0.1677  0.1147  0.2759
 1087YOPC   C4B15402   2.552   3.993   7.298 -0.0443  0.2107  0.1185
 1088YOPC   NC315403  15.397  14.002   5.033  0.1479  0.0871 -0.0954
 1088YOPC   PO415404  15.787  13.831   5.087  0.1198 -0.0797 -0.3160
 1088YOPC   GL115405  16.023  13.710   5.467  0.4423 -0.3161  0.2915
 1088YOPC   GL215406  16.030  13.314   5.505 -0.0683 -0.0343  0.3384
 1088YOPC   C1A15407  16.016  14.015   5.837 -0.0252  0.1641  0.3908
 1088YOPC   D2A15408  16.271  14.132   6.200 -0.0627 -0.1048 -0.0490
 1088YOPC   C3A15409  16.575  14.312   6.398  0.3566  0.2800  0.0155
 1088YOPC   C4A15410  16.676  14.819   6.395  0.3211 -0.0238 -0.0550
 1088YOPC   C1B15411  16.180  13.056   5.823 -0.0371 -0.2276 -0.1910
 1088YOPC   C2B15412  15.994  12.807   6.104  0.2667  0.0485  0.1440
 1088YOPC   D3B15413  15.708  12.570   5.900 -0.0377  0.1176 -0.1255
 1088YOPC   C4B15414  15.281  12.339   5.861 -0.1558  0.1509 -0.1757
 1089YOPC   NC315415   4.134  15.580   5.281 -0.1006 -0.2025 -0.2404
 1089YOPC   PO415416   4.208  15.666   5.675  0.3624  0.2138 -0.0428
 1089YOPC   GL115417   4.515  15.658   5.936  0.1998  0.1453  0.1072
 1089YOPC   GL215418   4.775  15.846   5.821 -0.2030 -0.1023 -0.0002
 1089YOPC   C1A15419   4.632  15.658   6.354 -0.0716 -0.2065 -0.1677
 1089YOPC   D2A15420   4.530  15.633   6.778 -0.1635  0.0864  0.1007
 1089YOPC   C3A15421   4.863  15.851   7.047  0.1605 -0.4097 -0.0303
 1089YOPC   C4A15422   4.746  16.099   7.483 -0.0141  0.2511  0.2409
 1089YOPC   C1B15423   5.061  15.875   6.175 -0.0796 -0.3618 -0.2290
 1089YOPC   C2B15424   5.168  15.762   6.559  0.2112  0.2037 -0.1117
 1089YOPC   D3B15425   5.012  15.293   6.789 -0.1641 -0.2983  0.0223
 1089YOPC   C4B15426   4.747  15.284   7.112  0.2141 -0.4848  0.1240
 1090YOPC   NC315427  17.686  12.402   5.184 -0.1664  0.1807 -0.1400
 1090YOPC   PO415428  17.443  12.037   5.234 -0.1726 -0.1953 -0.0659
 1090YOPC   GL115429  17.583  12.104   5.683 -0.2010  0.1549  0.6265
 1090YOPC   GL215430  17.870  12.227   5.738  0.0528 -0.0415  0.0254
 1090YOPC   C1A15431  17.482  12.452   6.067  0.1213 -0.1271  0.0171
 1090YOPC   D2A15432  17.573  12.799   6.155  0.1719  0.1122  0.0203
 1090YOPC   C3A15433  17.441  12.929   6.466  0.0475 -0.4442  0.0378
 1090YOPC   C4A15434  17.363  12.874   6.864 -0.1363  0.3715 -0.0652
 1090YOPC   C1B15435  17.924  12.207   6.193 -0.0178  0.0191 -0.1077
 1090YOPC   C2B15436  17.676  12.452   6.547  0.0473  0.0196 -0.0142
 1090YOPC   D3B15437  17.316  12.454   6.546 -0.3487  0.3314  0.0069
 1090YOPC   C4B15438  16.894  12.395   6.649  0.2695  0.2623 -0.3168
 1091YOPC   NC315439  16.874   8.027   4.854 -0.0628  0.0820  0.0313
 1091YOPC   PO415440  17.135   8.045   5.174  0.0264 -0.0521  0.0400
 1091YOPC   GL115441  17.168   8.256   5.528 -0.0985  0.1813 -0.1738
 1091YOPC   GL215442  17.216   8.024   5.720  0.1778  0.0953 -0.1733
 1091YOPC   C1A15443  17.306   8.541   5.888 -0.0377  0.2050  0.1771
 1091YOPC   D2A15444  17.723   8.801   5.960  0.1505 -0.0428 -0.1552
 1091YOPC   C3A15445  17.578   9.239   5.905 -0.3760  0.0946  0.0776
 1091YOPC   C4A15446  17.494   9.603   5.912  0.1206 -0.0580 -0.1901
 1091YOPC   C1B15447  17.205   7.721   6.115 -0.2370 -0.2848  0.2163
 1091YOPC   C2B15448  17.230   7.500   6.580  0.1188 -0.1286  0.0315
 1091YOPC   D3B15449  17.244   7.123   6.692 -0.2706  0.2510  0.0823
 1091YOPC   C4B15450  17.043   6.688   6.555 -0.2353  0.1523  0.0865
 1092YOPC   NC315451   9.669   3.017   5.469  0.2254 -0.0463  0.1314
 1092YOPC   PO415452  10.075   3.065   5.582  0.0701  0.2402  0.1034
 1092YOPC   GL115453  10.279   2.927   5.982 -0.1613  0.0203 -0.1930
 1092YOPC   GL215454  10.319   2.806   6.154 -0.1744  0.2052  0.0008
 1092YOPC   C1A15455   9.871   2.994   6.253  0.0540 -0.1269  0.0653
 1092YOPC   D2A15456   9.545   3.159   6.560 -0.0947  0.2248  0.1854
 1092YOPC   C3A15457   9.591   3.435   6.910  0.0855 -0.0837  0.0402
 1092YOPC   C4A15458   9.538   3.455   7.285 -0.1689  0.1575  0.2605
 1092YOPC   C1B15459  10.305   2.751   6.442 -0.3307  0.0201 -0.2468
 1092YOPC   C2B15460  10.411   2.878   6.889  0.0987  0.2065 -0.0942
 1092YOPC   D3B15461  10.202   2.805   7.175 -0.0696  0.4955  0.0857
 1092YOPC   C4B15462  10.049   2.494   7.240  0.1506 -0.0560  0.1937
 1093YOPC   NC315463   3.651   1.674   5.178  0.1127 -0.3261 -0.2765
 1093YOPC   PO415464   3.883   1.553   4.852 -0.1942  0.2158  0.1214
 1093YOPC   GL115465   4.198   1.410   5.133  0.0786  0.0557 -0.0015
 1093YOPC   GL215466   3.946   1.226   5.312 -0.0570  0.2352  0.2819
 1093YOPC   C1A15467   4.408   1.393   5.517 -0.2840  0.3797  0.2765
 1093YOPC   D2A15468   4.451   1.463   5.896  0.0855 -0.4943  0.0734
 1093YOPC   C3A15469   4.686   1.785   6.234 -0.0036  0.2427 -0.1459
 1093YOPC   C4A15470   5.141   2.033   6.264  0.1554  0.1212 -0.2859
 1093YOPC   C1B15471   3.992   1.018   5.689  0.4318 -0.0847  0.1351
 1093YOPC   C2B15472   3.989   1.192   6.142  0.0787 -0.0855  0.1596
 1093YOPC   D3B15473   4.203   1.491   6.343 -0.2150  0.3684 -0.0655
 1093YOPC   C4B15474   4.325   1.888   6.732  0.0287  0.2396 -0.2379
 1094YOPC   NC315475  12.329  12.740   5.261 -0.0585  0.1098 -0.2570
 1094YOPC   PO415476  12.757  12.801   5.479 -0.1419  0.1397  0.1158
 1094YOPC   GL115477  12.818  12.715   5.901  0.0879  0.1148  0.1994
 1094YOPC   GL215478  13.044  12.435   5.902  0.2155  0.2353  0.3239
 1094YOPC   C1A15479  12.561  12.737   6.233  0.3151 -0.1214  0.0412
 1094YOPC   D2A15480  12.394  13.049   6.681  0.0345 -0.0175 -0.0229
 1094YOPC   C3A15481  12.675  13.098   7.147 -0.1173  0.1734 -0.4590
 1094YOPC   C4A15482  12.734  13.471   7.284 -0.2612  0.0465 -0.1310
 1094YOPC   C1B15483  13.171  12.645   6.351 -0.1287 -0.1649 -0.0303
 1094YOPC   C2B15484  13.315  12.719   6.751 -0.3124  0.0319 -0.2083
 1094YOPC   D3B15485  13.306  12.353   6.938  0.1611 -0.0828 -0.1873
 1094YOPC   C4B15486  13.121  12.085   7.190  0.0586  0.2396  0.0736
 1095YOPC   NC315487  17.619  17.222   5.716  0.0052  0.0765 -0.1802
 1095YOPC   PO415488  18.072  16.995   5.831 -0.2960  0.1462  0.0933
 1095YOPC   GL115489  18.216  16.713   6.203  0.0047 -0.0111 -0.1034
 1095YOPC   GL215490  18.563  16.616   6.276  0.2574 -0.3507 -0.0799
 1095YOPC   C1A15491  17.947  16.665   6.562 -0.0839 -0.0811 -0.3109
 1095YOPC   D2A15492  18.037  16.749   7.007  0.1778 -0.1981  0.0872
 1095YOPC   C3A15493  18.041  17.111   7.162  0.1378  0.1232  0.2807
 1095YOPC   C4A15494  18.195  17.473   7.322  0.2455  0.1370 -0.1697
 1095YOPC   C1B15495  18.457  16.672   6.717 -0.1478  0.0905  0.1571
 1095YOPC   C2B15496  18.487  16.894   7.122  0.0482  0.1235  0.1429
 1095YOPC   D3B15497  18.326  16.832   7.532  0.1363 -0.3465 -0.0480
 1095YOPC   C4B15498  18.297  16.917   8.010 -0.2079  0.0643  0.2774
 1096YOPC   NC315499  15.551   8.550   5.512 -0.1332  0.2432  0.0036
 1096YOPC   PO415500  15.174   8.328   5.549 -0.1529 -0.2221  0.1445
 1096YOPC   GL115501  15.186   8.533   5.975 -0.0915  0.0283  0.3140
 1096YOPC   GL215502  15.350   8.813   6.004 -0.1492  0.6041 -0.1800
 1096YOPC   C1A15503  15.391   8.300   6.286  0.1234 -0.2817 -0.1541
 1096YOPC   D2A15504  15.449   8.088   6.645  0.0572 -0.0030 -0.1701
 1096YOPC   C3A15505  15.493   8.261   7.024 -0.0675  0.0007  0.0132
 1096YOPC   C4A15506  15.177   8.495   7.383  0.1488  0.3709 -0.2426
 1096YOPC   C1B15507  15.401   8.844   6.408 -0.0292  0.0654  0.1037
 1096YOPC   C2B15508  15.681   8.581   6.743 -0.0516 -0.1342 -0.0753
 1096YOPC   D3B15509  15.924   8.643   7.139 -0.0538  0.0179  0.0736
 1096YOPC   C4B15510  16.374   8.515   7.216 -0.0728 -0.1912 -0.5392
 1097YOPC   NC315511  12.282   3.114   5.615 -0.2577  0.1320 -0.1313
 1097YOPC   PO415512  11.803   3.042   5.428  0.0050  0.0638  0.1472
 1097YOPC   GL115513  11.864   3.074   5.839 -0.0128 -0.1899 -0.0444
 1097YOPC   GL215514  12.087   3.255   6.027 -0.2779 -0.6147 -0.2587
 1097YOPC   C1A15515  11.860   2.917   6.297  0.0872  0.1806 -0.1573
 1097YOPC   D2A15516  11.775   2.496   6.515  0.0114 -0.2704 -0.1620
 1097YOPC   C3A15517  11.811   2.590   7.065  0.0530  0.0290  0.1255
 1097YOPC   C4A15518  11.609   2.853   7.349 -0.1120  0.2083 -0.3512
 1097YOPC   C1B15519  12.196   3.320   6.426 -0.0878 -0.2707  0.4342
 1097YOPC   C2B15520  12.575   3.570   6.477 -0.4277  0.0902  0.0940
 1097YOPC   D3B15521  12.563   3.966   6.400  0.0687 -0.0960 -0.1024
 1097YOPC   C4B15522  12.326   4.302   6.482 -0.0956 -0.5277 -0.4383
 1098YOPC   NC315523   2.585  12.823   5.626 -0.0521  0.1605 -0.0222
 1098YOPC   PO415524   2.900  12.977   5.734  0.4749  0.0052 -0.0053
 1098YOPC   GL115525   3.044  12.892   6.152  0.1689 -0.0618 -0.0507
 1098YOPC   GL215526   3.257  12.552   6.230 -0.0100 -0.0081  0.4046
 1098YOPC   C1A15527   2.997  12.975   6.528  0.2508  0.2256 -0.3398
 1098YOPC   D2A15528   3.340  12.914   6.841 -0.1943  0.4725  0.1461
 1098YOPC   C3A15529   3.253  12.798   7.311  0.1045  0.1543 -0.5691
 1098YOPC   C4A15530   3.024  12.556   7.449  0.0844  0.1152  0.0820
 1098YOPC   C1B15531   3.057  12.452   6.465  0.2069  0.1557  0.0972
 1098YOPC   C2B15532   3.000  12.562   6.910  0.1022  0.2863  0.1348
 1098YOPC   D3B15533   2.809  12.987   7.052  0.4223 -0.2099 -0.2053
 1098YOPC   C4B15534   2.762  13.189   7.546 -0.0057 -0.1043 -0.1965
 1099YOPC   NC315535   7.323   2.086   4.792 -0.3668  0.1735 -0.1591
 1099YOPC   PO415536   7.172   2.044   5.120  0.3298 -0.1814 -0.1521
 1099YOPC   GL115537   7.481   2.186   5.510  0.0488  0.1589  0.0993
 1099YOPC   GL215538   7.799   2.229   5.462 -0.0731  0.1932 -0.1109
 1099YOPC   C1A15539   7.533   2.288   5.952  0.2329 -0.3162  0.0957
 1099YOPC   D2A15540   7.521   1.999   6.268 -0.3931 -0.2946  0.0803
 1099YOPC   C3A15541   7.467   2.192   6.699 -0.4323 -0.0953  0.1523
 1099YOPC   C4A15542   7.428   2.581   6.968  0.2162  0.1034  0.1938
 1099YOPC   C1B15543   7.917   2.001   5.794  0.1540  0.1859  0.1061
 1099YOPC   C2B15544   8.029   1.688   6.164 -0.0876 -0.0307  0.2813
 1099YOPC   D3B15545   7.885   1.885   6.511  0.2205 -0.0656  0.0064
 1099YOPC   C4B15546   8.083   1.943   6.889 -0.2194  0.2707 -0.1114
 1100YOPC   NC315547   5.429   7.723   5.380  0.2405 -0.2106 -0.2540
 1100YOPC   PO415548   5.846   7.571   5.559  0.1773  0.2264  0.0328
 1100YOPC   GL115549   5.475   7.635   5.861 -0.2491  0.2633 -0.3030
 1100YOPC   GL215550   5.337   7.857   5.888  0.1145 -0.1509 -0.0529
 1100YOPC   C1A15551   5.186   7.461   6.154 -0.1965  0.2778  0.3259
 1100YOPC   D2A15552   5.033   7.364   6.495 -0.1448  0.0076  0.0777
 1100YOPC   C3A15553   5.278   7.488   6.707 -0.0507 -0.0120  0.1528
 1100YOPC   C4A15554   5.678   7.487   6.754  0.1582 -0.0163  0.1516
 1100YOPC   C1B15555   5.080   7.996   6.047  0.4892 -0.0565 -0.3106
 1100YOPC   C2B15556   4.593   7.954   6.218  0.2367 -0.1876 -0.0709
 1100YOPC   D3B15557   4.518   7.541   6.323 -0.0069 -0.0134  0.0935
 1100YOPC   C4B15558   4.566   7.144   6.471  0.0205 -0.2347 -0.2782
 1101YOPC   NC315559   5.701  12.096   5.562  0.0400  0.1878 -0.0708
 1101YOPC   PO415560   6.007  11.970   5.589  0.1060  0.1336  0.0259
 1101YOPC   GL115561   6.415  12.107   5.765 -0.0236  0.2375  0.0680
 1101YOPC   GL215562   6.765  11.929   5.680  0.1115  0.0552 -0.1847
 1101YOPC   C1A15563   6.408  12.067   6.185 -0.1149 -0.0605 -0.2879
 1101YOPC   D2A15564   6.320  11.919   6.679  0.1387 -0.2075 -0.1503
 1101YOPC   C3A15565   6.491  11.833   7.003 -0.0313 -0.3785 -0.0739
 1101YOPC   C4A15566   6.656  11.988   7.356 -0.2562  0.1071 -0.0165
 1101YOPC   C1B15567   6.910  11.735   6.046  0.0165  0.2848 -0.0285
 1101YOPC   C2B15568   7.297  11.839   6.303  0.0793 -0.0294  0.0497
 1101YOPC   D3B15569   7.645  11.936   6.451  0.1420 -0.1717  0.0495
 1101YOPC   C4B15570   7.549  12.233   6.769 -0.0948 -0.0612 -0.0251
 1102YOPC   NC315571   7.490  10.369   4.996  0.0867  0.0298 -0.1593
 1102YOPC   PO415572   7.162  10.598   5.096 -0.1347 -0.1537  0.2320
 1102YOPC   GL115573   7.300  10.467   5.590  0.1681  0.1211 -0.1662
 1102YOPC   GL215574   7.396  10.223   5.441 -0.0817  0.0735 -0.1873
 1102YOPC   C1A15575   7.411  10.470   5.926  0.1270  0.1725 -0.0977
 1102YOPC   D2A15576   7.720  10.509   6.238 -0.1886  0.1051 -0.0292
 1102YOPC   C3A15577   7.732  10.648   6.653  0.3181  0.2620  0.2593
 1102YOPC   C4A15578   7.630  11.008   6.878  0.0623  0.1284 -0.0295
 1102YOPC   C1B15579   7.244   9.939   5.766 -0.2295  0.2034  0.0547
 1102YOPC   C2B15580   7.355   9.708   6.098 -0.1156 -0.1809 -0.1062
 1102YOPC   D3B15581   7.405   9.257   6.055  0.0814  0.0634  0.2799
 1102YOPC   C4B15582   7.205   8.998   5.758 -0.1130 -0.0915  0.0348
 1103ERGO   ROH15583   2.344  12.389   6.028 -0.1055 -0.1507  0.0450
 1103ERGO    R115584   2.442  12.382   6.294 -0.0620  0.1059  0.0386
 1103ERGO    R215585   2.509  12.610   6.434 -0.3093  0.2631 -0.0921
 1103ERGO    R315586   2.337  12.509   6.618 -0.1702  0.1595 -0.0166
 1103ERGO    R415587   2.542  12.646   6.776 -0.0328  0.0473 -0.0927
 1103ERGO    R515588   2.477  12.439   6.799 -0.0281  0.0358 -0.1704
 1103ERGO    C115589   2.399  12.572   7.148  0.2587 -0.1757 -0.0223
 1103ERGO    C215590   2.441  12.814   7.342  0.0583 -0.0870 -0.2062
 1104ERGO   ROH15591   3.833  12.437   6.414 -0.1466 -0.0074 -0.1526
 1104ERGO    R115592   3.749  12.386   6.680 -0.0828  0.0379 -0.1242
 1104ERGO    R215593   3.492  12.436   6.768 -0.0962 -0.0712 -0.1077
 1104ERGO    R315594   3.502  12.176   6.844  0.0523 -0.0408 -0.0168
 1104ERGO    R415595   3.401  12.318   7.079 -0.3190 -0.0443 -0.1608
 1104ERGO    R515596   3.571  12.183   7.073 -0.1888  0.0982  0.0585
 1104ERGO    C115597   3.357  12.004   7.332 -0.3093 -0.0002 -0.1063
 1104ERGO    C215598   3.147  11.958   7.568 -0.2299 -0.0694  0.2489
 1105ERGO   ROH15599   4.293   2.767   5.827 -0.0176 -0.0211 -0.1483
 1105ERGO    R115600   4.337   2.621   6.066 -0.1860  0.0509 -0.0713
 1105ERGO    R215601   4.555   2.668   6.230 -0.1563 -0.0808 -0.0708
 1105ERGO    R315602   4.363   2.698   6.421 -0.1508  0.2013 -0.1056
 1105ERGO    R415603   4.604   2.818   6.537  0.0973 -0.4156  0.0577
 1105ERGO    R515604   4.480   2.663   6.627 -0.2776 -0.2154 -0.0949
 1105ERGO    C115605   4.454   2.934   6.895  0.2502 -0.3457  0.0999
 1105ERGO    C215606   4.416   3.122   7.218 -0.0135  0.1944  0.1481
 1106ERGO   ROH15607   6.493   5.704   9.089 -0.0066 -0.0185 -0.0230
 1106ERGO    R115608   6.593   5.676   8.826  0.2371 -0.0569  0.0713
 1106ERGO    R215609   6.492   5.819   8.612  0.0061 -0.5321 -0.1535
 1106ERGO    R315610   6.752   5.892   8.579 -0.1378  0.0874 -0.0510
 1106ERGO    R415611   6.633   5.917   8.313 -0.0099 -0.6414 -0.1973
 1106ERGO    R515612   6.812   5.804   8.365  0.2573 -0.1107  0.1305
 1106ERGO    C115613   6.960   6.043   8.107 -0.1543 -0.1235 -0.1266
 1106ERGO    C215614   7.260   6.045   7.834 -0.2785  0.1381 -0.0382
 1107ERGO   ROH15615  14.037   0.925   5.895  0.0006 -0.1032  0.0457
 1107ERGO    R115616  14.213   0.973   6.112 -0.0081 -0.0855  0.0481
 1107ERGO    R215617  14.420   1.156   6.097 -0.0744 -0.0106  0.0767
 1107ERGO    R315618  14.303   1.257   6.321 -0.0993 -0.0967  0.1037
 1107ERGO    R415619  14.588   1.241   6.387 -0.0751  0.0754  0.0528
 1107ERGO    R515620  14.424   1.156   6.502 -0.0042 -0.0350  0.0768
 1107ERGO    C115621  14.577   1.386   6.766 -0.0990  0.0446  0.0643
 1107ERGO    C215622  14.648   1.495   7.166  0.4417  0.0718  0.2296
 1108ERGO   ROH15623  15.415  11.665   9.454 -0.0316 -0.3700 -0.0943
 1108ERGO    R115624  15.379  11.618   9.177  0.0441 -0.1448 -0.1448
 1108ERGO    R215625  15.303  11.817   9.001  0.1890  0.0223 -0.0225
 1108ERGO    R315626  15.527  11.738   8.867  0.2024  0.0303 -0.0039
 1108ERGO    R415627  15.401  11.936   8.692  0.0786 -0.1499 -0.1248
 1108ERGO    R515628  15.460  11.733   8.638  0.1632 -0.1633  0.0093
 1108ERGO    C115629  15.667  11.931   8.386  0.0269 -0.2428 -0.1667
 1108ERGO    C215630  15.650  12.102   8.112 -0.3162  0.1432  0.2258
 1109ERGO   ROH15631  10.246  12.100   5.748  0.0947 -0.0785  0.1322
 1109ERGO    R115632  10.019  12.082   5.917  0.0137 -0.2419  0.0094
 1109ERGO    R215633   9.928  11.842   6.020  0.2743 -0.2844  0.1533
 1109ERGO    R315634   9.950  11.973   6.257 -0.0404 -0.0515  0.0601
 1109ERGO    R415635   9.787  11.738   6.318  0.2353 -0.2189  0.1577
 1109ERGO    R515636   9.736  11.945   6.361 -0.0669 -0.2455 -0.0459
 1109ERGO    C115637   9.725  11.800   6.713 -0.0827  0.0380  0.0727
 1109ERGO    C215638   9.762  11.541   6.978 -0.1918 -0.0910 -0.1209
 1110ERGO   ROH15639  11.050  11.495   8.758  0.1684 -0.1402  0.0839
 1110ERGO    R115640  11.142  11.673   8.559 -0.1611  0.0058  0.0594
 1110ERGO    R215641  11.288  11.588   8.339  0.2071  0.2651  0.2091
 1110ERGO    R315642  11.092  11.718   8.201 -0.0441 -0.3004 -0.0024
 1110ERGO    R415643  11.327  11.728   8.025  0.2934  0.6864  0.3979
 1110ERGO    R515644  11.207  11.897   8.091 -0.4532  0.2320  0.3649
 1110ERGO    C115645  11.168  11.930   7.713  0.1078  0.4008  0.3094
 1110ERGO    C215646  11.077  11.988   7.375  0.0058 -0.1664 -0.3168
 1111ERGO   ROH15647  12.006   0.149   6.141  0.0149  0.2745  0.1012
 1111ERGO    R115648  11.973   0.240   6.407 -0.1203  0.2229  0.1029
 1111ERGO    R215649  11.726   0.249   6.532 -0.1516 -0.0452  0.0688
 1111ERGO    R315650  11.853   0.101   6.721 -0.0205  0.0734  0.0752
 1111ERGO    R415651  11.710   0.308   6.872 -0.2272 -0.0647  0.0685
 1111ERGO    R515652  11.922   0.261   6.885 -0.1827  0.1382  0.0807
 1111ERGO    C115653  11.819   0.204   7.248 -0.1483  0.0353  0.0743
 1111ERGO    C215654  11.871   0.488   7.468 -0.0345  0.1030  0.1874
 1112ERGO   ROH15655   9.062  17.316   5.713 -0.1646 -0.0961 -0.2793
 1112ERGO    R115656   8.845  17.334   5.893  0.0090 -0.0940 -0.0653
 1112ERGO    R215657   8.820  17.169   6.115  0.2394 -0.0730 -0.0156
 1112ERGO    R315658   8.801  17.405   6.247  0.3552 -0.0571 -0.0284
 1112ERGO    R415659   8.666  17.212   6.421  0.0304  0.0763 -0.1400
 1112ERGO    R515660   8.585  17.400   6.348  0.2697  0.1526 -0.2039
 1112ERGO    C115661   8.559  17.459   6.724  0.0173  0.1783 -0.2244
 1112ERGO    C215662   8.717  17.535   6.932 -0.3624 -0.4022  0.0901
 1113ERGO   ROH15663   4.149  10.389   9.340  0.2253 -0.0979 -0.2185
 1113ERGO    R115664   4.084  10.595   9.157  0.2486  0.0387 -0.0772
 1113ERGO    R215665   4.264  10.692   8.971  0.1788 -0.0440 -0.1962
 1113ERGO    R315666   4.065  10.631   8.795 -0.0316  0.2001 -0.0485
 1113ERGO    R415667   4.250  10.799   8.642  0.1370 -0.1523 -0.2296
 1113ERGO    R515668   4.036  10.831   8.667  0.2009  0.1955 -0.1059
 1113ERGO    C115669   4.056  10.804   8.287 -0.0849  0.0136 -0.1102
 1113ERGO    C215670   4.106  10.824   7.962 -0.3703 -0.2238 -0.3462
 1114ERGO   ROH15671  16.706  13.195   5.698 -0.1183 -0.1079 -0.0753
 1114ERGO    R115672  16.692  13.108   5.967 -0.0587  0.0361 -0.0243
 1114ERGO    R215673  16.625  13.277   6.175 -0.2363  0.0968 -0.1284
 1114ERGO    R315674  16.437  13.087   6.226 -0.0629 -0.0526 -0.0356
 1114ERGO    R415675  16.434  13.258   6.463 -0.1908  0.0371 -0.1020
 1114ERGO    R515676  16.459  13.042   6.460  0.0017  0.0566 -0.0206
 1114ERGO    C115677  16.147  13.069   6.678 -0.0014 -0.1379  0.0005
 1114ERGO    C215678  16.009  13.254   6.779 -0.0198  0.3144 -0.0322
 1115ERGO   ROH15679   7.805  18.681   6.062  0.0582  0.0430 -0.1912
 1115ERGO    R115680   7.982  18.636   6.278 -0.0619 -0.0119 -0.1016
 1115ERGO    R215681   8.212  18.785   6.315  0.0833 -0.2215 -0.1112
 1115ERGO    R315682   8.107  18.826   6.562  0.0317  0.0342 -0.1741
 1115ERGO    R415683   8.378  18.935   6.579  0.1750 -0.3342 -0.1046
 1115ERGO    R515684   8.289  18.788   6.712 -0.0872 -0.1527 -0.0780
 1115ERGO    C115685   8.375  19.061   6.964  0.1800 -0.1597 -0.1599
 1115ERGO    C215686   8.461  19.373   7.175 -0.3043  0.0562  0.1368
 1116ERGO   ROH15687   7.830  18.582   9.022  0.0305  0.3490 -0.0774
 1116ERGO    R115688   7.991  18.560   8.791  0.0983  0.3959 -0.0346
 1116ERGO    R215689   7.910  18.422   8.566  0.4019 -0.0663  0.1278
 1116ERGO    R315690   7.966  18.656   8.440 -0.0841 -0.0947 -0.1639
 1116ERGO    R415691   7.945  18.457   8.224  0.4717 -0.4510  0.0903
 1116ERGO    R515692   8.112  18.593   8.261  0.1487 -0.0051 -0.0093
 1116ERGO    C115693   8.017  18.698   7.907  0.0560 -0.7015 -0.2055
 1116ERGO    C215694   7.954  18.561   7.666  0.0628  0.2316 -0.0333
 1117ERGO   ROH15695   2.723  15.081   6.309 -0.1158  0.0895 -0.0058
 1117ERGO    R115696   2.728  15.107   6.590 -0.1327  0.2373 -0.0187
 1117ERGO    R215697   2.509  15.195   6.735 -0.2302  0.0550 -0.0543
 1117ERGO    R315698   2.548  14.963   6.872  0.0483  0.1672  0.0625
 1117ERGO    R415699   2.476  15.161   7.077 -0.1915  0.1891 -0.0368
 1117ERGO    R515700   2.653  15.033   7.077 -0.0340  0.3984  0.0300
 1117ERGO    C115701   2.494  14.924   7.406  0.0924  0.3724  0.0830
 1117ERGO    C215702   2.432  14.888   7.834  0.1975  0.0170  0.0002
 1118ERGO   ROH15703  18.519   1.687   6.084 -0.0502 -0.0726  0.0490
 1118ERGO    R115704  18.467   1.639   6.358 -0.0197 -0.0381  0.0605
 1118ERGO    R215705  18.668   1.599   6.543 -0.0020 -0.0656  0.0328
 1118ERGO    R315706  18.544   1.803   6.674  0.0619 -0.0286  0.0364
 1118ERGO    R415707  18.738   1.695   6.867  0.1666  0.0302 -0.0304
 1118ERGO    R515708  18.524   1.723   6.899  0.1803  0.0357  0.0721
 1118ERGO    C115709  18.662   1.942   7.180  0.3246  0.1208 -0.0637
 1118ERGO    C215710  18.923   2.084   7.321 -0.3323  0.1431 -0.0500
 1119ERGO   ROH15711   6.406  11.611   5.895  0.0898 -0.0259  0.0899
 1119ERGO    R115712   6.464  11.436   6.109  0.0770 -0.0390  0.0839
 1119ERGO    R215713   6.524  11.526   6.364  0.0404 -0.0535  0.1029
 1119ERGO    R315714   6.321  11.360   6.435  0.0413 -0.0720  0.0592
 1119ERGO    R415715   6.452  11.430   6.688 -0.0130 -0.0832  0.0814
 1119ERGO    R515716   6.411  11.229   6.614  0.0145 -0.0769  0.0640
 1119ERGO    C115717   6.219  11.219   6.943 -0.0434 -0.1181  0.0280
 1119ERGO    C215718   5.955  11.272   7.128 -0.2296  0.1498 -0.0464
 1120ERGO   ROH15719   3.885  17.151   6.031  0.1290 -0.0687 -0.2864
 1120ERGO    R115720   4.115  17.181   6.193 -0.0183 -0.1733 -0.0520
 1120ERGO    R215721   4.229  17.428   6.244  0.1737 -0.2467 -0.1317
 1120ERGO    R315722   4.199  17.351   6.503 -0.1945 -0.0038 -0.0940
 1120ERGO    R415723   4.398  17.566   6.512  0.2070 -0.3543 -0.0962
 1120ERGO    R515724   4.420  17.366   6.596 -0.2340 -0.3441  0.0779
 1120ERGO    C115725   4.468  17.575   6.911 -0.1192 -0.1888 -0.0401
 1120ERGO    C215726   4.642  17.858   6.883 -0.0684  0.0127  0.1593
 1121ERGO   ROH15727   7.210   0.829   5.448 -0.2334 -0.1075 -0.1135
 1121ERGO    R115728   6.985   0.874   5.614 -0.1285 -0.1804  0.0519
 1121ERGO    R215729   6.906   0.696   5.810  0.1104 -0.1761  0.1588
 1121ERGO    R315730   6.924   0.915   5.971  0.1311 -0.1292  0.0924
 1121ERGO    R415731   6.787   0.712   6.134 -0.0602 -0.0012  0.0888
 1121ERGO    R515732   6.717   0.915   6.093  0.0647  0.0188 -0.0202
 1121ERGO    C115733   6.734   0.927   6.474 -0.1401  0.1447 -0.0143
 1121ERGO    C215734   6.767   1.011   6.802 -0.2637 -0.0189 -0.0604
 1122ERGO   ROH15735   9.902   2.576   5.986 -0.0865  0.0027 -0.1002
 1122ERGO    R115736   9.969   2.406   6.203 -0.2163 -0.0505 -0.1006
 1122ERGO    R215737   9.824   2.178   6.263 -0.2351 -0.0846 -0.2620
 1122ERGO    R315738  10.068   2.058   6.245 -0.2089 -0.0515 -0.1309
 1122ERGO    R415739   9.899   1.861   6.381 -0.2649 -0.0913 -0.2620
 1122ERGO    R515740  10.090   1.938   6.450 -0.3174 -0.0775 -0.1352
 1122ERGO    C115741  10.170   1.565   6.433 -0.2577 -0.0642 -0.1390
 1122ERGO    C215742  10.337   1.304   6.571 -0.1820 -0.2442 -0.2222
 1123ERGO   ROH15743  17.067  18.815   6.635  0.0143  0.1509 -0.1898
 1123ERGO    R115744  16.959  19.073   6.679  0.0217  0.1282 -0.0295
 1123ERGO    R215745  16.777  19.126   6.880  0.0877  0.0279  0.0584
 1123ERGO    R315746  16.957  19.317   6.949  0.1064 -0.0011  0.0887
 1123ERGO    R415747  16.819  19.252   7.199  0.1372 -0.0625  0.0881
 1123ERGO    R515748  16.843  19.451   7.111  0.1358 -0.0404  0.1408
 1123ERGO    C115749  17.013  19.506   7.449  0.1833 -0.1421  0.1339
 1123ERGO    C215750  17.130  19.746   7.821 -0.1152  0.0713  0.0703
 1124ERGO   ROH15751   8.945   9.041   5.828  0.0849  0.0898  0.0016
 1124ERGO    R115752   8.880   9.137   6.086  0.0732 -0.0193  0.0403
 1124ERGO    R215753   8.803   8.970   6.293  0.1055 -0.1126 -0.0196
 1124ERGO    R315754   9.006   9.094   6.425  0.0884 -0.1278  0.0202
 1124ERGO    R415755   8.864   8.942   6.632  0.1167 -0.2139 -0.0299
 1124ERGO    R515756   8.911   9.155   6.636  0.0854 -0.2113  0.0409
 1124ERGO    C115757   9.090   9.042   6.953  0.1074 -0.2871  0.0014
 1124ERGO    C215758   9.382   9.027   7.168  0.1578  0.1530 -0.0771
 1125ERGO   ROH15759   9.196  18.882   5.577 -0.1363  0.1141  0.0902
 1125ERGO    R115760   9.025  18.783   5.780 -0.1326 -0.1208 -0.0170
 1125ERGO    R215761   9.004  18.514   5.839  0.1544 -0.1614 -0.0697
 1125ERGO    R315762   9.063  18.598   6.091 -0.0786 -0.1233 -0.0264
 1125ERGO    R415763   8.974  18.321   6.124  0.0298 -0.1591 -0.0817
 1125ERGO    R515764   8.896  18.496   6.228 -0.1327 -0.1946 -0.1484
 1125ERGO    C115765   9.011  18.288   6.527 -0.2614 -0.1220 -0.0480
 1125ERGO    C215766   9.149  18.200   6.877  0.4776 -0.0312 -0.1066
 1126ERGO   ROH15767   6.760  15.775   8.789  0.0258 -0.0368  0.0449
 1126ERGO    R115768   6.823  15.846   8.523  0.0797 -0.0535  0.0522
 1126ERGO    R215769   6.790  15.671   8.310 -0.0265 -0.0172  0.0317
 1126ERGO    R315770   6.643  15.876   8.208  0.1055  0.0878  0.0523
 1126ERGO    R415771   6.703  15.705   7.978 -0.0652  0.0494  0.0489
 1126ERGO    R515772   6.742  15.919   7.994  0.0929  0.0156  0.0373
 1126ERGO    C115773   6.515  15.917   7.688  0.0362  0.1867  0.0783
 1126ERGO    C215774   6.454  16.054   7.462 -0.2051  0.0965 -0.0346
 1127ERGO   ROH15775  16.857   8.452   9.537 -0.1931 -0.1461  0.0416
 1127ERGO    R115776  16.704   8.556   9.322 -0.1031 -0.0780  0.0108
 1127ERGO    R215777  16.818   8.637   9.084 -0.0169 -0.1124  0.0425
 1127ERGO    R315778  16.637   8.465   8.976 -0.0596 -0.0367 -0.0094
 1127ERGO    R415779  16.712   8.643   8.755  0.1534 -0.1256 -0.0141
 1127ERGO    R515780  16.509   8.600   8.825  0.0916  0.0029 -0.1056
 1127ERGO    C115781  16.480   8.484   8.463  0.2125 -0.0621 -0.0958
 1127ERGO    C215782  16.371   8.524   8.107  0.2115 -0.2922 -0.4869
 1128ERGO   ROH15783  10.776   6.174   9.728  0.2672  0.0894  0.0733
 1128ERGO    R115784  10.669   6.349   9.533  0.3603  0.1688  0.0962
 1128ERGO    R215785  10.827   6.518   9.382  0.5050 -0.2432 -0.2096
 1128ERGO    R315786  10.701   6.396   9.174 -0.0030 -0.1352  0.0134
 1128ERGO    R415787  10.733   6.674   9.089  0.3095 -0.1865 -0.1209
 1128ERGO    R515788  10.547   6.560   9.093  0.1184  0.0901  0.1972
 1128ERGO    C115789  10.560   6.651   8.722 -0.2812 -0.0520  0.1401
 1128ERGO    C215790  10.576   6.823   8.353  0.2938 -0.0610 -0.4015
 1129ERGO   ROH15791  11.434   7.309   6.028 -0.2442  0.0474 -0.1360
 1129ERGO    R115792  11.339   7.519   6.191 -0.2239  0.0524 -0.1320
 1129ERGO    R215793  11.389   7.532   6.463 -0.1548  0.0828 -0.1510
 1129ERGO    R315794  11.485   7.778   6.400 -0.1990  0.0909 -0.1940
 1129ERGO    R415795  11.512   7.760   6.691 -0.1296  0.1095 -0.1901
 1129ERGO    R515796  11.412   7.918   6.580 -0.1781  0.0934 -0.1816
 1129ERGO    C115797  11.673   8.125   6.765 -0.1563  0.1327 -0.2531
 1129ERGO    C215798  11.835   8.417   6.715  0.2171  0.0994 -0.0884
 1130ERGO   ROH15799  13.420   3.550   6.326  0.0489 -0.2523  0.2223
 1130ERGO    R115800  13.357   3.543   6.602  0.0404 -0.2658  0.2201
 1130ERGO    R215801  13.531   3.440   6.791  0.0834 -0.1691  0.2345
 1130ERGO    R315802  13.496   3.682   6.908 -0.0413 -0.1783  0.2176
 1130ERGO    R415803  13.417   3.489   7.114  0.0381 -0.2041  0.2239
 1130ERGO    R515804  13.298   3.657   7.041 -0.0380 -0.2653  0.2061
 1130ERGO    C115805  13.318   3.746   7.412 -0.1053 -0.2332  0.2018
 1130ERGO    C215806  13.170   3.890   7.751 -0.0682 -0.1380  0.1880
 1131ERGO   ROH15807   7.104  13.252   5.976  0.0982  0.1051  0.0159
 1131ERGO    R115808   7.124  13.130   6.231  0.0504  0.1719  0.0530
 1131ERGO    R215809   7.348  13.158   6.391  0.0612  0.1390  0.0511
 1131ERGO    R315810   7.165  13.242   6.575  0.0855  0.2610  0.0189
 1131ERGO    R415811   7.369  13.100   6.732 -0.1014  0.0254  0.0422
 1131ERGO    R515812   7.154  13.062   6.733 -0.1355  0.2299 -0.0335
 1131ERGO    C115813   7.210  13.145   7.102 -0.1733  0.0736  0.0069
 1131ERGO    C215814   7.297  13.357   7.326 -0.1059  0.3667 -0.0305
 1132ERGO   ROH15815  11.800  16.788   9.028  0.0189  0.1166  0.1393
 1132ERGO    R115816  11.788  16.673   8.770  0.1434  0.0654  0.1558
 1132ERGO    R215817  11.656  16.794   8.559 -0.0337 -0.1309  0.1517
 1132ERGO    R315818  11.896  16.765   8.435 -0.0038  0.1619  0.1327
 1132ERGO    R415819  11.715  16.857   8.224 -0.2543 -0.4622  0.0461
 1132ERGO    R515820  11.841  16.680   8.218  0.0897 -0.2403  0.2554
 1132ERGO    C115821  11.974  16.866   7.913 -0.3547 -0.3807 -0.0332
 1132ERGO    C215822  12.093  16.986   7.621  0.2292 -0.0991  0.0396
 1133ERGO   ROH15823   5.853   3.407   5.928  0.1039 -0.0743  0.0105
 1133ERGO    R115824   5.840   3.242   6.158  0.1232 -0.0998 -0.0082
 1133ERGO    R215825   6.018   3.265   6.368 -0.0013  0.0308  0.0761
 1133ERGO    R315826   5.792   3.291   6.515 -0.0933 -0.1663 -0.0253
 1133ERGO    R415827   6.001   3.225   6.710 -0.0853  0.1210  0.0840
 1133ERGO    R515828   5.811   3.121   6.683  0.0304 -0.0987  0.0376
 1133ERGO    C115829   5.778   3.224   7.049 -0.2206 -0.0115 -0.0066
 1133ERGO    C215830   5.822   3.324   7.311 -0.4099  0.3168  0.0182
 1134ERGO   ROH15831   3.418   3.131   6.032  0.0992 -0.1627 -0.1249
 1134ERGO    R115832   3.394   2.991   6.277 -0.0547 -0.1144 -0.1116
 1134ERGO    R215833   3.484   3.094   6.517 -0.0562 -0.1369 -0.1025
 1134ERGO    R315834   3.229   3.044   6.597 -0.1100  0.0317 -0.1630
 1134ERGO    R415835   3.394   2.985   6.833 -0.1849 -0.2308 -0.1703
 1134ERGO    R515836   3.248   2.852   6.740 -0.2857 -0.0624 -0.2609
 1134ERGO    C115837   3.103   2.874   7.092 -0.3103 -0.1271 -0.2666
 1134ERGO    C215838   2.925   2.710   7.262  0.0754 -0.0102  0.1282
 1135ERGO   ROH15839  16.777  15.563   9.555 -0.0446  0.0203  0.2093
 1135ERGO    R115840  16.677  15.743   9.361 -0.0665  0.0011  0.2079
 1135ERGO    R215841  16.705  16.016   9.384  0.0169 -0.0184  0.1366
 1135ERGO    R315842  16.817  15.994   9.137 -0.0895 -0.0837  0.0892
 1135ERGO    R415843  16.679  16.255   9.135  0.2128  0.1141  0.2361
 1135ERGO    R515844  16.654  16.092   8.990 -0.0412  0.1738  0.1807
 1135ERGO    C115845  16.768  16.373   8.758  0.2269  0.1298  0.2497
 1135ERGO    C215846  16.681  16.431   8.489 -0.1690  0.1090  0.1851
 1136ERGO   ROH15847   8.112   2.805   5.696 -0.0360  0.0915  0.1783
 1136ERGO    R115848   7.945   2.705   5.901 -0.1147  0.1679  0.1523
 1136ERGO    R215849   8.000   2.472   6.038 -0.3451  0.0355  0.0276
 1136ERGO    R315850   7.977   2.633   6.256 -0.1389 -0.0459  0.1124
 1136ERGO    R415851   7.939   2.362   6.360 -0.2311 -0.0747  0.0118
 1136ERGO    R515852   7.804   2.531   6.387 -0.1252 -0.0106  0.1595
 1136ERGO    C115853   7.881   2.448   6.752  0.0289 -0.2153  0.0822
 1136ERGO    C215854   7.938   2.439   7.047 -0.1695  0.0444 -0.2711
 1137ERGO   ROH15855   3.612  10.389   6.193  0.1297  0.0438 -0.1012
 1137ERGO    R115856   3.614  10.413   6.475  0.0849 -0.1281 -0.0851
 1137ERGO    R215857   3.814  10.305   6.632  0.2094  0.0159 -0.1432
 1137ERGO    R315858   3.832  10.559   6.726 -0.1040 -0.0159  0.0162
 1137ERGO    R415859   3.995  10.400   6.910  0.0726  0.0614 -0.0688
 1137ERGO    R515860   3.833  10.534   6.965 -0.0969 -0.1642  0.0020
 1137ERGO    C115861   4.118  10.693   7.161 -0.3013  0.0581  0.1243
 1137ERGO    C215862   4.321  10.685   7.528 -0.2330  0.2744  0.0456
 1138ERGO   ROH15863  16.156   2.189   6.062  0.1000  0.1406 -0.1793
 1138ERGO    R115864  16.077   2.337   6.290  0.1908  0.0659 -0.0990
 1138ERGO    R215865  16.213   2.323   6.531  0.3435  0.0583 -0.1851
 1138ERGO    R315866  16.225   2.593   6.503  0.2370  0.0691 -0.1344
 1138ERGO    R415867  16.241   2.547   6.792  0.2617  0.0199 -0.1427
 1138ERGO    R515868  16.100   2.677   6.689  0.2076 -0.0152 -0.1150
 1138ERGO    C115869  16.269   2.931   6.918  0.1143  0.0077 -0.0705
 1138ERGO    C215870  16.339   3.143   7.065  0.0059 -0.0763  0.0811
 1139ERGO   ROH15871  10.374  11.045   5.623  0.1147 -0.3327  0.1169
 1139ERGO    R115872  10.212  11.059   5.855  0.1073 -0.1981  0.1040
 1139ERGO    R215873  10.082  10.839   5.959 -0.0105 -0.1084  0.1461
 1139ERGO    R315874  10.213  10.910   6.187  0.0111 -0.1229  0.1385
 1139ERGO    R415875  10.148  10.627   6.225  0.3051 -0.2144 -0.0107
 1139ERGO    R515876  10.100  10.790   6.360  0.1975 -0.3450  0.1116
 1139ERGO    C115877  10.308  10.571   6.593  0.5094 -0.2897 -0.1092
 1139ERGO    C215878  10.361  10.236   6.675  0.0484  0.0582 -0.0929
 1140ERGO   ROH15879   1.725  18.837   6.135  0.1236 -0.0200 -0.0928
 1140ERGO    R115880   1.918  18.963   6.299  0.1123  0.0328 -0.1195
 1140ERGO    R215881   1.848  19.115   6.520  0.0978  0.0841 -0.1572
 1140ERGO    R315882   2.018  18.947   6.649  0.1043  0.1249 -0.1131
 1140ERGO    R415883   1.918  19.126   6.858  0.0087  0.0973 -0.1392
 1140ERGO    R515884   2.127  19.085   6.812  0.0290  0.1477 -0.0841
 1140ERGO    C115885   2.118  18.974   7.176 -0.0370  0.1429 -0.0873
 1140ERGO    C215886   2.126  19.122   7.592 -0.0217  0.1024  0.2006
 1141ERGO   ROH15887  15.619   6.616   9.358  0.2080  0.2504  0.1475
 1141ERGO    R115888  15.693   6.560   9.090  0.0412  0.1309  0.1261
 1141ERGO    R215889  15.507   6.531   8.887 -0.0750  0.2123  0.2255
 1141ERGO    R315890  15.658   6.723   8.767  0.0052  0.0750  0.1008
 1141ERGO    R415891  15.482   6.622   8.555 -0.1687  0.1340  0.2098
 1141ERGO    R515892  15.699   6.636   8.547 -0.1575 -0.0200  0.1033
 1141ERGO    C115893  15.608   6.854   8.248 -0.1480 -0.0404  0.0835
 1141ERGO    C215894  15.588   7.004   7.957  0.4250 -0.2286 -0.2098
 1142ERGO   ROH15895   5.761  14.272   6.137 -0.3851 -0.2694  0.0118
 1142ERGO    R115896   5.706  14.321   6.410 -0.1897 -0.2573  0.0499
 1142ERGO    R215897   5.843  14.195   6.614  0.0470 -0.1498 -0.0406
 1142ERGO    R315898   5.889  14.450   6.697 -0.0252 -0.1110 -0.1174
 1142ERGO    R415899   6.036  14.282   6.888 -0.0505 -0.0187 -0.0122
 1142ERGO    R515900   5.889  14.435   6.936 -0.0947 -0.0271 -0.1109
 1142ERGO    C115901   6.191  14.571   7.125 -0.1752  0.0942 -0.0678
 1142ERGO    C215902   6.349  14.636   7.311 -0.0564 -0.2724 -0.1297
 1143ERGO   ROH15903  10.413  13.733   5.689 -0.0686 -0.0558 -0.0750
 1143ERGO    R115904  10.502  13.813   5.945  0.1730 -0.2346 -0.0977
 1143ERGO    R215905  10.327  13.870   6.152  0.3280  0.2523 -0.0816
 1143ERGO    R315906  10.477  13.686   6.285 -0.1178 -0.1238 -0.0762
 1143ERGO    R415907  10.339  13.838   6.496  0.4456  0.4075 -0.0709
 1143ERGO    R515908  10.554  13.803   6.480  0.3485 -0.2326 -0.1880
 1143ERGO    C115909  10.487  13.646   6.821  0.0954  0.1450 -0.0596
 1143ERGO    C215910  10.378  13.730   7.122 -0.4107 -0.4108 -0.2200
 1144ERGO   ROH15911   3.124  19.173   5.757 -0.2346 -0.0153  0.3032
 1144ERGO    R115912   3.154  19.190   6.038 -0.1895 -0.0066  0.2980
 1144ERGO    R215913   3.326  19.025   6.179 -0.0734  0.0809  0.2623
 1144ERGO    R315914   3.425  19.261   6.271 -0.1826  0.1319  0.2478
 1144ERGO    R415915   3.384  19.099   6.511  0.1313  0.0378  0.2367
 1144ERGO    R515916   3.307  19.299   6.476 -0.0508 -0.0129  0.3506
 1144ERGO    C115917   3.512  19.363   6.791  0.1481  0.0605  0.2082
 1144ERGO    C215918   3.565  19.299   7.148  0.1181 -0.1200  0.0121
 1145ERGO   ROH15919  17.707   9.011   9.287  0.1122  0.0648 -0.1570
 1145ERGO    R115920  17.842   9.026   9.038  0.0598 -0.0175 -0.1915
 1145ERGO    R215921  17.737   8.920   8.805 -0.1192  0.1486 -0.1910
 1145ERGO    R315922  17.778   9.172   8.711  0.1203  0.1314 -0.1376
 1145ERGO    R415923  17.784   9.001   8.473 -0.0604  0.1753 -0.1755
 1145ERGO    R515924  17.937   9.144   8.534  0.0834  0.0144 -0.1527
 1145ERGO    C115925  17.850   9.285   8.191  0.1987  0.1746 -0.1163
 1145ERGO    C215926  17.703   9.279   7.935 -0.0786 -0.0291  0.3752
 1146ERGO   ROH15927  18.832   8.146   6.266 -0.0925  0.2152 -0.1078
 1146ERGO    R115928  18.895   8.354   6.446 -0.2319  0.2884 -0.1445
 1146ERGO    R215929  18.702   8.523   6.551 -0.4086 -0.0888  0.1462
 1146ERGO    R315930  18.807   8.443   6.788  0.0582  0.0468 -0.0008
 1146ERGO    R415931  18.771   8.732   6.818 -0.8130 -0.0420  0.2218
 1146ERGO    R515932  18.955   8.620   6.852 -0.4131  0.4791 -0.0215
 1146ERGO    C115933  18.910   8.777   7.196 -0.6101  0.1126  0.1277
 1146ERGO    C215934  18.853   9.019   7.327 -0.1218 -0.1531  0.0032
 1147ERGO   ROH15935   7.944  14.060   5.902  0.0410  0.0176 -0.0221
 1147ERGO    R115936   8.036  13.898   6.115  0.0830 -0.0453 -0.0857
 1147ERGO    R215937   8.300  13.892   6.194  0.1035 -0.0642 -0.1320
 1147ERGO    R315938   8.195  13.952   6.438  0.1391 -0.1342 -0.1008
 1147ERGO    R415939   8.444  13.807   6.497  0.2052 -0.0269 -0.1702
 1147ERGO    R515940   8.244  13.759   6.572  0.2508 -0.1184 -0.1279
 1147ERGO    C115941   8.429  13.812   6.902  0.2979 -0.0709 -0.1632
 1147ERGO    C215942   8.660  13.815   7.163  0.1191 -0.0544  0.1467
 1148ERGO   ROH15943  15.601  16.515   6.283 -0.2412 -0.0253 -0.0455
 1148ERGO    R115944  15.508  16.331   6.477 -0.0360 -0.0338  0.0484
 1148ERGO    R215945  15.593  16.336   6.739 -0.0488  0.2026  0.0531
 1148ERGO    R315946  15.326  16.347   6.792 -0.0669 -0.0753  0.0317
 1148ERGO    R415947  15.439  16.186   7.010  0.0990  0.1453  0.1060
 1148ERGO    R515948  15.274  16.130   6.879  0.1698 -0.0970  0.1214
 1148ERGO    C115949  15.099  16.110   7.217  0.1680 -0.1488  0.1168
 1148ERGO    C215950  14.892  16.011   7.432 -0.2840  0.3083  0.2389
 1149ERGO   ROH15951   8.163   8.671   5.566  0.0064 -0.0428  0.3239
 1149ERGO    R115952   8.037   8.447   5.684  0.0385 -0.0173  0.4027
 1149ERGO    R215953   8.025   8.409   5.958 -0.1983  0.2244  0.4203
 1149ERGO    R315954   7.758   8.389   5.911 -0.1468  0.0035  0.1881
 1149ERGO    R415955   7.796   8.264   6.173 -0.2592  0.0502  0.2432
 1149ERGO    R515956   7.697   8.176   6.000 -0.0432 -0.0489  0.1544
 1149ERGO    C115957   7.412   8.162   6.253 -0.2463 -0.2587 -0.0779
 1149ERGO    C215958   7.220   7.979   6.448  0.2409 -0.1391 -0.2228
 1150ERGO   ROH15959   9.788   7.375   5.631 -0.3307  0.1191  0.0590
 1150ERGO    R115960   9.908   7.257   5.858 -0.2256  0.0578 -0.0275
 1150ERGO    R215961  10.079   7.396   6.026 -0.1798  0.0241 -0.0463
 1150ERGO    R315962   9.906   7.313   6.218 -0.0934 -0.0656 -0.0064
 1150ERGO    R415963  10.119   7.452   6.364 -0.1698  0.1140 -0.0622
 1150ERGO    R515964  10.047   7.250   6.401 -0.0203  0.0677 -0.0150
 1150ERGO    C115965   9.979   7.407   6.742 -0.0829  0.0822 -0.0339
 1150ERGO    C215966   9.887   7.524   7.101  0.0136  0.4658 -0.0915
 1151ERGO   ROH15967  17.180  10.331   6.316 -0.0058 -0.1027 -0.0968
 1151ERGO    R115968  17.232  10.131   6.509 -0.0722 -0.1351 -0.1128
 1151ERGO    R215969  17.453   9.965   6.497 -0.0850 -0.1522 -0.0809
 1151ERGO    R315970  17.495  10.056   6.749 -0.1393 -0.1944 -0.0564
 1151ERGO    R415971  17.673   9.825   6.724  0.2167  0.0835 -0.2194
 1151ERGO    R515972  17.525   9.858   6.880  0.2136 -0.2122 -0.1513
 1151ERGO    C115973  17.840   9.829   7.093  0.3414  0.1812 -0.2770
 1151ERGO    C215974  17.990   9.883   7.372  0.2156  0.1019  0.0049
 1152ERGO   ROH15975   3.874   6.316   9.009  0.1495  0.1575  0.0557
 1152ERGO    R115976   3.756   6.422   8.775  0.1061  0.1715  0.0844
 1152ERGO    R215977   3.803   6.680   8.688  0.2435  0.1117 -0.0125
 1152ERGO    R315978   3.872   6.555   8.457  0.0394 -0.0023 -0.0152
 1152ERGO    R415979   3.776   6.820   8.373  0.3645  0.1259 -0.0174
 1152ERGO    R515980   3.707   6.627   8.299  0.0966  0.2035  0.0112
 1152ERGO    C115981   3.826   6.785   7.973  0.2433  0.0272 -0.0228
 1152ERGO    C215982   3.878   7.145   7.759  0.1889  0.3040 -0.1218
 1153ERGO   ROH15983   4.723  10.379   6.176 -0.2077  0.0428  0.1406
 1153ERGO    R115984   4.907  10.408   6.390 -0.1174 -0.0972  0.0839
 1153ERGO    R215985   4.958  10.651   6.510  0.1551 -0.1227  0.0316
 1153ERGO    R315986   4.894  10.516   6.737  0.0860 -0.0226  0.0679
 1153ERGO    R415987   5.049  10.748   6.829  0.1830 -0.0677  0.0063
 1153ERGO    R515988   5.088  10.539   6.876  0.0861 -0.0671  0.0703
 1153ERGO    C115989   5.042  10.677   7.228  0.1343  0.0583  0.0257
 1153ERGO    C215990   4.851  10.761   7.513  0.0405 -0.3203  0.0677
 1154ERGO   ROH15991  15.837  14.538   5.749  0.1227  0.0530  0.0828
 1154ERGO    R115992  15.651  14.431   5.933  0.0423  0.0717  0.0120
 1154ERGO    R215993  15.727  14.313   6.171 -0.0482 -0.0957 -0.0419
 1154ERGO    R315994  15.553  14.493   6.278  0.0503 -0.0456  0.0363
 1154ERGO    R415995  15.579  14.283   6.482 -0.0342 -0.1342 -0.0387
 1154ERGO    R515996  15.393  14.358   6.395 -0.0067 -0.0101  0.0024
 1154ERGO    C115997  15.329  14.435   6.763  0.0662 -0.1096  0.0365
 1154ERGO    C215998  15.442  14.486   7.098 -0.1329  0.3410 -0.1072
 1155ERGO   ROH15999  12.340   1.197   9.491 -0.0251 -0.0225  0.1002
 1155ERGO    R116000  12.248   1.341   9.265  0.0451  0.0003  0.0849
 1155ERGO    R216001  12.413   1.410   9.054  0.1075  0.0004  0.1284
 1155ERGO    R316002  12.223   1.283   8.907  0.1338  0.0230  0.0759
 1155ERGO    R416003  12.393   1.415   8.709  0.0125  0.2597  0.1360
 1155ERGO    R516004  12.177   1.433   8.726  0.0116  0.1395  0.2054
 1155ERGO    C116005  12.204   1.300   8.370 -0.0182  0.4318  0.0913
 1155ERGO    C216006  12.243   1.324   8.047 -0.4492  0.2791 -0.1708
 1156ERGO   ROH16007  17.997  12.885   5.897 -0.0387  0.0905  0.1286
 1156ERGO    R116008  18.070  12.855   6.169  0.0196  0.0483  0.1091
 1156ERGO    R216009  18.092  13.070   6.341  0.0470  0.0225  0.1421
 1156ERGO    R316010  17.918  12.925   6.492  0.0831 -0.0106  0.1511
 1156ERGO    R416011  18.052  13.103   6.683 -0.1048  0.1705  0.1107
 1156ERGO    R516012  18.036  12.886   6.697  0.0286  0.1688  0.2157
 1156ERGO    C116013  17.865  12.987   7.023 -0.1594  0.2255  0.1008
 1156ERGO    C216014  17.742  12.943   7.261  0.1282 -0.2128 -0.4501
 1157ERGO   ROH16015   0.366  11.482   9.092  0.3651  0.1296 -0.0144
 1157ERGO    R116016   0.487  11.591   8.860  0.3199 -0.0038 -0.1029
 1157ERGO    R216017   0.556  11.437   8.641  0.1584 -0.1117 -0.0838
 1157ERGO    R316018   0.404  11.617   8.507  0.1831 -0.0869 -0.0767
 1157ERGO    R416019   0.570  11.494   8.301  0.1243 -0.1381 -0.0889
 1157ERGO    R516020   0.550  11.707   8.340  0.1790 -0.1328 -0.1023
 1157ERGO    C116021   0.435  11.696   7.976  0.1277 -0.1303 -0.0853
 1157ERGO    C216022   0.395  11.926   7.772  0.0891 -0.2067  0.0831
 1158ERGO   ROH16023  12.351  18.558   9.344 -0.0108  0.0330 -0.0091
 1158ERGO    R116024  12.383  18.669   9.086  0.1490 -0.0759 -0.0381
 1158ERGO    R216025  12.459  18.518   8.868  0.0488 -0.2199  0.0213
 1158ERGO    R316026  12.233  18.621   8.757  0.1672 -0.0342 -0.0513
 1158ERGO    R416027  12.366  18.481   8.537  0.0543 -0.2512  0.0236
 1158ERGO    R516028  12.300  18.688   8.537  0.2634 -0.1855 -0.0671
 1158ERGO    C116029  12.099  18.556   8.241  0.1685 -0.0954 -0.0432
 1158ERGO    C216030  12.060  18.348   7.961  0.3440 -0.1470 -0.2624
 1159ERGO   ROH16031   5.583  13.236   6.475 -0.0399  0.1597 -0.1120
 1159ERGO    R116032   5.528  13.306   6.743  0.0508  0.2307 -0.1118
 1159ERGO    R216033   5.349  13.505   6.812 -0.1371  0.0592 -0.1006
 1159ERGO    R316034   5.237  13.308   6.961  0.1837  0.0023  0.0729
 1159ERGO    R416035   5.189  13.552   7.115 -0.1904  0.0642 -0.1289
 1159ERGO    R516036   5.284  13.370   7.187  0.1050  0.2682  0.0199
 1159ERGO    C116037   4.992  13.394   7.432  0.0797  0.0139  0.0175
 1159ERGO    C216038   4.800  13.487   7.665  0.0281  0.2595 -0.1615
 1160ERGO   ROH16039   1.253   3.981   9.264  0.1004 -0.0189 -0.0880
 1160ERGO    R116040   1.316   4.138   9.038  0.0440  0.0969 -0.0241
 1160ERGO    R216041   1.428   4.032   8.809  0.1266  0.2379 -0.0508
 1160ERGO    R316042   1.216   4.151   8.688  0.0770  0.1706 -0.0310
 1160ERGO    R416043   1.433   4.169   8.492 -0.0169  0.0227 -0.1493
 1160ERGO    R516044   1.311   4.334   8.567  0.0317  0.0825 -0.2028
 1160ERGO    C116045   1.237   4.362   8.194 -0.1470 -0.1657 -0.1881
 1160ERGO    C216046   1.231   4.547   7.791 -0.0290  0.0241  0.1471
 1161ERGO   ROH16047   1.418  12.088   6.345  0.1734  0.1268  0.0830
 1161ERGO    R116048   1.345  12.035   6.613  0.0242  0.0799  0.0336
 1161ERGO    R216049   1.295  12.236   6.797 -0.0836  0.0474  0.0393
 1161ERGO    R316050   1.059  12.105   6.828 -0.0989  0.0359 -0.1135
 1161ERGO    R416051   1.082  12.274   7.066 -0.2288 -0.0120 -0.0654
 1161ERGO    R516052   1.047  12.059   7.063 -0.2232 -0.0127 -0.1282
 1161ERGO    C116053   0.736  12.173   7.252 -0.3276 -0.0574 -0.2700
 1161ERGO    C216054   0.566  12.398   7.527  0.0231 -0.1098  0.0815
 1162ERGO   ROH16055   0.695  17.824   6.341  0.1387 -0.2335  0.0048
 1162ERGO    R116056   0.670  17.819   6.623  0.0715 -0.0051  0.0059
 1162ERGO    R216057   0.493  17.651   6.753  0.0121  0.1258  0.1002
 1162ERGO    R316058   0.716  17.573   6.887 -0.0312  0.1957  0.2127
 1162ERGO    R416059   0.504  17.578   7.090 -0.1541  0.0373  0.0873
 1162ERGO    R516060   0.697  17.680   7.101 -0.2094  0.1262  0.2316
 1162ERGO    C116061   0.720  17.462   7.413 -0.2915  0.0511  0.1853
 1162ERGO    C216062   0.677  17.452   7.851  0.0683  0.1420  0.1719
 1163ERGO   ROH16063   0.521  15.629   6.350 -0.0315 -0.1981 -0.0561
 1163ERGO    R116064   0.597  15.488   6.583 -0.2443 -0.2362 -0.0087
 1163ERGO    R216065   0.772  15.592   6.770  0.0623 -0.5040 -0.1410
 1163ERGO    R316066   0.569  15.537   6.942  0.0017  0.0302 -0.0215
 1163ERGO    R416067   0.810  15.538   7.109  0.1100 -0.5098 -0.1464
 1163ERGO    R516068   0.662  15.378   7.095 -0.2967 -0.1676 -0.0325
 1163ERGO    C116069   0.641  15.455   7.468  0.0810 -0.0114 -0.0373
 1163ERGO    C216070   0.497  15.411   7.717  0.1717 -0.2469 -0.0906
 1164ERGO   ROH16071   2.717   9.569   5.994  0.1374  0.2111  0.0246
 1164ERGO    R116072   2.647   9.419   6.223  0.0396  0.0900 -0.0841
 1164ERGO    R216073   2.746   9.476   6.474  0.0335 -0.1239 -0.0379
 1164ERGO    R316074   2.483   9.483   6.542  0.0290 -0.0504 -0.0581
 1164ERGO    R416075   2.624   9.443   6.796  0.0155 -0.0546 -0.0368
 1164ERGO    R516076   2.462   9.321   6.716 -0.0150 -0.0295 -0.0358
 1164ERGO    C116077   2.306   9.431   7.047  0.0007  0.0546 -0.0550
 1164ERGO    C216078   2.226   9.447   7.381  0.0867 -0.0235  0.1524
 1165ERGO   ROH16079  15.685   5.347   6.780 -0.2605  0.0572  0.1743
 1165ERGO    R116080  15.887   5.432   6.959 -0.1497  0.0165  0.0712
 1165ERGO    R216081  15.927   5.313   7.206 -0.1213  0.0812  0.0997
 1165ERGO    R316082  16.181   5.286   7.114 -0.1689 -0.0828  0.0138
 1165ERGO    R416083  16.203   5.241   7.401 -0.0503  0.2376  0.0581
 1165ERGO    R516084  16.318   5.383   7.284 -0.0684  0.0791 -0.1560
 1165ERGO    C116085  16.602   5.173   7.429 -0.0537  0.1748 -0.0468
 1165ERGO    C216086  16.789   5.145   7.737 -0.1634  0.2527 -0.0452
 1166ERGO   ROH16087  10.299   6.766   6.536  0.0148 -0.0698  0.0179
 1166ERGO    R116088  10.304   6.542   6.708  0.1696 -0.0864 -0.0070
 1166ERGO    R216089  10.504   6.502   6.895  0.0620  0.1679  0.1689
 1166ERGO    R316090  10.295   6.483   7.068 -0.0744 -0.1410 -0.0206
 1166ERGO    R416091  10.525   6.380   7.218 -0.1208 -0.0849  0.0891
 1166ERGO    R516092  10.335   6.279   7.187 -0.0180 -0.2111 -0.1575
 1166ERGO    C116093  10.341   6.292   7.568 -0.3552 -0.5220 -0.1351
 1166ERGO    C216094  10.489   6.393   7.828 -0.4681 -0.0776  0.2765
 1167ERGO   ROH16095   3.305   5.067   6.113 -0.2652  0.2513 -0.1146
 1167ERGO    R116096   3.255   4.913   6.345 -0.1484  0.1159 -0.1794
 1167ERGO    R216097   3.273   5.017   6.600 -0.2264  0.0216 -0.1398
 1167ERGO    R316098   3.020   4.920   6.622 -0.1547 -0.1806 -0.1720
 1167ERGO    R416099   3.106   4.968   6.899 -0.3162  0.1509 -0.1672
 1167ERGO    R516100   3.026   4.782   6.818 -0.1175  0.0006 -0.0383
 1167ERGO    C116101   2.771   4.849   7.093 -0.3011  0.0364 -0.2134
 1167ERGO    C216102   2.668   5.134   7.265  0.0023 -0.0845  0.0239
 1168ERGO   ROH16103   8.484   9.871   6.916 -0.1263 -0.2603  0.0840
 1168ERGO    R116104   8.638   9.741   7.115  0.0176 -0.2020  0.0133
 1168ERGO    R216105   8.543   9.526   7.258  0.0891 -0.1171  0.1988
 1168ERGO    R316106   8.771   9.407   7.170 -0.0130 -0.2074  0.0497
 1168ERGO    R416107   8.661   9.219   7.366  0.0841 -0.1275  0.1742
 1168ERGO    R516108   8.863   9.302   7.364  0.1071 -0.1902  0.0003
 1168ERGO    C116109   8.944   8.930   7.346 -0.0147 -0.2182  0.0199
 1168ERGO    C216110   9.093   8.532   7.453 -0.1015 -0.3268  0.1701
 1169ERGO   ROH16111  17.382  11.216   6.029  0.0686 -0.0055  0.0544
 1169ERGO    R116112  17.327  11.385   6.249 -0.2402 -0.0182 -0.0082
 1169ERGO    R216113  17.118  11.339   6.424 -0.0960 -0.4019  0.0739
 1169ERGO    R316114  17.315  11.353   6.611 -0.0582  0.1164  0.0115
 1169ERGO    R416115  17.069  11.423   6.755 -0.1544 -0.2280  0.0223
 1169ERGO    R516116  17.253  11.539   6.748 -0.3689  0.1170 -0.1209
 1169ERGO    C116117  17.225  11.484   7.124 -0.1529  0.3599 -0.0663
 1169ERGO    C216118  17.141  11.427   7.497  0.1961  0.1983 -0.1279
 1170ERGO   ROH16119   1.625  17.359   6.295 -0.0327 -0.0488 -0.0227
 1170ERGO    R116120   1.659  17.435   6.565  0.1105 -0.1356 -0.0158
 1170ERGO    R216121   1.905  17.430   6.691  0.2267  0.0797 -0.2277
 1170ERGO    R316122   1.847  17.689   6.746 -0.0187 -0.0078 -0.0592
 1170ERGO    R416123   2.000  17.597   6.978  0.2972  0.0545 -0.2357
 1170ERGO    R516124   1.804  17.692   6.982  0.1882 -0.1656 -0.0162
 1170ERGO    C116125   2.000  17.938   7.197  0.1079 -0.0424 -0.0822
 1170ERGO    C216126   2.046  18.062   7.512  0.0190  0.3751 -0.0716
 1171ERGO   ROH16127   9.493   4.467   6.191  0.2698 -0.1498  0.0604
 1171ERGO    R116128   9.587   4.539   6.447  0.0972 -0.1537  0.1268
 1171ERGO    R216129   9.676   4.794   6.507  0.1351 -0.1742  0.1686
 1171ERGO    R316130   9.492   4.777   6.706 -0.0262 -0.0961  0.0290
 1171ERGO    R416131   9.711   4.938   6.819 -0.1270 -0.0396  0.1384
 1171ERGO    R516132   9.624   4.757   6.906 -0.1881 -0.0046  0.1453
 1171ERGO    C116133   9.559   5.005   7.189 -0.4311  0.1122 -0.0102
 1171ERGO    C216134   9.747   5.188   7.320 -0.3267 -0.1001 -0.2270
 1172ERGO   ROH16135  13.428  12.901   5.915 -0.0662  0.1722 -0.1314
 1172ERGO    R116136  13.550  12.901   6.170 -0.1194  0.0280 -0.1047
 1172ERGO    R216137  13.715  13.106   6.257  0.0112 -0.1079 -0.0244
 1172ERGO    R316138  13.543  13.112   6.467 -0.0300 -0.0304 -0.0605
 1172ERGO    R416139  13.807  13.150   6.587 -0.0440 -0.0868 -0.0119
 1172ERGO    R516140  13.660  13.000   6.643 -0.0971 -0.0378 -0.0207
 1172ERGO    C116141  13.699  13.182   6.976 -0.1149 -0.0018 -0.0385
 1172ERGO    C216142  13.751  13.150   7.429  0.0147 -0.3951 -0.0547
 1173ERGO   ROH16143  16.925  17.194   7.524 -0.1060  0.4634 -0.1550
 1173ERGO    R116144  17.196  17.165   7.446 -0.0962  0.1723 -0.0257
 1173ERGO    R216145  17.381  17.368   7.473  0.0268  0.0984 -0.2647
 1173ERGO    R316146  17.521  17.179   7.609 -0.1432  0.2022  0.0644
 1173ERGO    R416147  17.714  17.396   7.563  0.0537 -0.0479 -0.3168
 1173ERGO    R516148  17.740  17.185   7.512 -0.1357 -0.1669  0.0475
 1173ERGO    C116149  18.038  17.234   7.744 -0.0901 -0.0357 -0.0381
 1173ERGO    C216150  18.405  17.322   7.769 -0.1161 -0.1532  0.4237
 1174ERGO   ROH16151  14.674   5.302   6.576 -0.3187 -0.0007  0.0722
 1174ERGO    R116152  14.775   5.211   6.825 -0.2488  0.0364  0.0573
 1174ERGO    R216153  14.651   5.268   7.065 -0.3382 -0.1616  0.0596
 1174ERGO    R316154  14.657   4.998   7.095 -0.0536 -0.1671 -0.0151
 1174ERGO    R416155  14.657   5.103   7.369 -0.2147 -0.2441  0.0140
 1174ERGO    R516156  14.800   4.962   7.285 -0.0473 -0.0680 -0.0013
 1174ERGO    C116157  14.666   4.754   7.574  0.1245 -0.2974 -0.0827
 1174ERGO    C216158  14.506   4.721   7.806 -0.2000  0.2981  0.1324
 1175ERGO   ROH16159  19.119   8.477   9.132 -0.3827 -0.0052 -0.0954
 1175ERGO    R116160  19.021   8.556   8.879 -0.1938  0.0533 -0.1521
 1175ERGO    R216161  19.179   8.681   8.690 -0.0250  0.0007 -0.0465
 1175ERGO    R316162  19.094   8.479   8.531 -0.0109  0.0475 -0.1139
 1175ERGO    R416163  19.238   8.659   8.351  0.1646  0.0126 -0.0152
 1175ERGO    R516164  19.035   8.586   8.325  0.1489  0.0920 -0.1395
 1175ERGO    C116165  19.193   8.456   8.003  0.2882  0.0637 -0.0602
 1175ERGO    C216166  19.138   8.419   7.606  0.2193  0.1507  0.1393
 1176ERGO   ROH16167   9.071  11.934   8.936  0.3083  0.2753  0.2329
 1176ERGO    R116168   9.191  11.873   8.687  0.1556  0.1459  0.1893
 1176ERGO    R216169   9.193  11.618   8.581 -0.0705  0.1234  0.2321
 1176ERGO    R316170   9.081  11.740   8.366 -0.0808  0.1640  0.2611
 1176ERGO    R416171   9.195  11.492   8.259 -0.2006  0.1190  0.2330
 1176ERGO    R516172   9.232  11.694   8.186 -0.1442  0.1054  0.2223
 1176ERGO    C116173   9.091  11.534   7.870 -0.2860  0.1546  0.2608
 1176ERGO    C216174   9.076  11.415   7.618  0.2440 -0.0763 -0.0235
 1177ERGO   ROH16175  12.038  15.090   5.690  0.0034  0.1882  0.1196
 1177ERGO    R116176  11.994  15.110   5.969  0.0608  0.0736  0.1376
 1177ERGO    R216177  12.043  14.901   6.143  0.1494  0.0201  0.0488
 1177ERGO    R316178  12.195  15.086   6.271  0.1341  0.0083  0.0843
 1177ERGO    R416179  12.109  14.901   6.482  0.0090  0.0556  0.0768
 1177ERGO    R516180  12.085  15.118   6.482  0.0528  0.0611  0.0347
 1177ERGO    C116181  12.290  15.075   6.800 -0.0871  0.0652  0.1264
 1177ERGO    C216182  12.329  15.009   7.087 -0.4413  0.1018  0.0008
 1178ERGO   ROH16183   3.300   0.421   9.281  0.0774 -0.5033 -0.0064
 1178ERGO    R116184   3.076   0.390   9.110  0.0958 -0.4262 -0.0426
 1178ERGO    R216185   3.029   0.558   8.895  0.0906 -0.2988  0.0667
 1178ERGO    R316186   3.020   0.324   8.757  0.1256 -0.2095 -0.0926
 1178ERGO    R416187   2.922   0.524   8.568  0.0147 -0.0877  0.0672
 1178ERGO    R516188   2.822   0.339   8.624  0.0787 -0.1654 -0.0309
 1178ERGO    C116189   2.852   0.285   8.248  0.0033  0.1190 -0.0819
 1178ERGO    C216190   2.716   0.048   7.978  0.1529  0.0742 -0.0897
 1179ERGO   ROH16191   4.876   7.130   7.192 -0.0048  0.1553 -0.0879
 1179ERGO    R116192   4.699   7.058   6.983 -0.0170 -0.0379 -0.0131
 1179ERGO    R216193   4.558   6.820   6.983 -0.1148  0.0149  0.2782
 1179ERGO    R316194   4.344   6.984   6.952 -0.0448  0.0663  0.0536
 1179ERGO    R416195   4.234   6.714   6.927 -0.1141  0.0865  0.1368
 1179ERGO    R516196   4.210   6.877   6.785  0.0251  0.0155  0.0300
 1179ERGO    C116197   3.844   6.807   6.865 -0.0481  0.1765 -0.1564
 1179ERGO    C216198   3.589   6.580   6.858 -0.1272  0.0197  0.1961
 1180ERGO   ROH16199   1.710   9.383   5.802 -0.0955 -0.0844  0.0910
 1180ERGO    R116200   1.668   9.423   6.079 -0.0696 -0.1441  0.1042
 1180ERGO    R216201   1.554   9.653   6.181  0.2324 -0.0250  0.1904
 1180ERGO    R316202   1.383   9.478   6.298 -0.0221  0.1547  0.0942
 1180ERGO    R416203   1.402   9.701   6.487  0.3041  0.0225  0.2182
 1180ERGO    R516204   1.436   9.490   6.531 -0.0004 -0.0532  0.1003
 1180ERGO    C116205   1.153   9.565   6.776  0.1070  0.2187  0.1440
 1180ERGO    C216206   1.037   9.561   7.108  0.1162 -0.4053  0.2569
 1181ERGO   ROH16207  19.007   1.163   9.811  0.0129  0.1819 -0.1395
 1181ERGO    R116208  18.978   1.044   9.556 -0.0861  0.0672 -0.0759
 1181ERGO    R216209  18.987   1.189   9.321 -0.1070 -0.0464 -0.1510
 1181ERGO    R316210  19.180   1.009   9.255 -0.1727 -0.1304 -0.1120
 1181ERGO    R416211  19.072   1.100   8.998 -0.1053 -0.1148 -0.1311
 1181ERGO    R516212  19.090   0.893   9.066 -0.1960 -0.1138 -0.1091
 1181ERGO    C116213  19.301   0.878   8.748 -0.1657 -0.2336 -0.0829
 1181ERGO    C216214  19.382   0.703   8.511  0.0817 -0.0720  0.3740
 1182ERGO   ROH16215  15.121   2.966   9.760  0.0328 -0.0547 -0.1014
 1182ERGO    R116216  15.176   3.074   9.504  0.0838  0.0786 -0.0348
 1182ERGO    R216217  15.431   3.148   9.427  0.1608 -0.2073 -0.0662
 1182ERGO    R316218  15.381   2.982   9.217 -0.1483  0.0279 -0.1868
 1182ERGO    R416219  15.555   3.191   9.107  0.2507 -0.2108 -0.0321
 1182ERGO    R516220  15.361   3.128   9.029  0.1284  0.2048 -0.0850
 1182ERGO    C116221  15.581   3.059   8.724  0.0127  0.0080 -0.1254
 1182ERGO    C216222  15.700   3.157   8.400 -0.1249  0.0781  0.0751
 1183ERGO   ROH16223   1.180  13.165   9.407 -0.1559  0.1383 -0.0837
 1183ERGO    R116224   1.169  13.058   9.145 -0.2034  0.0077 -0.0295
 1183ERGO    R216225   0.932  13.036   9.004 -0.1812  0.2977 -0.1221
 1183ERGO    R316226   1.069  13.177   8.815  0.1277 -0.0161 -0.1413
 1183ERGO    R416227   0.908  12.985   8.663 -0.1730  0.2077 -0.1092
 1183ERGO    R516228   1.124  13.014   8.648 -0.1114 -0.1821 -0.0615
 1183ERGO    C116229   1.022  13.087   8.288  0.1217 -0.1392 -0.1196
 1183ERGO    C216230   0.842  13.152   8.050 -0.2724 -0.4006 -0.0789
 1184ERGO   ROH16231   4.250  13.473   6.542 -0.2217  0.1720  0.0968
 1184ERGO    R116232   4.273  13.484   6.824 -0.0045 -0.0170  0.0905
 1184ERGO    R216233   4.247  13.720   6.966  0.0531 -0.1163  0.2759
 1184ERGO    R316234   4.059  13.579   7.103  0.1891 -0.2532  0.3227
 1184ERGO    R416235   4.115  13.811   7.272 -0.3192  0.0659  0.0677
 1184ERGO    R516236   4.123  13.602   7.333 -0.0108  0.1519  0.3430
 1184ERGO    C116237   3.862  13.732   7.579 -0.4083  0.0434 -0.0096
 1184ERGO    C216238   3.834  14.065   7.736 -0.2040 -0.3381  0.0605
 1185ERGO   ROH16239  10.139   0.009   9.027  0.1896 -0.1404 -0.0096
 1185ERGO    R116240  10.269  -0.002   8.776  0.1340 -0.1682 -0.0368
 1185ERGO    R216241  10.214  -0.197   8.588 -0.0282 -0.0923 -0.0687
 1185ERGO    R316242  10.169   0.016   8.426  0.0772 -0.0273 -0.0143
 1185ERGO    R416243  10.363  -0.147   8.280 -0.1060 -0.1565 -0.1176
 1185ERGO    R516244  10.383   0.064   8.329  0.0793 -0.1786 -0.0876
 1185ERGO    C116245  10.407   0.082   7.949 -0.0522 -0.1329 -0.0950
 1185ERGO    C216246  10.549  -0.028   7.653  0.0605 -0.0924 -0.1200
 1186ERGO   ROH16247   9.554  11.812   9.038  0.1522 -0.0589  0.0474
 1186ERGO    R116248   9.682  11.805   8.786  0.1189 -0.1826  0.0338
 1186ERGO    R216249   9.649  11.596   8.608 -0.2364 -0.0762 -0.0301
 1186ERGO    R316250   9.578  11.795   8.437  0.0663  0.0982  0.0378
 1186ERGO    R416251   9.652  11.570   8.264 -0.2251  0.0513 -0.0406
 1186ERGO    R516252   9.731  11.773   8.254  0.0668 -0.0488  0.0510
 1186ERGO    C116253   9.587  11.742   7.902  0.0656  0.2893  0.0173
 1186ERGO    C216254   9.452  11.845   7.609 -0.2517 -0.2094  0.0687
 1187ERGO   ROH16255  17.212  14.166   5.655 -0.0061 -0.0922 -0.1509
 1187ERGO    R116256  17.191  14.027   5.901  0.0348 -0.0027 -0.0965
 1187ERGO    R216257  17.308  14.119   6.134  0.0536  0.0947 -0.1439
 1187ERGO    R316258  17.056  14.094   6.232  0.0671  0.1083 -0.1056
 1187ERGO    R416259  17.213  14.199   6.456  0.1191  0.0368 -0.1096
 1187ERGO    R516260  17.087  14.021   6.458  0.0951  0.0543 -0.1270
 1187ERGO    C116261  16.920  14.222   6.736  0.1700  0.0157 -0.0537
 1187ERGO    C216262  16.603  14.387   6.955 -0.0994 -0.0029  0.0267
 1188ERGO   ROH16263  15.220  15.511   9.352  0.0140 -0.2103 -0.0357
 1188ERGO    R116264  15.233  15.411   9.088 -0.1268 -0.1925 -0.0508
 1188ERGO    R216265  15.014  15.302   8.959 -0.2601  0.0366 -0.0320
 1188ERGO    R316266  15.075  15.487   8.769 -0.1061  0.0045 -0.0142
 1188ERGO    R416267  14.942  15.270   8.623 -0.1663  0.0807 -0.0564
 1188ERGO    R516268  15.137  15.356   8.578 -0.1122 -0.0207  0.0057
 1188ERGO    C116269  14.957  15.424   8.248  0.0326  0.0762 -0.0538
 1188ERGO    C216270  14.883  15.282   7.953 -0.1078  0.3601  0.0279
 1189ERGO   ROH16271   8.079   6.426   9.228 -0.0530  0.2872 -0.0469
 1189ERGO    R116272   7.988   6.379   8.965 -0.0371  0.0961 -0.0202
 1189ERGO    R216273   7.961   6.581   8.778 -0.1391 -0.0176 -0.1354
 1189ERGO    R316274   8.120   6.419   8.628 -0.0628 -0.0266 -0.0444
 1189ERGO    R416275   7.953   6.561   8.433 -0.0975 -0.1911 -0.1266
 1189ERGO    R516276   7.978   6.345   8.450 -0.0135 -0.1698 -0.0212
 1189ERGO    C116277   8.097   6.397   8.091 -0.0017 -0.3005 -0.0360
 1189ERGO    C216278   8.178   6.382   7.804 -0.4270  0.4172 -0.4470
 1190ERGO   ROH16279  11.612  10.055   9.248 -0.1966  0.0880 -0.1811
 1190ERGO    R116280  11.495   9.986   8.999 -0.0598  0.1056 -0.2501
 1190ERGO    R216281  11.512  10.150   8.777  0.0740  0.1125 -0.2296
 1190ERGO    R316282  11.612   9.926   8.660  0.1259  0.1139 -0.1902
 1190ERGO    R416283  11.488  10.074   8.441  0.2077  0.1238 -0.2429
 1190ERGO    R516284  11.450   9.866   8.495  0.1872  0.1170 -0.2584
 1190ERGO    C116285  11.567   9.819   8.135  0.3342  0.1317 -0.2137
 1190ERGO    C216286  11.762   9.846   7.864  0.2168 -0.2193  0.2159
 1191ERGO   ROH16287   0.065  16.819   9.747  0.3661 -0.0953  0.0729
 1191ERGO    R116288  -0.058  16.851   9.493  0.2385 -0.1906  0.1214
 1191ERGO    R216289   0.025  17.042   9.311 -0.1622  0.0673  0.1961
 1191ERGO    R316290   0.045  16.828   9.145  0.1995  0.1842  0.0813
 1191ERGO    R416291   0.004  17.056   8.967 -0.1902  0.2103  0.2029
 1191ERGO    R516292  -0.112  16.872   8.971  0.1202  0.0074  0.1088
 1191ERGO    C116293   0.011  16.863   8.610  0.1332  0.4033  0.0992
 1191ERGO    C216294  -0.088  16.932   8.325 -0.3656  0.0691 -0.1415
 1192ERGO   ROH16295   8.887  14.742   6.204 -0.2082 -0.0279 -0.1186
 1192ERGO    R116296   9.013  14.667   6.446  0.0010 -0.0417 -0.2297
 1192ERGO    R216297   8.881  14.669   6.689  0.2429  0.0575 -0.0983
 1192ERGO    R316298   8.966  14.410   6.700  0.1418  0.0217 -0.1376
 1192ERGO    R416299   8.931  14.489   6.980  0.1307 -0.0173 -0.1239
 1192ERGO    R516300   9.110  14.403   6.891  0.1126 -0.0696 -0.1161
 1192ERGO    C116301   9.040  14.143   7.160 -0.0296 -0.0944 -0.1757
 1192ERGO    C216302   8.913  14.068   7.539 -0.0009  0.1015 -0.0046
 1193ERGO   ROH16303  15.790  10.951   6.055 -0.1722  0.0730 -0.0599
 1193ERGO    R116304  15.696  10.714   6.177 -0.1280  0.1260  0.0804
 1193ERGO    R216305  15.546  10.714   6.409 -0.2428  0.2436  0.0073
 1193ERGO    R316306  15.373  10.568   6.258 -0.1058  0.0498  0.0339
 1193ERGO    R416307  15.227  10.624   6.507 -0.2789  0.2452 -0.1071
 1193ERGO    R516308  15.260  10.428   6.417 -0.1639  0.1669  0.0980
 1193ERGO    C116309  14.879  10.434   6.423 -0.1713  0.0644 -0.1487
 1193ERGO    C216310  14.538  10.287   6.315 -0.0478  0.0032 -0.0884
 1194ERGO   ROH16311  16.427   4.526   6.403  0.0853  0.0285 -0.0346
 1194ERGO    R116312  16.354   4.309   6.569  0.0224  0.1028  0.0300
 1194ERGO    R216313  16.532   4.189   6.743 -0.0415  0.1604  0.1120
 1194ERGO    R316314  16.339   4.243   6.926 -0.0809  0.2341  0.0542
 1194ERGO    R416315  16.507   4.038   7.053 -0.1454  0.1988  0.1262
 1194ERGO    R516316  16.291   4.030   7.026 -0.1526  0.2455  0.0674
 1194ERGO    C116317  16.312   4.000   7.405 -0.2430  0.2903  0.0803
 1194ERGO    C216318  16.467   3.916   7.780  0.2392  0.2824 -0.0260
 1195ERGO   ROH16319  16.861  15.847   6.297 -0.0381  0.1191  0.0073
 1195ERGO    R116320  17.041  15.888   6.511 -0.1657  0.2029  0.1012
 1195ERGO    R216321  16.959  15.898   6.774 -0.2837 -0.0312  0.0805
 1195ERGO    R316322  17.146  15.704   6.807 -0.0815  0.1542  0.0405
 1195ERGO    R416323  17.154  15.858   7.057 -0.1513  0.1814  0.0210
 1195ERGO    R516324  17.323  15.812   6.927 -0.1478  0.3360 -0.0260
 1195ERGO    C116325  17.443  15.652   7.252  0.1158  0.4795 -0.0513
 1195ERGO    C216326  17.594  15.467   7.536  0.2906  0.1212  0.1162
 1196ERGO   ROH16327   5.258  14.274   6.215  0.1251  0.0620 -0.1435
 1196ERGO    R116328   5.300  14.452   6.431 -0.1273  0.0495 -0.0815
 1196ERGO    R216329   5.176  14.420   6.676 -0.0585 -0.2329 -0.0804
 1196ERGO    R316330   5.431  14.431   6.770 -0.0597  0.1241 -0.1025
 1196ERGO    R416331   5.265  14.394   7.009  0.0131 -0.2142 -0.0979
 1196ERGO    R516332   5.413  14.550   6.976 -0.2253  0.0280 -0.0585
 1196ERGO    C116333   5.556  14.388   7.290  0.0536  0.1318 -0.1289
 1196ERGO    C216334   5.819  14.362   7.404 -0.0646 -0.1025  0.2780
 1197ERGO   ROH16335   5.968   6.195   5.905 -0.1130  0.1001 -0.2173
 1197ERGO    R116336   5.755   6.143   6.085  0.0518 -0.0964 -0.0750
 1197ERGO    R216337   5.766   5.941   6.274  0.4709  0.0772  0.0957
 1197ERGO    R316338   5.708   6.144   6.446  0.2194  0.1341 -0.0507
 1197ERGO    R416339   5.641   5.900   6.593  0.3225  0.1617  0.0498
 1197ERGO    R516340   5.510   6.071   6.559  0.2084  0.0463 -0.1216
 1197ERGO    C116341   5.513   6.066   6.941 -0.0000  0.2643 -0.1145
 1197ERGO    C216342   5.306   6.081   7.260  0.0063 -0.0920 -0.0654
 1198ERGO   ROH16343  13.471   9.923   6.518  0.0111 -0.1607  0.0543
 1198ERGO    R116344  13.654  10.070   6.676 -0.0424  0.0001 -0.0306
 1198ERGO    R216345  13.583  10.302   6.808 -0.1736 -0.0376 -0.0281
 1198ERGO    R316346  13.682  10.170   7.025  0.0104  0.0589 -0.0521
 1198ERGO    R416347  13.639  10.445   7.118 -0.3100 -0.0029 -0.0193
 1198ERGO    R516348  13.824  10.330   7.132 -0.1700  0.2189 -0.0512
 1198ERGO    C116349  13.764  10.404   7.501 -0.2167  0.1079 -0.0366
 1198ERGO    C216350  13.825  10.710   7.889 -0.0978  0.0830  0.3787
 1199ERGO   ROH16351  10.454   7.779   5.982 -0.1373  0.4190 -0.2392
 1199ERGO    R116352  10.420   7.935   6.215 -0.3674  0.1424 -0.0807
 1199ERGO    R216353  10.212   7.895   6.392 -0.1573 -0.5265  0.0394
 1199ERGO    R316354  10.413   7.877   6.574  0.0240 -0.1890 -0.1194
 1199ERGO    R416355  10.167   7.878   6.734  0.1417 -0.5934  0.0779
 1199ERGO    R516356  10.338   8.011   6.758 -0.0544 -0.3050 -0.0649
 1199ERGO    C116357  10.330   7.852   7.104  0.4860 -0.3155 -0.0487
 1199ERGO    C216358  10.132   7.759   7.535 -0.1561 -0.0264  0.2067
 1200ERGO   ROH16359   9.021  13.466   5.791 -0.0799 -0.0707 -0.2577
 1200ERGO    R116360   9.134  13.403   6.043 -0.2975 -0.2202 -0.1956
 1200ERGO    R216361   9.287  13.582   6.187  0.0379 -0.4851 -0.2130
 1200ERGO    R316362   9.107  13.528   6.383 -0.1518 -0.0345 -0.2506
 1200ERGO    R416363   9.330  13.657   6.522  0.0627 -0.4080 -0.2328
 1200ERGO    R516364   9.240  13.465   6.572 -0.3423 -0.2142 -0.1708
 1200ERGO    C116365   9.186  13.650   6.901 -0.1010  0.0598 -0.2795
 1200ERGO    C216366   9.297  13.714   7.189  0.3175 -0.0084  0.1832
 1201ERGO   ROH16367   2.422  17.116   5.848 -0.1345  0.0311  0.0028
 1201ERGO    R116368   2.617  17.041   6.039 -0.0349  0.0351 -0.0967
 1201ERGO    R216369   2.657  17.183   6.274  0.1040  0.0533 -0.1343
 1201ERGO    R316370   2.618  16.939   6.389  0.1514  0.0677 -0.0857
 1201ERGO    R416371   2.759  17.095   6.592 -0.0381  0.2008 -0.0459
 1201ERGO    R516372   2.818  16.900   6.515  0.1007  0.2017  0.0435
 1201ERGO    C116373   2.783  16.816   6.885 -0.0764  0.3004  0.0512
 1201ERGO    C216374   2.860  16.756   7.158  0.0864 -0.1419 -0.3820
 1202ERGO   ROH16375  13.052   5.615   6.345 -0.0535 -0.1025 -0.2034
 1202ERGO    R116376  13.142   5.508   6.591 -0.0884  0.0356 -0.1287
 1202ERGO    R216377  13.094   5.247   6.666 -0.1069  0.0772  0.0176
 1202ERGO    R316378  13.364   5.240   6.697 -0.1114  0.0879  0.0530
 1202ERGO    R416379  13.259   5.101   6.932 -0.1420  0.3364  0.1848
 1202ERGO    R516380  13.398   5.268   6.932 -0.1314  0.3252  0.0275
 1202ERGO    C116381  13.608   5.008   7.116 -0.1665  0.4973  0.3153
 1202ERGO    C216382  13.745   4.678   7.067 -0.1774  0.2991  0.1741
 1203ERGO   ROH16383  16.484  10.356   5.975  0.4595  0.0590 -0.1091
 1203ERGO    R116384  16.454  10.445   6.243  0.1752  0.0077 -0.1203
 1203ERGO    R216385  16.648  10.403   6.436  0.0805  0.1792  0.0142
 1203ERGO    R316386  16.630  10.673   6.466 -0.2086  0.1665  0.0298
 1203ERGO    R416387  16.693  10.572   6.734  0.0854  0.2247 -0.0108
 1203ERGO    R516388  16.527  10.701   6.680 -0.1055  0.0411  0.1009
 1203ERGO    C116389  16.703  10.923   6.936 -0.1828  0.2392 -0.0107
 1203ERGO    C216390  16.845  11.185   7.065  0.3207 -0.0681 -0.4765
 1204ERGO   ROH16391   3.292  16.783   9.566 -0.1273  0.1604  0.0769
 1204ERGO    R116392   3.308  16.750   9.286 -0.1929  0.2875  0.0571
 1204ERGO    R216393   3.270  16.505   9.162  0.1488  0.2642 -0.0130
 1204ERGO    R316394   3.084  16.643   9.019 -0.1402  0.0209  0.1172
 1204ERGO    R416395   3.148  16.410   8.853  0.1743  0.1831  0.0020
 1204ERGO    R516396   3.155  16.619   8.792 -0.1923  0.2236  0.0778
 1204ERGO    C116397   2.903  16.484   8.539 -0.0821 -0.0925  0.1328
 1204ERGO    C216398   2.721  16.540   8.306 -0.1211  0.2473  0.1811
 1205ERGO   ROH16399   3.512   5.301   9.020  0.2197 -0.1755 -0.2025
 1205ERGO    R116400   3.546   5.470   8.796  0.0578 -0.0933 -0.1665
 1205ERGO    R216401   3.740   5.427   8.605  0.0906  0.1242 -0.1861
 1205ERGO    R316402   3.529   5.436   8.434  0.0726 -0.0281 -0.1732
 1205ERGO    R416403   3.766   5.444   8.260  0.0545  0.1371 -0.1883
 1205ERGO    R516404   3.600   5.585   8.260 -0.0455  0.0192 -0.1804
 1205ERGO    C116405   3.583   5.462   7.900  0.0166  0.0017 -0.1776
 1205ERGO    C216406   3.619   5.440   7.487  0.1688  0.0168 -0.0510
 1206ERGO   ROH16407   0.352  13.594   6.552  0.0213 -0.2315  0.1394
 1206ERGO    R116408   0.417  13.579   6.827  0.1820 -0.0910  0.1108
 1206ERGO    R216409   0.640  13.701   6.934  0.0473  0.2791 -0.0170
 1206ERGO    R316410   0.458  13.813   7.102 -0.0515  0.0188  0.0557
 1206ERGO    R416411   0.718  13.866   7.227 -0.0787  0.2917  0.0102
 1206ERGO    R516412   0.546  13.771   7.321  0.0509  0.0592  0.0246
 1206ERGO    C116413   0.593  14.068   7.556 -0.2447  0.0545  0.0942
 1206ERGO    C216414   0.704  14.159   7.820  0.2943 -0.3554 -0.0111
 1207ERGO   ROH16415   8.577  12.214   9.240  0.0172 -0.0584  0.0103
 1207ERGO    R116416   8.705  12.141   8.998 -0.1628 -0.1373 -0.0620
 1207ERGO    R216417   8.566  12.101   8.762 -0.2913  0.2260 -0.0500
 1207ERGO    R316418   8.742  12.283   8.665 -0.0074 -0.0101  0.0076
 1207ERGO    R416419   8.644  12.141   8.428 -0.4186  0.3615 -0.0653
 1207ERGO    R516420   8.853  12.169   8.486 -0.3210 -0.0709 -0.1571
 1207ERGO    C116421   8.856  12.335   8.142 -0.2260  0.2189 -0.0200
 1207ERGO    C216422   8.836  12.516   7.886  0.1393 -0.0708 -0.0362
 1208ERGO   ROH16423  15.119  11.786   7.281 -0.1154  0.0081 -0.1934
 1208ERGO    R116424  15.244  11.573   7.420 -0.1945 -0.0659 -0.2308
 1208ERGO    R216425  15.395  11.380   7.292 -0.1557 -0.0337 -0.2532
 1208ERGO    R316426  15.584  11.455   7.473 -0.2284 -0.1188 -0.1439
 1208ERGO    R416427  15.638  11.171   7.422 -0.0751 -0.0357 -0.4093
 1208ERGO    R516428  15.607  11.265   7.617 -0.1577 -0.2446 -0.3266
 1208ERGO    C116429  15.956  11.120   7.667 -0.0964 -0.1166 -0.3976
 1208ERGO    C216430  16.187  10.912   7.746  0.1479  0.1782  0.0657
 1209ERGO   ROH16431  10.989  15.135   5.904 -0.1854 -0.1364  0.0385
 1209ERGO    R116432  10.907  15.059   6.164  0.1175 -0.1913  0.1216
 1209ERGO    R216433  11.086  15.025   6.372  0.3224  0.1830  0.0171
 1209ERGO    R316434  10.922  15.202   6.498  0.1003 -0.0485  0.0616
 1209ERGO    R416435  11.059  15.060   6.715  0.4666  0.2333  0.0236
 1209ERGO    R516436  10.844  15.084   6.691  0.4074 -0.1285  0.1425
 1209ERGO    C116437  10.890  15.246   7.033  0.3421  0.0454  0.0692
 1209ERGO    C216438  11.007  15.379   7.254 -0.1629  0.5233 -0.3969
 1210ERGO   ROH16439   0.784  18.894   6.580  0.0113 -0.2091 -0.1517
 1210ERGO    R116440   0.972  18.863   6.789 -0.0833  0.0119 -0.0313
 1210ERGO    R216441   0.917  18.937   7.050 -0.3849 -0.1594 -0.0419
 1210ERGO    R316442   0.989  18.681   7.104 -0.0210 -0.0725 -0.0823
 1210ERGO    R416443   1.056  18.830   7.348 -0.4266 -0.0401  0.0209
 1210ERGO    R516444   1.189  18.701   7.234 -0.1381  0.2028  0.0675
 1210ERGO    C116445   1.203  18.527   7.573 -0.1092  0.1108  0.0196
 1210ERGO    C216446   1.118  18.367   7.879 -0.2283  0.0806 -0.0518
 1211ERGO   ROH16447  17.323   6.165   6.554 -0.0858  0.0071 -0.0542
 1211ERGO    R116448  17.074   6.102   6.673 -0.0685  0.1036  0.0370
 1211ERGO    R216449  16.975   5.844   6.686 -0.2077  0.1465 -0.0070
 1211ERGO    R316450  16.958   5.899   6.952 -0.0494  0.0713  0.0188
 1211ERGO    R416451  16.847   5.630   6.925 -0.1124  0.1111  0.0114
 1211ERGO    R516452  16.751   5.800   7.020 -0.0239  0.0956  0.1122
 1211ERGO    C116453  16.756   5.557   7.313  0.0917  0.0198  0.0463
 1211ERGO    C216454  16.685   5.657   7.707 -0.1243 -0.1983 -0.1495
 1212ERGO   ROH16455   0.517   8.549   5.807  0.1461  0.0005 -0.2289
 1212ERGO    R116456   0.500   8.571   6.089  0.1321  0.0021 -0.2305
 1212ERGO    R216457   0.722   8.604   6.249  0.1172  0.0646 -0.2268
 1212ERGO    R316458   0.585   8.820   6.340  0.0576  0.0301 -0.2319
 1212ERGO    R416459   0.774   8.756   6.555  0.1299  0.1307 -0.2609
 1212ERGO    R516460   0.558   8.779   6.574  0.1234  0.0555 -0.2181
 1212ERGO    C116461   0.675   9.048   6.818  0.0815  0.1369 -0.2857
 1212ERGO    C216462   0.820   9.067   7.119  0.1640  0.0365 -0.1287
 1213ERGO   ROH16463  15.837   4.311   6.635 -0.0409  0.0080 -0.0181
 1213ERGO    R116464  15.912   4.281   6.907 -0.0691  0.1406  0.0040
 1213ERGO    R216465  15.803   4.435   7.109 -0.2906  0.0530 -0.0511
 1213ERGO    R316466  15.746   4.193   7.218 -0.0410  0.0062 -0.0170
 1213ERGO    R416467  15.736   4.380   7.443 -0.1099  0.0162 -0.0194
 1213ERGO    R516468  15.854   4.197   7.432  0.0450  0.1112 -0.0579
 1213ERGO    C116469  15.644   4.120   7.741  0.2296 -0.0492  0.0310
 1213ERGO    C216470  15.436   3.847   7.893  0.2621  0.0623  0.0131
 1214ERGO   ROH16471   9.992  17.079   5.870 -0.0448  0.0742 -0.0425
 1214ERGO    R116472  10.042  17.122   6.146  0.0255 -0.1859 -0.0126
 1214ERGO    R216473   9.918  17.323   6.290  0.4011 -0.0276  0.1004
 1214ERGO    R316474   9.847  17.117   6.453 -0.0047  0.0031 -0.0279
 1214ERGO    R416475   9.851  17.352   6.628  0.3940 -0.0957  0.1049
 1214ERGO    R516476   9.957  17.165   6.660  0.0493 -0.3130  0.0202
 1214ERGO    C116477   9.745  17.176   6.977  0.0091 -0.1065 -0.0129
 1214ERGO    C216478   9.691  17.330   7.335 -0.0705  0.0365 -0.0532
 1215ERGO   ROH16479  12.246   6.574   6.326  0.0719 -0.0539  0.0003
 1215ERGO    R116480  12.336   6.577   6.594 -0.0316  0.0646  0.0359
 1215ERGO    R216481  12.185   6.477   6.802  0.0183 -0.1432 -0.0185
 1215ERGO    R316482  12.408   6.330   6.851  0.2017  0.1536  0.0559
 1215ERGO    R416483  12.235   6.281   7.083 -0.0444 -0.4982 -0.2493
 1215ERGO    R516484  12.442   6.350   7.088 -0.1592 -0.1527  0.1393
 1215ERGO    C116485  12.474   6.030   7.292  0.0913 -0.4262 -0.3138
 1215ERGO    C216486  12.751   5.874   7.525  0.0263 -0.1312  0.1155
 1216ERGO   ROH16487  12.682  14.405   5.535 -0.0810  0.1021  0.0077
 1216ERGO    R116488  12.649  14.300   5.796 -0.1142  0.0516 -0.0168
 1216ERGO    R216489  12.489  14.081   5.850 -0.0919  0.0191 -0.0855
 1216ERGO    R316490  12.715  13.983   5.963 -0.0991  0.0318 -0.0596
 1216ERGO    R416491  12.498  13.848   6.105 -0.1154  0.2207  0.1022
 1216ERGO    R516492  12.662  13.960   6.195 -0.0546  0.2385 -0.0263
 1216ERGO    C116493  12.717  13.621   6.360 -0.1359  0.3500  0.2358
 1216ERGO    C216494  12.693  13.553   6.668 -0.1276  0.1134 -0.0829
 1217ERGO   ROH16495  13.172   9.310   6.272  0.0443 -0.0121 -0.0189
 1217ERGO    R116496  13.078   9.154   6.488  0.0569 -0.0142 -0.0149
 1217ERGO    R216497  13.215   8.934   6.585  0.1110  0.0427  0.0372
 1217ERGO    R316498  13.195   9.066   6.821  0.0279  0.0668  0.0173
 1217ERGO    R416499  13.190   8.783   6.895  0.1136  0.0736  0.0525
 1217ERGO    R516500  13.044   8.934   6.951  0.0522  0.0312  0.0100
 1217ERGO    C116501  13.157   8.820   7.297  0.0371  0.1142  0.0427
 1217ERGO    C216502  13.169   8.994   7.610  0.2333 -0.2759 -0.0339
 1218ERGO   ROH16503   4.604   0.028   8.818 -0.2223  0.1479  0.1854
 1218ERGO    R116504   4.629  -0.058   8.550  0.0204  0.1999  0.1899
 1218ERGO    R216505   4.412  -0.132   8.396  0.2009 -0.2102  0.1243
 1218ERGO    R316506   4.511   0.054   8.224 -0.0985 -0.0139  0.1570
 1218ERGO    R416507   4.370  -0.138   8.053  0.1433 -0.1801  0.1306
 1218ERGO    R516508   4.577  -0.072   8.032  0.0510  0.1287  0.1095
 1218ERGO    C116509   4.438   0.033   7.692 -0.1712  0.0216  0.1650
 1218ERGO    C216510   4.348  -0.008   7.331  0.1554 -0.0834 -0.1860
 1219ERGO   ROH16511  15.464   6.459   6.601  0.0356 -0.0383 -0.1107
 1219ERGO    R116512  15.216   6.511   6.727  0.0963  0.1166 -0.0533
 1219ERGO    R216513  15.085   6.323   6.882 -0.0285  0.1662 -0.0998
 1219ERGO    R316514  15.089   6.522   7.068  0.1582  0.0987 -0.0292
 1219ERGO    R416515  14.899   6.325   7.174  0.1091  0.1510 -0.0108
 1219ERGO    R516516  14.863   6.538   7.143  0.1989  0.1829  0.0831
 1219ERGO    C116517  14.795   6.513   7.517  0.3644  0.0788  0.1072
 1219ERGO    C216518  14.848   6.676   7.719  0.5940 -0.2801 -0.0170
 1220ERGO   ROH16519  16.202   0.467   6.209  0.1057 -0.2879  0.0338
 1220ERGO    R116520  16.125   0.567   6.462  0.2655 -0.2296  0.0615
 1220ERGO    R216521  15.861   0.583   6.542  0.2754  0.2178  0.0477
 1220ERGO    R316522  15.950   0.440   6.755  0.0121 -0.0201  0.0032
 1220ERGO    R416523  15.697   0.556   6.845  0.0751  0.1481 -0.0650
 1220ERGO    R516524  15.890   0.572   6.945  0.0268 -0.1054  0.0618
 1220ERGO    C116525  15.686   0.406   7.222 -0.2889 -0.1158 -0.1724
 1220ERGO    C216526  15.561   0.172   7.463 -0.3045 -0.4719  0.0251
 1221ERGO   ROH16527   4.804   4.303   6.391  0.1865 -0.0978 -0.2204
 1221ERGO    R116528   4.732   4.159   6.624  0.2373  0.0610 -0.1052
 1221ERGO    R216529   4.562   3.942   6.618  0.1872  0.0926  0.0891
 1221ERGO    R316530   4.767   3.819   6.747  0.2062  0.1279  0.0927
 1221ERGO    R416531   4.539   3.797   6.931  0.2187  0.1263  0.1072
 1221ERGO    R516532   4.737   3.878   6.977  0.2127  0.1512  0.0874
 1221ERGO    C116533   4.719   3.596   7.234  0.2547  0.1791  0.1210
 1221ERGO    C216534   4.537   3.453   7.591 -0.1561  0.2803  0.0458
 1222ERGO   ROH16535   6.137   4.896   6.113 -0.2583  0.2267 -0.0584
 1222ERGO    R116536   6.111   5.076   6.330 -0.0654  0.1275  0.0501
 1222ERGO    R216537   6.022   4.997   6.579 -0.0768  0.0587  0.0240
 1222ERGO    R316538   6.253   5.112   6.663  0.0362 -0.1764  0.0425
 1222ERGO    R416539   6.095   5.075   6.908 -0.0863  0.1179  0.0124
 1222ERGO    R516540   6.185   5.261   6.838  0.1565 -0.0164 -0.0442
 1222ERGO    C116541   6.356   5.228   7.178  0.0142 -0.0684  0.0230
 1222ERGO    C216542   6.560   5.253   7.357 -0.1286  0.1054 -0.0005
 1223ERGO   ROH16543  10.600   8.937   5.960 -0.0534 -0.0388  0.0941
 1223ERGO    R116544  10.636   8.873   6.234 -0.0714  0.1413  0.1394
 1223ERGO    R216545  10.872   8.772   6.333 -0.1340  0.0475  0.1894
 1223ERGO    R316546  10.853   8.982   6.504  0.0336  0.1914  0.0364
 1223ERGO    R416547  11.077   8.823   6.607 -0.0636  0.1073  0.1265
 1223ERGO    R516548  10.902   8.888   6.719 -0.0064  0.3148  0.1015
 1223ERGO    C116549  11.179   9.050   6.927  0.1347  0.2771 -0.0539
 1223ERGO    C216550  11.486   9.159   7.076 -0.1240  0.4177  0.1629
 1224ERGO   ROH16551   3.842   9.462   8.013 -0.0624  0.1016  0.0683
 1224ERGO    R116552   3.893   9.414   7.739 -0.1533  0.0429  0.0612
 1224ERGO    R216553   4.141   9.338   7.644 -0.1180  0.2681 -0.0356
 1224ERGO    R316554   4.001   9.132   7.536  0.0420  0.0721  0.1231
 1224ERGO    R416555   4.259   9.128   7.396 -0.0749  0.3834 -0.1136
 1224ERGO    R516556   4.061   9.134   7.304 -0.1723  0.1197  0.0658
 1224ERGO    C116557   4.195   8.812   7.151  0.1003  0.2665 -0.0100
 1224ERGO    C216558   4.192   8.523   6.922 -0.0548 -0.1067 -0.2243
 1225ERGO   ROH16559  11.056   5.229   8.685 -0.0218 -0.1685  0.1008
 1225ERGO    R116560  11.061   5.389   8.452 -0.0572 -0.1261  0.1276
 1225ERGO    R216561  11.232   5.338   8.241 -0.0367 -0.0465  0.1183
 1225ERGO    R316562  11.001   5.339   8.096 -0.0362 -0.0831  0.1194
 1225ERGO    R416563  11.209   5.421   7.906 -0.1075  0.2682  0.1983
 1225ERGO    R516564  11.024   5.527   7.950 -0.1877  0.0784  0.3047
 1225ERGO    C116565  10.980   5.469   7.575 -0.1482  0.4171  0.2460
 1225ERGO    C216566  11.071   5.539   7.232 -0.0593 -0.0213 -0.3201
 1226ERGO   ROH16567   4.272   6.940   5.385 -0.0943 -0.0802 -0.0114
 1226ERGO    R116568   4.490   7.007   5.553 -0.1665  0.0731  0.0221
 1226ERGO    R216569   4.457   7.137   5.795 -0.3160 -0.1313  0.1128
 1226ERGO    R316570   4.599   6.926   5.891 -0.0491 -0.0268 -0.0383
 1226ERGO    R416571   4.718   7.160   6.021 -0.4882  0.0261  0.3002
 1226ERGO    R516572   4.823   7.007   5.907 -0.1768  0.3085  0.1884
 1226ERGO    C116573   5.002   6.975   6.242 -0.3377  0.2159  0.2673
 1226ERGO    C216574   5.371   6.962   6.391 -0.0418  0.0207 -0.1046
 1227ERGO   ROH16575  19.070  11.565   6.941  0.3000 -0.0399  0.3707
 1227ERGO    R116576  18.907  11.546   7.171  0.1103 -0.0340  0.2398
 1227ERGO    R216577  18.687  11.381   7.185  0.0830 -0.0157  0.0556
 1227ERGO    R316578  18.811  11.286   7.407 -0.1038 -0.0343  0.1538
 1227ERGO    R416579  18.560  11.135   7.391 -0.0482 -0.0979 -0.1207
 1227ERGO    R516580  18.632  11.248   7.563 -0.2422 -0.1191 -0.0238
 1227ERGO    C116581  18.603  10.902   7.720 -0.2998 -0.1634 -0.1312
 1227ERGO    C216582  18.710  10.677   8.024  0.1698  0.0140 -0.1135
 1228ERGO   ROH16583  12.991   7.340   6.276 -0.1469 -0.2071 -0.0085
 1228ERGO    R116584  12.916   7.339   6.549 -0.0514 -0.0979  0.0187
 1228ERGO    R216585  13.012   7.524   6.731 -0.0054 -0.0114 -0.0942
 1228ERGO    R316586  12.748   7.567   6.778  0.0067 -0.0165 -0.0188
 1228ERGO    R416587  12.887   7.761   6.948  0.0574 -0.1148  0.0570
 1228ERGO    R516588  12.737   7.617   7.012  0.0586 -0.1384  0.0113
 1228ERGO    C116589  12.565   7.940   7.119  0.1052 -0.1798  0.2157
 1228ERGO    C216590  12.627   8.196   7.253 -0.1276  0.0489 -0.3491
 1229ERGO   ROH16591  16.104   8.581   5.630 -0.0207 -0.1743  0.1937
 1229ERGO    R116592  16.207   8.649   5.885  0.1293 -0.1850  0.1374
 1229ERGO    R216593  16.427   8.524   5.995  0.2487 -0.1313 -0.0322
 1229ERGO    R316594  16.520   8.778   6.018  0.1776 -0.1037 -0.0533
 1229ERGO    R416595  16.729   8.612   6.140  0.2738 -0.0404 -0.1388
 1229ERGO    R516596  16.629   8.783   6.231  0.2544 -0.0780 -0.0946
 1229ERGO    C116597  16.991   8.902   6.245  0.2213  0.0387 -0.2208
 1229ERGO    C216598  17.225   9.106   6.185  0.1415 -0.1025  0.2979
 1230ERGO   ROH16599   6.830   0.406   8.749 -0.0557  0.0414  0.1168
 1230ERGO    R116600   6.882   0.331   8.480 -0.0601  0.0348  0.1167
 1230ERGO    R216601   6.771   0.106   8.364  0.0767 -0.0722  0.1764
 1230ERGO    R316602   6.688   0.285   8.177 -0.0978 -0.1585  0.1709
 1230ERGO    R416603   6.747   0.041   8.026  0.2362 -0.0673  0.1643
 1230ERGO    R516604   6.826   0.240   7.986  0.0000  0.0303  0.2004
 1230ERGO    C116605   6.655   0.170   7.653  0.1655 -0.1456  0.1521
 1230ERGO    C216606   6.407   0.013   7.455 -0.1677 -0.0745  0.0832
 1231ERGO   ROH16607   7.007   3.038   5.584  0.2674 -0.1055 -0.2026
 1231ERGO    R116608   7.088   3.037   5.855  0.2604 -0.2346 -0.2007
 1231ERGO    R216609   6.912   3.081   6.063  0.3185  0.0342 -0.2052
 1231ERGO    R316610   7.011   2.844   6.154 -0.0463 -0.1238 -0.2051
 1231ERGO    R416611   6.912   2.982   6.394  0.5029  0.2063 -0.1513
 1231ERGO    R516612   7.112   2.899   6.364  0.3133 -0.2126 -0.3474
 1231ERGO    C116613   7.004   2.702   6.672  0.2677  0.1580 -0.1199
 1231ERGO    C216614   6.925   2.761   7.080  0.4175 -0.0858 -0.2143
 1232ERGO   ROH16615   5.673  16.644   5.266 -0.3488  0.2256 -0.0066
 1232ERGO    R116616   5.596  16.719   5.528 -0.3399  0.0624  0.0450
 1232ERGO    R216617   5.494  16.539   5.711 -0.0954 -0.1059  0.0260
 1232ERGO    R316618   5.695  16.634   5.868 -0.1358  0.0509 -0.0175
 1232ERGO    R416619   5.481  16.564   6.055  0.0097 -0.2235  0.0390
 1232ERGO    R516620   5.582  16.756   6.040 -0.1937 -0.1174  0.0609
 1232ERGO    C116621   5.661  16.669   6.403  0.0330 -0.1449  0.0057
 1232ERGO    C216622   5.878  16.597   6.692  0.1611  0.1039  0.0601
 1233ERGO   ROH16623   9.761  14.637   9.173 -0.2414  0.0659  0.0674
 1233ERGO    R116624   9.742  14.816   8.955  0.0077  0.1053  0.0740
 1233ERGO    R216625   9.959  14.884   8.799  0.0979 -0.2370  0.0391
 1233ERGO    R316626   9.798  14.801   8.595 -0.0720  0.0187  0.0652
 1233ERGO    R416627  10.003  14.969   8.467  0.1233 -0.2369  0.0428
 1233ERGO    R516628   9.786  14.991   8.449  0.1472  0.0631  0.1038
 1233ERGO    C116629   9.878  14.941   8.082 -0.0214  0.0033  0.0693
 1233ERGO    C216630   9.834  15.046   7.695  0.0648  0.1857 -0.2466
 1234ERGO   ROH16631   7.108   8.189   9.025  0.0068 -0.1585 -0.1216
 1234ERGO    R116632   6.937   8.199   8.800 -0.0661  0.0511 -0.0590
 1234ERGO    R216633   6.792   8.426   8.733  0.1541  0.2202  0.0168
 1234ERGO    R316634   6.916   8.393   8.493  0.0357  0.1069 -0.0300
 1234ERGO    R416635   6.708   8.592   8.442  0.1769  0.2635  0.0347
 1234ERGO    R516636   6.739   8.407   8.332 -0.0117  0.2335  0.0358
 1234ERGO    C116637   6.774   8.658   8.047  0.0789  0.1823  0.0011
 1234ERGO    C216638   6.993   8.756   7.692  0.1949  0.0736 -0.2277
 1235ERGO   ROH16639  12.863  14.660   9.369  0.1283  0.1105 -0.0491
 1235ERGO    R116640  12.921  14.563   9.109  0.1075  0.0863 -0.0439
 1235ERGO    R216641  12.753  14.603   8.894  0.1413  0.1533 -0.0524
 1235ERGO    R316642  12.977  14.706   8.779  0.1904  0.0608 -0.0428
 1235ERGO    R416643  12.798  14.648   8.554  0.2071  0.0362 -0.0604
 1235ERGO    R516644  13.004  14.580   8.578  0.1903 -0.0127 -0.0018
 1235ERGO    C116645  13.035  14.771   8.249  0.2917 -0.1188 -0.0560
 1235ERGO    C216646  12.961  14.722   7.992  0.1061  0.0096  0.0063
 1236ERGO   ROH16647  18.202   5.239   6.252  0.1457  0.0304 -0.0760
 1236ERGO    R116648  18.313   5.317   6.500  0.1489  0.0101 -0.0715
 1236ERGO    R216649  18.215   5.227   6.743  0.0777  0.0824 -0.0740
 1236ERGO    R316650  18.473   5.151   6.782  0.0397 -0.0279 -0.0314
 1236ERGO    R416651  18.347   5.120   7.044 -0.0284 -0.0257 -0.0646
 1236ERGO    R516652  18.527   5.233   7.000  0.0265 -0.0895 -0.0046
 1236ERGO    C116653  18.665   4.987   7.256 -0.1258 -0.1922 -0.0191
 1236ERGO    C216654  18.569   4.853   7.488 -0.0278  0.1420  0.3671
 1237ERGO   ROH16655   3.258  16.501   5.765 -0.2615 -0.2578 -0.1388
 1237ERGO    R116656   3.142  16.329   5.958 -0.1695 -0.2187 -0.0486
 1237ERGO    R216657   3.231  16.070   5.999 -0.1063 -0.1851  0.0086
 1237ERGO    R316658   3.254  16.153   6.257 -0.0472 -0.1007 -0.0228
 1237ERGO    R416659   3.263  15.860   6.272  0.1180 -0.0986  0.0514
 1237ERGO    R516660   3.129  15.992   6.383  0.0881 -0.1387  0.0704
 1237ERGO    C116661   3.303  15.816   6.673  0.3040  0.0309  0.0468
 1237ERGO    C216662   3.335  15.866   7.002 -0.1163 -0.3138  0.1954
 1238ERGO   ROH16663   0.595   4.585   9.396  0.2702  0.1310  0.0720
 1238ERGO    R116664   0.450   4.610   9.155  0.1766 -0.1261  0.0976
 1238ERGO    R216665   0.439   4.846   9.011 -0.3131 -0.1164  0.1249
 1238ERGO    R316666   0.525   4.688   8.808 -0.0258  0.0699  0.0962
 1238ERGO    R416667   0.332   4.870   8.684 -0.1689 -0.1009  0.0784
 1238ERGO    R516668   0.330   4.652   8.674  0.0857 -0.0980 -0.0206
 1238ERGO    C116669   0.350   4.735   8.302  0.1849  0.0831  0.0243
 1238ERGO    C216670   0.263   4.770   7.952  0.2890  0.1913  0.0995
 1239ERGO   ROH16671  17.850   5.039   6.478 -0.1028 -0.0860 -0.1943
 1239ERGO    R116672  17.812   5.086   6.754 -0.1260 -0.1966 -0.1776
 1239ERGO    R216673  17.720   4.891   6.927  0.1048 -0.3445 -0.2127
 1239ERGO    R316674  17.945   4.954   7.066  0.0540 -0.1306 -0.2269
 1239ERGO    R416675  17.764   4.842   7.267  0.1590 -0.2512 -0.2062
 1239ERGO    R516676  17.865   5.034   7.277 -0.0062 -0.1656 -0.2394
 1239ERGO    C116677  18.001   4.872   7.594  0.1425  0.0041 -0.2158
 1239ERGO    C216678  18.195   4.931   7.953  0.1752 -0.0719 -0.1868
 1240ERGO   ROH16679   2.907  13.383   6.064 -0.2288  0.0742 -0.0065
 1240ERGO    R116680   2.856  13.427   6.339 -0.1696 -0.0017  0.0171
 1240ERGO    R216681   2.870  13.678   6.454 -0.0010 -0.0540  0.1145
 1240ERGO    R316682   2.618  13.619   6.536 -0.0289  0.0699  0.1191
 1240ERGO    R416683   2.748  13.732   6.773  0.0768 -0.1274  0.1570
 1240ERGO    R516684   2.645  13.540   6.761 -0.0490 -0.0556  0.0784
 1240ERGO    C116685   2.440  13.708   7.036  0.0958 -0.0538  0.1861
 1240ERGO    C216686   2.411  13.893   7.394 -0.0830 -0.2890 -0.2467
 1241ERGO   ROH16687  14.371  13.916   7.566  0.0960  0.1461  0.1019
 1241ERGO    R116688  14.257  13.905   7.824  0.0944 -0.0300  0.0946
 1241ERGO    R216689  14.406  13.858   8.051  0.1406  0.1420  0.1005
 1241ERGO    R316690  14.290  14.089   8.137 -0.1645 -0.0194  0.1158
 1241ERGO    R416691  14.366  13.946   8.383  0.1930  0.1523  0.1045
 1241ERGO    R516692  14.168  14.024   8.333  0.0471 -0.1645  0.1997
 1241ERGO    C116693  14.234  14.214   8.657 -0.0631  0.0066  0.1212
 1241ERGO    C216694  14.189  14.024   9.068  0.1892  0.0461 -0.1136
 1242ERGO   ROH16695  18.785   3.254   5.996 -0.0850 -0.3539  0.0021
 1242ERGO    R116696  18.817   3.231   6.277 -0.0699 -0.2062  0.0135
 1242ERGO    R216697  18.990   3.391   6.420 -0.0540 -0.1372 -0.0815
 1242ERGO    R316698  18.767   3.444   6.567 -0.0429 -0.0485 -0.0963
 1242ERGO    R416699  18.990   3.478   6.755 -0.0241  0.1167 -0.1453
 1242ERGO    R516700  18.815   3.351   6.783 -0.0086  0.1189 -0.0297
 1242ERGO    C116701  18.782   3.578   7.088  0.0037  0.3479 -0.1964
 1242ERGO    C216702  18.837   3.609   7.433 -0.0571  0.0881 -0.1054
 1243ERGO   ROH16703   8.583   4.311   6.421 -0.2180  0.3850  0.0257
 1243ERGO    R116704   8.543   4.226   6.687 -0.2938 -0.0124 -0.1062
 1243ERGO    R216705   8.546   4.400   6.901  0.1123 -0.3834  0.2074
 1243ERGO    R316706   8.302   4.292   6.953 -0.0884 -0.0117  0.0829
 1243ERGO    R416707   8.385   4.415   7.206  0.1751 -0.4941  0.2479
 1243ERGO    R516708   8.321   4.209   7.177 -0.2093 -0.3504 -0.0250
 1243ERGO    C116709   8.061   4.323   7.432  0.0234 -0.2095  0.1545
 1243ERGO    C216710   7.857   4.369   7.553 -0.3736  0.0124 -0.1250
 1244ERGO   ROH16711   0.052  19.037   6.314 -0.0278  0.1197 -0.2197
 1244ERGO    R116712  -0.078  19.122   6.550 -0.1361  0.0694 -0.2605
 1244ERGO    R216713   0.037  19.300   6.727 -0.0867 -0.1987 -0.0144
 1244ERGO    R316714  -0.194  19.439   6.689  0.0952  0.0883 -0.1054
 1244ERGO    R416715  -0.152  19.444   6.979 -0.0808 -0.0810 -0.0766
 1244ERGO    R516716  -0.332  19.378   6.875 -0.0956  0.1712 -0.2176
 1244ERGO    C116717  -0.478  19.658   7.088  0.0935  0.2570 -0.1983
 1244ERGO    C216718  -0.825  19.919   7.142 -0.2892  0.1143 -0.0176
 1245ERGO   ROH16719   0.980  11.148   6.017  0.2448 -0.0382  0.0365
 1245ERGO    R116720   0.886  11.185   6.281  0.0805 -0.1446 -0.0068
 1245ERGO    R216721   0.837  10.974   6.453  0.1823 -0.2014 -0.0540
 1245ERGO    R316722   1.005  11.111   6.617 -0.0211 -0.0677  0.0479
 1245ERGO    R416723   0.799  11.004   6.795  0.0015 -0.3130 -0.0623
 1245ERGO    R516724   0.860  11.212   6.779 -0.1960 -0.2432  0.0088
 1245ERGO    C116725   0.934  11.150   7.148 -0.2948 -0.2526  0.0285
 1245ERGO    C216726   1.112  11.239   7.454  0.2719 -0.0613  0.1062
 1246ERGO   ROH16727   6.111  13.241   5.878 -0.3138 -0.0330 -0.0307
 1246ERGO    R116728   6.210  13.305   6.135 -0.0778 -0.0399 -0.1183
 1246ERGO    R216729   6.044  13.338   6.354  0.1222 -0.0188  0.0243
 1246ERGO    R316730   6.207  13.151   6.465  0.2008 -0.0317 -0.1078
 1246ERGO    R416731   6.060  13.264   6.692  0.2387 -0.1505 -0.0082
 1246ERGO    R516732   6.276  13.247   6.673  0.2442 -0.0957 -0.0860
 1246ERGO    C116733   6.222  13.045   6.992  0.3803 -0.2394 -0.1512
 1246ERGO    C216734   6.267  12.955   7.320 -0.0358 -0.1387 -0.0591
 1247ERGO   ROH16735  13.272  14.847   9.130 -0.0160  0.0715  0.0650
 1247ERGO    R116736  13.408  14.921   8.892 -0.1664  0.1262 -0.0055
 1247ERGO    R216737  13.453  14.742   8.686 -0.0041  0.0774  0.0711
 1247ERGO    R316738  13.329  14.933   8.537 -0.2810 -0.1382  0.0054
 1247ERGO    R416739  13.495  14.786   8.346  0.0862  0.1293  0.0894
 1247ERGO    R516740  13.494  15.001   8.378 -0.3115  0.1475  0.0834
 1247ERGO    C116741  13.402  14.991   8.008 -0.1212 -0.0429  0.0383
 1247ERGO    C216742  13.178  15.101   7.700  0.2166 -0.1142  0.1973
 1248ERGO   ROH16743   7.987  11.705   5.833  0.0118 -0.2687  0.0115
 1248ERGO    R116744   7.929  11.687   6.110  0.2457  0.0278  0.0872
 1248ERGO    R216745   7.807  11.466   6.222 -0.3808  0.4402  0.2977
 1248ERGO    R316746   8.024  11.470   6.387 -0.1544 -0.2041  0.0465
 1248ERGO    R416747   7.807  11.364   6.552 -0.2339  0.2990  0.2540
 1248ERGO    R516748   7.935  11.533   6.600  0.2764 -0.0587  0.1843
 1248ERGO    C116749   8.009  11.308   6.899  0.0641 -0.3882 -0.0072
 1248ERGO    C216750   8.017  11.124   7.255 -0.1656  0.1064 -0.0531
 1249ERGO   ROH16751  11.887  16.897   6.013 -0.1447 -0.0746  0.0613
 1249ERGO    R116752  12.085  16.999   6.188 -0.0473 -0.3032  0.0859
 1249ERGO    R216753  12.045  17.225   6.342  0.3180 -0.0481 -0.1860
 1249ERGO    R316754  12.115  17.059   6.546 -0.1707  0.0148  0.0470
 1249ERGO    R416755  12.177  17.329   6.644  0.4918  0.0112 -0.2797
 1249ERGO    R516756  12.313  17.159   6.638  0.0690 -0.3648 -0.0266
 1249ERGO    C116757  12.319  17.234   7.012  0.1343  0.1045 -0.1156
 1249ERGO    C216758  12.401  17.396   7.293 -0.0979 -0.2017  0.2215
 1250ERGO   ROH16759  17.356   3.676   9.624 -0.0747 -0.1815 -0.2230
 1250ERGO    R116760  17.313   3.771   9.361  0.0516 -0.0729 -0.2048
 1250ERGO    R216761  17.158   3.992   9.306 -0.0466 -0.1423 -0.1986
 1250ERGO    R316762  17.381   4.077   9.176 -0.0072  0.0656 -0.0017
 1250ERGO    R416763  17.157   4.173   9.012  0.0370 -0.3481 -0.3282
 1250ERGO    R516764  17.326   4.053   8.944  0.2834 -0.1739 -0.0535
 1250ERGO    C116765  17.365   4.359   8.719  0.1225 -0.2727 -0.2188
 1250ERGO    C216766  17.317   4.658   8.488 -0.3160  0.1450  0.1454
 1251ERGO   ROH16767   5.934   7.893   6.007 -0.0360  0.1938 -0.0657
 1251ERGO    R116768   6.019   7.952   6.270  0.0530  0.1216 -0.0778
 1251ERGO    R216769   5.993   7.773   6.478 -0.0710  0.1424 -0.0737
 1251ERGO    R316770   6.260   7.816   6.507 -0.0276 -0.0859 -0.1133
 1251ERGO    R416771   6.167   7.739   6.775 -0.0840  0.1473 -0.0655
 1251ERGO    R516772   6.280   7.918   6.723  0.0785  0.0159 -0.1712
 1251ERGO    C116773   6.519   7.760   6.975 -0.0509 -0.0642 -0.0980
 1251ERGO    C216774   6.426   7.516   7.372  0.3690  0.1823 -0.2086
 1252ERGO   ROH16775  14.671   2.339   6.209 -0.4609  0.0872 -0.0257
 1252ERGO    R116776  14.581   2.381   6.474 -0.2794 -0.0123  0.0531
 1252ERGO    R216777  14.702   2.261   6.693 -0.1545 -0.1271 -0.0766
 1252ERGO    R316778  14.720   2.517   6.782 -0.0537 -0.1685  0.0232
 1252ERGO    R416779  14.800   2.353   7.011 -0.1905 -0.2952 -0.0164
 1252ERGO    R516780  14.646   2.507   7.009 -0.1170 -0.2191  0.0009
 1252ERGO    C116781  14.874   2.647   7.280 -0.1169 -0.4319  0.1123
 1252ERGO    C216782  14.813   2.682   7.549  0.2917 -0.0123 -0.8196
 1253ERGO   ROH16783   5.895  15.609   8.975 -0.1192 -0.1598 -0.0570
 1253ERGO    R116784   5.789  15.409   8.804 -0.0364 -0.2495 -0.0057
 1253ERGO    R216785   5.842  15.402   8.533 -0.1826 -0.1892 -0.0412
 1253ERGO    R316786   5.923  15.148   8.588  0.0818 -0.1182 -0.0912
 1253ERGO    R416787   5.840  15.141   8.307 -0.2079 -0.2228 -0.0013
 1253ERGO    R516788   5.770  15.010   8.466  0.0666 -0.2596  0.0895
 1253ERGO    C116789   5.914  14.751   8.226  0.0256 -0.1757 -0.0249
 1253ERGO    C216790   5.784  14.445   7.900  0.0078 -0.0289  0.0897
 1254ERGO   ROH16791   9.666  10.406   5.648 -0.0329  0.2325 -0.0440
 1254ERGO    R116792   9.752  10.533   5.886  0.0036  0.0642  0.0350
 1254ERGO    R216793   9.585  10.692   6.038  0.0745  0.1004  0.0788
 1254ERGO    R316794   9.661  10.524   6.238 -0.0721 -0.0473  0.0130
 1254ERGO    R416795   9.518  10.742   6.373  0.0807  0.0016  0.0946
 1254ERGO    R516796   9.719  10.670   6.419  0.0221 -0.1718  0.0835
 1254ERGO    C116797   9.550  10.613   6.756 -0.0533 -0.1946  0.0420
 1254ERGO    C216798   9.341  10.536   6.990  0.2123 -0.0181  0.3075
 1255ERGO   ROH16799   0.631   4.046   7.452  0.0457  0.0648  0.3766
 1255ERGO    R116800   0.836   4.189   7.318 -0.0196  0.0854  0.2987
 1255ERGO    R216801   0.964   4.405   7.431  0.0993  0.0061  0.3090
 1255ERGO    R316802   1.188   4.261   7.376  0.0374 -0.0091  0.0856
 1255ERGO    R416803   1.238   4.524   7.257 -0.0105  0.0390  0.1564
 1255ERGO    R516804   1.251   4.332   7.156 -0.1148  0.0744  0.0642
 1255ERGO    C116805   1.607   4.458   7.103 -0.1324  0.0438 -0.1422
 1255ERGO    C216806   1.854   4.500   6.826 -0.0547 -0.0111 -0.3364
 1256ERGO   ROH16807  18.758  10.010   5.453  0.0874 -0.0496 -0.0776
 1256ERGO    R116808  18.820   9.890   5.701  0.0079  0.0316 -0.0184
 1256ERGO    R216809  19.074   9.896   5.810  0.0038 -0.0652 -0.0151
 1256ERGO    R316810  18.945  10.000   6.025  0.0609  0.1101 -0.0637
 1256ERGO    R416811  19.163   9.841   6.139 -0.1201 -0.1053  0.0126
 1256ERGO    R516812  18.951   9.826   6.189 -0.1558  0.1238 -0.0317
 1256ERGO    C116813  19.094   9.908   6.533 -0.1387  0.0359 -0.0168
 1256ERGO    C216814  19.282  10.044   6.785 -0.0376 -0.0189  0.0512
 1257ERGO   ROH16815   6.593  15.196   5.615  0.1456 -0.0526 -0.1269
 1257ERGO    R116816   6.762  15.296   5.819  0.0009  0.0775 -0.0690
 1257ERGO    R216817   6.700  15.522   5.965 -0.2615 -0.0155 -0.0329
 1257ERGO    R316818   6.738  15.356   6.177 -0.1363 -0.0226 -0.0600
 1257ERGO    R416819   6.775  15.625   6.287 -0.0478 -0.0228 -0.0784
 1257ERGO    R516820   6.914  15.459   6.303 -0.0467 -0.0341 -0.1715
 1257ERGO    C116821   6.854  15.529   6.673  0.1940 -0.0336 -0.1304
 1257ERGO    C216822   6.858  15.382   6.903 -0.1042  0.2281 -0.2782
 1258ERGO   ROH16823  12.020  11.451   6.544 -0.1360 -0.0401 -0.1328
 1258ERGO    R116824  12.229  11.262   6.565  0.0936  0.2298  0.1270
 1258ERGO    R216825  12.442  11.292   6.739 -0.2779  0.3974  0.5751
 1258ERGO    R316826  12.366  11.045   6.824 -0.1176  0.2248  0.2350
 1258ERGO    R416827  12.605  11.105   6.980 -0.3050  0.2787  0.5017
 1258ERGO    R516828  12.571  10.928   6.860 -0.0366  0.3781  0.2717
 1258ERGO    C116829  12.628  10.765   7.200 -0.1703  0.0476  0.1397
 1258ERGO    C216830  12.678  10.775   7.604 -0.0679 -0.0981 -0.0193
 1259ERGO   ROH16831   7.203   7.341   5.647 -0.1485 -0.2862  0.1488
 1259ERGO    R116832   7.276   7.341   5.920 -0.0391 -0.4740  0.1223
 1259ERGO    R216833   7.178   7.526   6.100  0.5580 -0.1589  0.1514
 1259ERGO    R316834   7.104   7.305   6.239 -0.0391  0.0469  0.1884
 1259ERGO    R416835   7.211   7.488   6.442  0.4354 -0.1919  0.1596
 1259ERGO    R516836   7.273   7.281   6.407 -0.1031 -0.3714  0.2012
 1259ERGO    C116837   7.161   7.257   6.772 -0.1964 -0.0180  0.1990
 1259ERGO    C216838   7.312   7.228   7.125  0.1184 -0.2085 -0.0911
 1260ERGO   ROH16839  16.560   4.680   9.751  0.0153 -0.1044  0.0188
 1260ERGO    R116840  16.445   4.824   9.536  0.1340 -0.1327 -0.0647
 1260ERGO    R216841  16.321   5.068   9.571 -0.1347 -0.2590 -0.1175
 1260ERGO    R316842  16.495   5.148   9.378  0.0230 -0.0262  0.1153
 1260ERGO    R416843  16.308   5.372   9.407 -0.2964 -0.2556 -0.1009
 1260ERGO    R516844  16.360   5.269   9.222  0.0731 -0.1780 -0.0489
 1260ERGO    C116845  16.465   5.625   9.131 -0.2427 -0.0350  0.1273
 1260ERGO    C216846  16.392   5.962   9.003  0.5504 -0.2489  0.1811
 1261ERGO   ROH16847  11.992   9.787   9.199 -0.1061 -0.0879  0.0893
 1261ERGO    R116848  11.949   9.810   8.920  0.0939  0.0214  0.0659
 1261ERGO    R216849  12.134   9.724   8.734  0.1139 -0.1549  0.1654
 1261ERGO    R316850  11.924   9.582   8.637  0.0057  0.1082  0.0031
 1261ERGO    R416851  12.099   9.621   8.406  0.3141 -0.2351  0.1671
 1261ERGO    R516852  11.887   9.671   8.418  0.3653  0.0769 -0.0762
 1261ERGO    C116853  11.880   9.428   8.124  0.3291 -0.0349  0.0158
 1261ERGO    C216854  11.993   9.240   7.842  0.1920  0.2298  0.1159
 1262ERGO   ROH16855  11.522   3.514   5.976 -0.0263  0.0875 -0.1074
 1262ERGO    R116856  11.620   3.347   6.183 -0.1470 -0.0307 -0.1447
 1262ERGO    R216857  11.744   3.447   6.409  0.1292 -0.1785 -0.2283
 1262ERGO    R316858  11.555   3.299   6.538 -0.0125  0.1066 -0.0999
 1262ERGO    R416859  11.729   3.401   6.751  0.4286 -0.3194 -0.2305
 1262ERGO    R516860  11.675   3.193   6.716 -0.0035 -0.2107 -0.2848
 1262ERGO    C116861  11.543   3.237   7.071  0.4700 -0.1337 -0.1113
 1262ERGO    C216862  11.506   3.449   7.304  0.1703 -0.3061  0.1098
 1263ERGO   ROH16863  12.383  16.333   6.171  0.2301 -0.0649 -0.1734
 1263ERGO    R116864  12.443  16.276   6.442  0.1439  0.0169 -0.1361
 1263ERGO    R216865  12.407  16.026   6.553 -0.1549  0.1151  0.0040
 1263ERGO    R316866  12.668  16.054   6.621 -0.1239 -0.1465  0.0027
 1263ERGO    R416867  12.563  15.858   6.812 -0.2933 -0.1041 -0.0522
 1263ERGO    R516868  12.669  16.042   6.860 -0.1218 -0.2170 -0.0026
 1263ERGO    C116869  12.899  15.787   7.027 -0.3446 -0.4773 -0.0861
 1263ERGO    C216870  13.152  15.567   7.121 -0.1065 -0.0215 -0.4399
 1264ERGO   ROH16871  10.319  13.176   5.505  0.3118 -0.0752  0.0104
 1264ERGO    R116872  10.392  13.188   5.778  0.0996  0.1808  0.0604
 1264ERGO    R216873  10.626  13.077   5.875 -0.1423 -0.0489  0.4050
 1264ERGO    R316874  10.665  13.327   5.974  0.1502  0.0301  0.0982
 1264ERGO    R416875  10.781  13.149   6.175 -0.0033  0.1347  0.2907
 1264ERGO    R516876  10.632  13.304   6.210  0.1701  0.3431  0.1379
 1264ERGO    C116877  10.909  13.425   6.443  0.3522  0.3156 -0.0639
 1264ERGO    C216878  10.990  13.383   6.730 -0.0180 -0.0115 -0.1560
 1265ERGO   ROH16879   1.630   8.209   9.118 -0.1142 -0.1677  0.0069
 1265ERGO    R116880   1.827   8.162   8.921 -0.1886 -0.0652 -0.0932
 1265ERGO    R216881   2.035   7.983   8.957  0.0228  0.1671 -0.1278
 1265ERGO    R316882   1.943   7.879   8.724 -0.0189 -0.0512 -0.0158
 1265ERGO    R416883   2.205   7.990   8.657 -0.0044 -0.1657 -0.1541
 1265ERGO    R516884   2.017   8.033   8.556 -0.0063 -0.2315 -0.1792
 1265ERGO    C116885   2.218   7.895   8.263 -0.0594 -0.5644 -0.0643
 1265ERGO    C216886   2.406   7.990   8.059  0.0841 -0.2166  0.2102
 1266ERGO   ROH16887  10.447  16.265   5.904 -0.0608  0.1085 -0.0807
 1266ERGO    R116888  10.565  16.226   6.159  0.0297  0.1799 -0.1091
 1266ERGO    R216889  10.498  16.379   6.379 -0.0124  0.1401 -0.0827
 1266ERGO    R316890  10.451  16.136   6.492  0.1650  0.1054 -0.0847
 1266ERGO    R416891  10.509  16.313   6.718  0.0271  0.1335 -0.0870
 1266ERGO    R516892  10.606  16.123   6.673  0.1641  0.2120 -0.0843
 1266ERGO    C116893  10.471  16.046   7.022  0.2167  0.0973 -0.0912
 1266ERGO    C216894  10.409  16.029   7.389 -0.2614 -0.0514  0.0816
 1267ERGO   ROH16895   8.363  17.245   9.122  0.0054 -0.0246 -0.0991
 1267ERGO    R116896   8.443  17.171   8.861  0.0379  0.0134 -0.0996
 1267ERGO    R216897   8.270  17.171   8.646  0.0558  0.0081 -0.1126
 1267ERGO    R316898   8.459  17.331   8.535  0.0407  0.0475 -0.0832
 1267ERGO    R416899   8.236  17.337   8.345  0.0488  0.0388 -0.0954
 1267ERGO    R516900   8.443  17.287   8.300  0.0594  0.0721 -0.0900
 1267ERGO    C116901   8.394  17.583   8.065  0.0307  0.0937 -0.0577
 1267ERGO    C216902   8.386  17.696   7.805 -0.1298  0.2031 -0.2475
 1268ERGO   ROH16903  17.399  15.665   6.452  0.0420  0.3100  0.0863
 1268ERGO    R116904  17.464  15.441   6.612  0.0209  0.1678 -0.0972
 1268ERGO    R216905  17.595  15.464   6.854  0.1840 -0.0599 -0.1505
 1268ERGO    R316906  17.382  15.323   6.947  0.1574 -0.0001 -0.1243
 1268ERGO    R416907  17.612  15.219   7.097  0.1234 -0.0435 -0.1311
 1268ERGO    R516908  17.468  15.102   6.982  0.0943 -0.0147 -0.1064
 1268ERGO    C116909  17.422  14.943   7.325  0.0629  0.0221 -0.0952
 1268ERGO    C216910  17.373  14.772   7.636  0.0755 -0.1033  0.1947
 1269ERGO   ROH16911   3.785  15.114   6.010  0.0199  0.0099  0.0050
 1269ERGO    R116912   3.811  14.983   6.259 -0.1078 -0.1024 -0.0394
 1269ERGO    R216913   3.901  15.111   6.487  0.2133 -0.3117 -0.0407
 1269ERGO    R316914   3.669  15.017   6.593  0.0829  0.0653  0.0264
 1269ERGO    R416915   3.864  15.001   6.812  0.1479 -0.3307 -0.0545
 1269ERGO    R516916   3.739  14.838   6.737 -0.1700 -0.0973 -0.0473
 1269ERGO    C116917   3.625  14.847   7.101 -0.0126  0.0120  0.0004
 1269ERGO    C216918   3.547  14.947   7.414  0.2792  0.0115 -0.2480
 1270ERGO   ROH16919   8.281   9.918   5.800 -0.1097 -0.0629 -0.0421
 1270ERGO    R116920   8.266  10.012   6.066 -0.0835 -0.0057 -0.0606
 1270ERGO    R216921   8.159  10.258   6.132 -0.1010 -0.0032 -0.1006
 1270ERGO    R316922   8.002  10.110   6.297 -0.0627  0.0167 -0.0460
 1270ERGO    R416923   8.096  10.334   6.463 -0.0663  0.0672 -0.1099
 1270ERGO    R516924   8.113  10.121   6.509 -0.0357  0.0792 -0.0626
 1270ERGO    C116925   7.912  10.239   6.811 -0.0100  0.1270 -0.0640
 1270ERGO    C216926   7.742  10.348   7.190 -0.2576 -0.4205 -0.0587
 1271ERGO   ROH16927  18.286  18.449   6.725  0.0977  0.2436  0.0215
 1271ERGO    R116928  18.194  18.471   6.992  0.0959  0.0867  0.0386
 1271ERGO    R216929  18.366  18.492   7.208  0.1042  0.1121  0.0530
 1271ERGO    R316930  18.220  18.715   7.261 -0.0311  0.0051  0.1181
 1271ERGO    R416931  18.422  18.708   7.472  0.0443  0.1802  0.0072
 1271ERGO    R516932  18.206  18.723   7.500  0.0668  0.0223  0.1072
 1271ERGO    C116933  18.317  19.042   7.676 -0.1175  0.1195  0.0416
 1271ERGO    C216934  18.406  19.239   7.933  0.0443  0.0053 -0.1877
 1272ERGO   ROH16935  16.207   7.268   5.897 -0.1299  0.0696  0.0381
 1272ERGO    R116936  16.117   7.350   6.152 -0.1508  0.3072 -0.0432
 1272ERGO    R216937  16.250   7.284   6.386 -0.4628  0.0503  0.0701
 1272ERGO    R316938  16.246   7.553   6.426  0.0885  0.0788  0.0179
 1272ERGO    R416939  16.366   7.444   6.670 -0.3150 -0.1469  0.1233
 1272ERGO    R516940  16.194   7.578   6.658 -0.0263  0.2271 -0.0221
 1272ERGO    C116941  16.429   7.789   6.872  0.2883 -0.2349  0.1053
 1272ERGO    C216942  16.434   8.006   6.996  0.0137 -0.0695 -0.2570
 1273ERGO   ROH16943   7.772  16.907   6.269  0.2425 -0.0366  0.0154
 1273ERGO    R116944   7.907  16.801   6.494  0.2392 -0.0482  0.0115
 1273ERGO    R216945   7.877  16.904   6.749  0.1069 -0.1667  0.0429
 1273ERGO    R316946   7.814  16.647   6.811  0.2375 -0.2284 -0.0744
 1273ERGO    R416947   7.939  16.753   7.053 -0.0778 -0.1784  0.0762
 1273ERGO    R516948   7.997  16.572   6.947  0.1651 -0.1168  0.0909
 1273ERGO    C116949   7.917  16.424   7.289 -0.0628 -0.2434 -0.0144
 1273ERGO    C216950   7.798  16.203   7.661  0.0517  0.2422 -0.2202
 1274ERGO   ROH16951  16.126  17.679   6.152  0.2634 -0.2028 -0.1611
 1274ERGO    R116952  16.253  17.847   6.341  0.0601 -0.1239 -0.0919
 1274ERGO    R216953  16.374  17.750   6.569 -0.0182 -0.0475 -0.0152
 1274ERGO    R316954  16.588  17.888   6.475 -0.0396  0.0673  0.1034
 1274ERGO    R416955  16.691  17.741   6.707 -0.0314 -0.0641  0.0134
 1274ERGO    R516956  16.707  17.955   6.673 -0.0778 -0.0377  0.1611
 1274ERGO    C116957  17.077  17.865   6.699 -0.0590  0.0340  0.1413
 1274ERGO    C216958  17.430  17.927   6.665  0.2208  0.2793 -0.2687
 1275ERGO   ROH16959   0.361   4.885   5.850  0.0656  0.1842 -0.2043
 1275ERGO    R116960   0.558   4.880   6.053  0.0426  0.1255 -0.1834
 1275ERGO    R216961   0.631   4.648   6.184 -0.0095  0.0957 -0.2057
 1275ERGO    R316962   0.881   4.721   6.105  0.0108  0.0662 -0.1700
 1275ERGO    R416963   0.921   4.584   6.362 -0.0587  0.2359 -0.0720
 1275ERGO    R516964   0.992   4.783   6.308 -0.0592  0.2062 -0.1756
 1275ERGO    C116965   1.324   4.615   6.391 -0.0683  0.2898  0.0394
 1275ERGO    C216966   1.398   4.505   6.635  0.3650 -0.0878  0.1630
 1276ERGO   ROH16967   2.805   6.552   8.679  0.1736 -0.0267  0.0627
 1276ERGO    R116968   2.689   6.643   8.438  0.1229 -0.0007  0.0980
 1276ERGO    R216969   2.828   6.650   8.199  0.0703  0.0307  0.0774
 1276ERGO    R316970   2.618   6.504   8.109  0.0555  0.0418  0.0912
 1276ERGO    R416971   2.752   6.598   7.866 -0.1826  0.4085  0.0700
 1276ERGO    R516972   2.541   6.622   7.916 -0.1640  0.2568  0.2926
 1276ERGO    C116973   2.510   6.430   7.588 -0.3438  0.6388  0.0786
 1276ERGO    C216974   2.665   6.481   7.261  0.4231  0.1799  0.3774
 1277ERGO   ROH16975  12.470  12.354   5.659 -0.0110 -0.0193 -0.0546
 1277ERGO    R116976  12.357  12.370   5.918 -0.0624 -0.1219 -0.0728
 1277ERGO    R216977  12.111  12.262   5.980  0.0333 -0.3409 -0.1133
 1277ERGO    R316978  12.252  12.135   6.175  0.1099 -0.2164 -0.0828
 1277ERGO    R416979  11.999  12.213   6.303  0.0403 -0.3415 -0.1087
 1277ERGO    R516980  12.201  12.259   6.375  0.0197 -0.1983 -0.1077
 1277ERGO    C116981  12.066  12.066   6.675  0.1162 -0.2250 -0.0774
 1277ERGO    C216982  11.811  11.938   6.834  0.0806 -0.0108  0.3164
 1278ERGO   ROH16983   2.123  11.199   6.037  0.1783 -0.1954  0.1469
 1278ERGO    R116984   1.945  11.109   6.239  0.0542  0.0084  0.1302
 1278ERGO    R216985   1.702  11.231   6.287 -0.0041  0.0219 -0.1843
 1278ERGO    R316986   1.606  10.979   6.253  0.0683 -0.0396  0.0457
 1278ERGO    R416987   1.463  11.081   6.487 -0.2289  0.2736 -0.2574
 1278ERGO    R516988   1.576  10.896   6.475 -0.1883  0.2633  0.1338
 1278ERGO    C116989   1.234  10.757   6.571 -0.2918  0.3623 -0.0841
 1278ERGO    C216990   1.136  10.565   6.681 -0.4060 -0.0495 -0.0649
 1279ERGO   ROH16991   4.599   7.864   9.132  0.0488  0.2250  0.0032
 1279ERGO    R116992   4.630   7.801   8.858 -0.0795  0.0606  0.0247
 1279ERGO    R216993   4.427   7.837   8.673 -0.0578  0.2755  0.0395
 1279ERGO    R316994   4.616   7.982   8.542  0.1386 -0.0513 -0.0507
 1279ERGO    R416995   4.391   7.969   8.356  0.0497  0.2756  0.0269
 1279ERGO    R516996   4.597   7.913   8.314 -0.0488 -0.0668 -0.0319
 1279ERGO    C116997   4.547   8.181   8.048  0.2966 -0.0312 -0.0649
 1279ERGO    C216998   4.613   8.510   7.917 -0.0889  0.0450  0.0628
 1280ERGO   ROH16999   4.804  17.486   9.189 -0.1725  0.1804  0.0165
 1280ERGO    R117000   4.849  17.606   8.937 -0.1647  0.1194 -0.0103
 1280ERGO    R217001   4.942  17.464   8.719 -0.0604  0.0924  0.0571
 1280ERGO    R317002   4.720  17.566   8.599 -0.0703 -0.0338 -0.0294
 1280ERGO    R417003   4.914  17.535   8.382  0.1060  0.2599  0.0767
 1280ERGO    R517004   4.806  17.716   8.433 -0.0883  0.1369  0.1122
 1280ERGO    C117005   4.691  17.672   8.073  0.1936  0.2390  0.0068
 1280ERGO    C217006   4.530  17.727   7.775 -0.0882  0.2361  0.0583
 1281ERGO   ROH17007   0.881   7.145   6.101 -0.0879  0.1129 -0.1884
 1281ERGO    R117008   0.800   6.999   6.330  0.1229  0.1313 -0.1007
 1281ERGO    R217009   0.626   7.103   6.518  0.0458  0.0285 -0.1201
 1281ERGO    R317010   0.486   6.876   6.467  0.2868 -0.1594  0.0250
 1281ERGO    R417011   0.400   6.958   6.736 -0.1089  0.1687 -0.1839
 1281ERGO    R517012   0.478   6.762   6.678  0.1214  0.1368  0.1882
 1281ERGO    C117013   0.137   6.660   6.815  0.0274  0.0740 -0.0847
 1281ERGO    C217014  -0.213   6.545   6.775 -0.2038 -0.0778 -0.0542
 1282ERGO   ROH17015   2.417   8.958   9.300 -0.3934 -0.0573 -0.1229
 1282ERGO    R117016   2.570   8.946   9.062 -0.1436 -0.0389  0.0344
 1282ERGO    R217017   2.484   8.813   8.836  0.1289 -0.0894 -0.0401
 1282ERGO    R317018   2.530   9.053   8.716  0.1817 -0.0901 -0.0228
 1282ERGO    R417019   2.458   8.873   8.496  0.3375 -0.1092 -0.0615
 1282ERGO    R517020   2.637   8.997   8.510  0.3192 -0.0909  0.0460
 1282ERGO    C117021   2.486   9.133   8.187  0.5085 -0.1215 -0.0578
 1282ERGO    C217022   2.329   9.305   7.869 -0.1325  0.2648 -0.0934
 1283ERGO   ROH17023   1.086   6.893   9.159 -0.0706  0.3975 -0.2259
 1283ERGO    R117024   1.184   6.860   8.896 -0.0541  0.1826 -0.1934
 1283ERGO    R217025   1.169   6.619   8.761 -0.0823  0.0862 -0.0115
 1283ERGO    R317026   1.046   6.770   8.571 -0.0388 -0.0390 -0.1422
 1283ERGO    R417027   1.127   6.524   8.431  0.3713  0.0302 -0.0608
 1283ERGO    R517028   1.173   6.729   8.372  0.2254  0.0860 -0.0096
 1283ERGO    C117029   0.986   6.611   8.061  0.6763 -0.1201 -0.2123
 1283ERGO    C217030   1.043   6.539   7.789  0.1439 -0.0380  0.4445
 1284ERGO   ROH17031  11.098  17.185   5.838  0.0963 -0.2719 -0.0116
 1284ERGO    R117032  11.000  16.969   5.993 -0.2756 -0.1088 -0.0135
 1284ERGO    R217033  11.113  16.894   6.232 -0.2645 -0.4377 -0.1285
 1284ERGO    R317034  10.860  16.924   6.326 -0.1411  0.0901  0.0751
 1284ERGO    R417035  10.991  16.742   6.517 -0.4903 -0.6999 -0.3577
 1284ERGO    R517036  10.803  16.707   6.411 -0.6856  0.0396 -0.3398
 1284ERGO    C117037  10.682  16.682   6.772 -0.5059 -0.3569 -0.3002
 1284ERGO    C217038  10.830  16.755   7.198  0.3762 -0.0420 -0.2102
 1285ERGO   ROH17039   4.104   8.280   6.185  0.0890 -0.1326 -0.0844
 1285ERGO    R117040   4.076   8.295   6.467  0.1060 -0.1954 -0.0798
 1285ERGO    R217041   3.855   8.408   6.588  0.1355 -0.1858 -0.0433
 1285ERGO    R317042   3.842   8.168   6.716  0.0965 -0.2128 -0.0956
 1285ERGO    R417043   3.611   8.319   6.816  0.3340 -0.0389  0.2330
 1285ERGO    R517044   3.766   8.223   6.936  0.4103 -0.2027  0.0197
 1285ERGO    C117045   3.457   8.042   7.069  0.4130  0.0212  0.3448
 1285ERGO    C217046   3.311   7.775   7.192  0.1285 -0.3397 -0.1766
 1286ERGO   ROH17047   6.501   9.472   5.632 -0.0340 -0.1397 -0.0534
 1286ERGO    R117048   6.396   9.385   5.880 -0.1450  0.2028  0.0190
 1286ERGO    R217049   6.535   9.217   6.051 -0.3915  0.1317  0.1127
 1286ERGO    R317050   6.488   9.415   6.231 -0.0843  0.3202  0.0015
 1286ERGO    R417051   6.606   9.201   6.389 -0.4839  0.1267  0.1367
 1286ERGO    R517052   6.419   9.302   6.429 -0.3454  0.5012  0.0461
 1286ERGO    C117053   6.604   9.377   6.754 -0.2494  0.3009  0.0463
 1286ERGO    C217054   6.557   9.400   7.095  0.0532 -0.2069  0.1019
 1287ERGO   ROH17055  18.000   6.831   6.261 -0.1713  0.0417  0.0292
 1287ERGO    R117056  17.989   7.046   6.444 -0.3073  0.1379 -0.0909
 1287ERGO    R217057  17.757   7.121   6.573 -0.2840 -0.1700  0.1310
 1287ERGO    R317058  17.908   7.090   6.796  0.0335  0.2150 -0.0163
 1287ERGO    R417059  17.710   7.295   6.868 -0.3487 -0.1770  0.1262
 1287ERGO    R517060  17.927   7.311   6.886 -0.3464  0.2966 -0.1090
 1287ERGO    C117061  17.825   7.367   7.249 -0.0881  0.1805 -0.0148
 1287ERGO    C217062  17.757   7.446   7.568  0.0747  0.1311 -0.1648
 1288ERGO   ROH17063  12.150   7.089   9.506  0.1746 -0.1844 -0.1099
 1288ERGO    R117064  12.023   7.166   9.265  0.1267 -0.1358 -0.0699
 1288ERGO    R217065  12.030   7.425   9.169  0.0315 -0.0952  0.0260
 1288ERGO    R317066  12.127   7.306   8.945  0.0525  0.0187 -0.0262
 1288ERGO    R417067  12.129   7.592   8.883 -0.0798  0.0334  0.0612
 1288ERGO    R517068  12.036   7.434   8.765 -0.0260  0.0326  0.0261
 1288ERGO    C117069  12.277   7.577   8.506 -0.1248  0.2151  0.0329
 1288ERGO    C217070  12.377   7.542   8.124 -0.4201  0.2659 -0.1780
 1289ERGO   ROH17071  15.634  18.632   6.258  0.1952 -0.1771 -0.0194
 1289ERGO    R117072  15.716  18.499   6.495  0.0638 -0.1006  0.0690
 1289ERGO    R217073  15.952  18.559   6.624  0.1196 -0.2452  0.0268
 1289ERGO    R317074  15.789  18.593   6.839  0.1530  0.0567  0.0091
 1289ERGO    R417075  16.058  18.558   6.953  0.0888 -0.4564  0.0389
 1289ERGO    R517076  15.879  18.445   7.005 -0.1403 -0.1253  0.0156
 1289ERGO    C117077  15.968  18.591   7.346  0.1023 -0.2959  0.0294
 1289ERGO    C217078  15.903  18.659   7.777 -0.0705  0.0308  0.2433
 1290ERGO   ROH17079   5.042   0.036   8.865  0.1564  0.0266 -0.1359
 1290ERGO    R117080   5.055   0.133   8.599 -0.0690  0.1424 -0.1083
 1290ERGO    R217081   5.210   0.011   8.404  0.0750  0.4516 -0.1950
 1290ERGO    R317082   4.975   0.005   8.268  0.0407  0.1254 -0.1287
 1290ERGO    R417083   5.178  -0.057   8.067  0.0878  0.5079 -0.2071
 1290ERGO    R517084   5.027   0.099   8.054 -0.1654  0.2782 -0.1150
 1290ERGO    C117085   4.940  -0.103   7.742  0.0630  0.2346 -0.1520
 1290ERGO    C217086   4.816  -0.111   7.434 -0.0402 -0.0667  0.1708
 1291ERGO   ROH17087  16.393  16.080   6.079 -0.0109 -0.2402 -0.0883
 1291ERGO    R117088  16.365  16.170   6.346 -0.0546 -0.0617 -0.1514
 1291ERGO    R217089  16.351  15.996   6.560 -0.1881  0.0771 -0.0456
 1291ERGO    R317090  16.558  16.146   6.653 -0.1554  0.0526 -0.0787
 1291ERGO    R417091  16.496  15.961   6.872 -0.3754  0.2913  0.0687
 1291ERGO    R517092  16.508  16.178   6.886 -0.2640  0.3006 -0.1322
 1291ERGO    C117093  16.775  16.081   7.141 -0.4534  0.3931  0.1042
 1291ERGO    C217094  16.772  15.845   7.432  0.0257 -0.0704  0.0722
 1292ERGO   ROH17095   9.133   2.228   5.800  0.0415 -0.0062 -0.1692
 1292ERGO    R117096   8.989   2.285   6.037 -0.0408 -0.0812 -0.2008
 1292ERGO    R217097   8.954   2.099   6.238  0.0850 -0.0738 -0.1712
 1292ERGO    R317098   9.060   2.295   6.394 -0.0997  0.0450 -0.1921
 1292ERGO    R417099   8.857   2.167   6.563 -0.0389 -0.0717 -0.2079
 1292ERGO    R517100   8.873   2.380   6.518 -0.1929 -0.0690 -0.2527
 1292ERGO    C117101   8.901   2.391   6.898 -0.2845  0.0410 -0.2488
 1292ERGO    C217102   8.961   2.335   7.278 -0.1740 -0.1064  0.1316
 1293ERGO   ROH17103  13.085   0.376   6.213  0.0895  0.1504 -0.1243
 1293ERGO    R117104  13.201   0.446   6.462  0.1489 -0.0614 -0.0905
 1293ERGO    R217105  13.088   0.633   6.631  0.2900 -0.0672  0.0072
 1293ERGO    R317106  13.105   0.431   6.812  0.1503 -0.1721 -0.0937
 1293ERGO    R417107  13.021   0.664   6.969  0.4693 -0.1420  0.0512
 1293ERGO    R517108  13.192   0.535   7.010  0.3522 -0.3508 -0.0814
 1293ERGO    C117109  12.998   0.493   7.335  0.4425 -0.2840 -0.0180
 1293ERGO    C217110  12.719   0.572   7.488  0.1943  0.0057  0.2618
 1294ERGO   ROH17111   6.577  18.010   8.905 -0.0178 -0.1244  0.0129
 1294ERGO    R117112   6.673  18.017   8.639 -0.0325  0.0375  0.0110
 1294ERGO    R217113   6.809  17.805   8.525 -0.1337  0.0655 -0.1597
 1294ERGO    R317114   6.617  17.829   8.333 -0.1351  0.2964 -0.1335
 1294ERGO    R417115   6.859  17.747   8.188 -0.2522 -0.0254 -0.1622
 1294ERGO    R517116   6.733  17.920   8.144 -0.0407  0.1366 -0.1566
 1294ERGO    C117117   6.708  17.734   7.812 -0.3223  0.1385 -0.1391
 1294ERGO    C217118   6.623  17.498   7.484  0.1105  0.6239  0.0727
 1295ERGO   ROH17119   4.925  11.512   6.149  0.0331 -0.2530 -0.0268
 1295ERGO    R117120   5.081  11.670   6.325 -0.1788 -0.1534  0.0733
 1295ERGO    R217121   5.078  11.635   6.600  0.0813 -0.5353  0.0272
 1295ERGO    R317122   5.347  11.612   6.566  0.1232  0.0820 -0.1900
 1295ERGO    R417123   5.316  11.715   6.838  0.0598 -0.3201 -0.0206
 1295ERGO    R517124   5.438  11.801   6.680 -0.2154  0.1530 -0.0082
 1295ERGO    C117125   5.706  11.740   6.945  0.0865  0.3847 -0.2523
 1295ERGO    C217126   5.993  11.726   6.995 -0.1787  0.1955 -0.3941
 1296ERGO   ROH17127  10.655   0.947   9.139  0.0619 -0.1546  0.0885
 1296ERGO    R117128  10.577   1.016   8.876  0.0148 -0.0558  0.1287
 1296ERGO    R217129  10.617   1.268   8.770  0.1384 -0.0645  0.1645
 1296ERGO    R317130  10.742   1.130   8.572 -0.0192 -0.1045  0.0902
 1296ERGO    R417131  10.641   1.373   8.442  0.3159  0.1308  0.2368
 1296ERGO    R517132  10.606   1.167   8.379  0.0463  0.2110  0.0942
 1296ERGO    C117133  10.773   1.304   8.065  0.2714  0.2069  0.2091
 1296ERGO    C217134  10.977   1.531   7.767 -0.0342  0.4589 -0.0595
 1297ERGO   ROH17135  18.778  17.548   6.150  0.0459  0.2329  0.0652
 1297ERGO    R117136  18.797  17.620   6.423  0.1346  0.1336  0.0860
 1297ERGO    R217137  18.580  17.617   6.594  0.1467  0.2664  0.1067
 1297ERGO    R317138  18.741  17.458   6.744  0.0281  0.0818  0.0411
 1297ERGO    R417139  18.565  17.588   6.938  0.1002  0.0991  0.0912
 1297ERGO    R517140  18.783  17.584   6.942  0.0967 -0.0480  0.1094
 1297ERGO    C117141  18.708  17.421   7.279 -0.0382 -0.1715  0.0208
 1297ERGO    C217142  18.797  17.166   7.516  0.1630 -0.0713  0.0468
 1298ERGO   ROH17143   5.126  18.995   5.824  0.0437  0.0467  0.0375
 1298ERGO    R117144   5.129  19.128   6.074  0.1145 -0.0013  0.0624
 1298ERGO    R217145   4.922  19.289   6.160  0.2141  0.1213  0.0773
 1298ERGO    R317146   4.928  19.127   6.377  0.0910  0.0757  0.0474
 1298ERGO    R417147   4.841  19.386   6.481  0.0316  0.0528  0.0534
 1298ERGO    R517148   5.009  19.267   6.554 -0.0093  0.0382  0.1230
 1298ERGO    C117149   4.801  19.290   6.873 -0.1902 -0.0299  0.0114
 1298ERGO    C217150   4.769  19.482   7.212  0.3205 -0.1322 -0.3161
 1299ERGO   ROH17151  13.899   0.542   9.388  0.1964 -0.3932  0.0778
 1299ERGO    R117152  13.928   0.329   9.204  0.1154 -0.2488 -0.1055
 1299ERGO    R217153  13.722   0.154   9.147  0.1453 -0.3085 -0.0135
 1299ERGO    R317154  13.774   0.227   8.891 -0.1597 -0.1036 -0.0225
 1299ERGO    R417155  13.604  -0.010   8.866  0.1842 -0.3709  0.0062
 1299ERGO    R517156  13.799   0.020   8.773  0.0772 -0.0217 -0.1311
 1299ERGO    C117157  13.585  -0.037   8.462 -0.0796 -0.2148  0.0093
 1299ERGO    C217158  13.587  -0.185   8.022  0.3309 -0.4254 -0.2112
 1300ERGO   ROH17159   5.936   4.297   9.046  0.2768  0.1359  0.0263
 1300ERGO    R117160   5.752   4.271   8.832  0.0852 -0.2085  0.2236
 1300ERGO    R217161   5.803   4.371   8.580 -0.4249  0.0108  0.1989
 1300ERGO    R317162   5.749   4.116   8.503  0.0765 -0.0980  0.1696
 1300ERGO    R417163   5.826   4.253   8.256 -0.4467  0.1765  0.1359
 1300ERGO    R517164   5.643   4.139   8.290 -0.1750 -0.2535  0.2687
 1300ERGO    C117165   5.788   3.945   7.995  0.0113  0.1707  0.0717
 1300ERGO    C217166   5.741   3.781   7.743  0.0321  0.2454  0.0665
 1301ERGO   ROH17167   8.615  15.714   8.896 -0.0943 -0.0622 -0.0393
 1301ERGO    R117168   8.549  15.825   8.645 -0.0526 -0.0804 -0.0583
 1301ERGO    R217169   8.736  15.944   8.480 -0.0257 -0.0923 -0.0351
 1301ERGO    R317170   8.641  15.767   8.297  0.0051 -0.1048 -0.0393
 1301ERGO    R417171   8.755  15.985   8.138  0.0812 -0.1394 -0.0353
 1301ERGO    R517172   8.553  15.905   8.122  0.0743 -0.1158 -0.0838
 1301ERGO    C117173   8.677  15.843   7.766  0.1724 -0.1788 -0.0394
 1301ERGO    C217174   8.684  15.775   7.419 -0.0036  0.4109  0.1426
 1302ERGO   ROH17175   5.664   9.945   5.837 -0.1432  0.0143 -0.0143
 1302ERGO    R117176   5.713  10.100   6.069  0.0033  0.0421 -0.0634
 1302ERGO    R217177   5.674  10.003   6.324 -0.0361  0.1409 -0.0316
 1302ERGO    R317178   5.932  10.081   6.358  0.0280 -0.0417 -0.0874
 1302ERGO    R417179   5.829  10.041   6.631 -0.0112  0.2503 -0.0573
 1302ERGO    R517180   5.927  10.221   6.553  0.1369  0.1139 -0.1939
 1302ERGO    C117181   6.162  10.137   6.841  0.0634  0.1426 -0.1247
 1302ERGO    C217182   6.390  10.288   7.083  0.0190  0.3096 -0.0492
 1303ERGO   ROH17183  13.036   3.170   9.855  0.2033  0.1347  0.0697
 1303ERGO    R117184  13.161   3.284   9.628  0.2670  0.0595  0.0655
 1303ERGO    R217185  13.377   3.167   9.502  0.0910 -0.1597 -0.0465
 1303ERGO    R317186  13.219   3.189   9.282  0.0393  0.0982  0.0168
 1303ERGO    R417187  13.493   3.212   9.180  0.0330 -0.3094 -0.0882
 1303ERGO    R517188  13.330   3.352   9.146  0.2334 -0.0592 -0.0120
 1303ERGO    C117189  13.413   3.258   8.785 -0.0494 -0.1544 -0.0529
 1303ERGO    C217190  13.626   3.233   8.381  0.0624  0.0021 -0.0815
 1304ERGO   ROH17191   7.514   3.916   5.924 -0.0106 -0.2979  0.1211
 1304ERGO    R117192   7.404   3.875   6.181 -0.0153 -0.1019  0.1525
 1304ERGO    R217193   7.530   3.961   6.412  0.0408 -0.0325  0.0996
 1304ERGO    R317194   7.293   4.084   6.458  0.1023  0.1084  0.0428
 1304ERGO    R417195   7.420   4.066   6.722 -0.0756 -0.1805  0.1090
 1304ERGO    R517196   7.220   3.996   6.669 -0.0945  0.0057 -0.0670
 1304ERGO    C117197   7.133   4.243   6.946 -0.0855 -0.1345  0.0612
 1304ERGO    C217198   6.881   4.192   7.205  0.1024  0.0425  0.0601
 1305W        W17199   7.946   7.915   4.365 -0.0470 -0.1494  0.1472
 1306W        W17200   1.816  13.338  14.375 -0.1694  0.0046 -0.0138
 1307W        W17201  12.249  10.720  12.311  0.1331 -0.0795  0.3450
 1308W        W17202  14.819  13.755   1.662 -0.1101 -0.0598 -0.5798
 1309W        W17203   4.862   2.688   2.733 -0.0227 -0.2574  0.0896
 1310W        W17204  17.095   7.219  13.955  0.4122 -0.1473  0.1303
 1311W        W17205   9.642  13.042  14.370 -0.1829  0.3504  0.1090
 1312W        W17206   9.340  13.796  11.483 -0.0214 -0.0119 -0.1635
 1313W        W17207  12.498  15.953  11.246  0.3037 -0.0948  0.1164
 1314W        W17208   6.699  14.047  12.577 -0.0050 -0.2784 -0.1016
 1315W        W17209   9.742  13.419  14.680  0.1704 -0.1895  0.0253
 1316W        W17210  14.695   3.787   3.855  0.1906 -0.0473  0.1633
 1317W        W17211   5.669   1.865  10.541 -0.3579  0.0577  0.1158
 1318W        W17212  18.920  18.429   1.996  0.0120  0.0908  0.3264
 1319W        W17213  10.147  12.331  10.228  0.0835 -0.0566 -0.3080
 1320W        W17214  14.035   5.981   2.352  0.0999  0.0726  0.1060
 1321W        W17215  12.054   2.304   1.903  0.0697  0.1500  0.5506
 1322W        W17216   1.845  13.648   4.682 -0.4370  0.2856 -0.0744
 1323W        W17217   1.575  12.046   1.141 -0.0089  0.0623  0.1906
 1324W        W17218   4.795  12.388  11.623 -0.0648  0.0715 -0.0583
 1325W        W17219   0.661  13.622  12.374  0.2353 -0.1441 -0.1244
 1326W        W17220  17.289  15.285  14.892 -0.0367  0.2663 -0.1027
 1327W        W17221  18.435   6.826  14.019  0.2360  0.1943  0.1908
 1328W        W17222   7.571  11.875  14.966  0.0623 -0.2372  0.2040
 1329W        W17223  11.075  10.035  11.899 -0.0154 -0.0945  0.0835
 1330W        W17224   4.413  17.828  12.548  0.0430  0.3064 -0.2131
 1331W        W17225  17.853  10.654   1.485  0.1561  0.0132 -0.2570
 1332W        W17226   1.645   8.733  11.690 -0.3122 -0.4181 -0.0476
 1333W        W17227  16.983   6.719   4.908  0.1308  0.3583 -0.0408
 1334W        W17228   7.528  15.696   9.869 -0.1946  0.3090 -0.2573
 1335W        W17229   2.903   0.624   0.524 -0.1920  0.2044  0.1638
 1336W        W17230   9.443  11.450  13.620 -0.1216  0.0907 -0.0678
 1337W        W17231  13.988   0.581  14.108 -0.0439 -0.0754 -0.1002
 1338W        W17232   2.884  12.221  11.679  0.2005 -0.1181  0.0981
 1339W        W17233   1.865  15.118  11.786  0.3013  0.2583  0.2965
 1340W        W17234  11.767   3.296   3.362 -0.2177  0.0566 -0.0715
 1341W        W17235  14.362   7.464  10.775  0.1918 -0.1003 -0.0786
 1342W        W17236   0.076   3.321   4.294  0.0580  0.3534 -0.4328
 1343W        W17237  11.711   9.178  12.972  0.2317 -0.3414  0.2104
 1344W        W17238  10.058   8.277  13.202  0.0185  0.5629  0.0666
 1345W        W17239  15.869  12.450   1.617 -0.3545  0.3139 -0.0470
 1346W        W17240   1.210  12.378   1.590  0.2095  0.3070  0.1937
 1347W        W17241   6.630   7.370   4.270 -0.1412  0.4467  0.0181
 1348W        W17242  11.983  11.036   2.035 -0.3465 -0.1503  0.0875
 1349W        W17243  17.997   9.302   0.941  0.2071 -0.2711  0.0537
 1350W        W17244   4.691   6.665  14.115  0.2361 -0.2398 -0.0976
 1351W        W17245  13.439  12.578  11.162  0.2203 -0.3233 -0.2239
 1352W        W17246  18.694  13.754  13.715  0.1978  0.3360 -0.2561
 1353W        W17247   1.604   4.230  11.095  0.0902 -0.0117 -0.0619
 1354W        W17248   9.836  10.669  12.109 -0.3078 -0.0325 -0.3576
 1355W        W17249   0.343   9.274   3.222 -0.0793 -0.2485  0.1214
 1356W        W17250   1.552  13.326   4.897  0.4457  0.1823 -0.1509
 1357W        W17251  11.220   2.181  14.630  0.0311 -0.0495 -0.1772
 1358W        W17252   5.878   3.558   0.770 -0.1962  0.4265 -0.0548
 1359W        W17253   9.060  13.932  13.194  0.0956  0.0079 -0.1288
 1360W        W17254  13.973   7.833  13.650  0.0865  0.1452  0.0011
 1361W        W17255   6.073  12.502  12.402  0.3737  0.1637 -0.0519
 1362W        W17256  18.988  11.816  10.641  0.1430 -0.2325  0.1041
 1363W        W17257  15.302  16.379  14.528 -0.1312 -0.0587  0.2227
 1364W        W17258   2.285  12.021  13.436  0.0170 -0.2011 -0.3935
 1365W        W17259  10.161   3.645   9.730 -0.0016 -0.2175 -0.2086
 1366W        W17260   4.145   0.577   2.097  0.2339  0.0533  0.2444
 1367W        W17261  13.982  11.942   1.200 -0.0761 -0.0932 -0.0129
 1368W        W17262   8.138  13.699  12.839  0.4425  0.0976 -0.2326
 1369W        W17263   0.743   9.915   2.731  0.0099  0.2066  0.2710
 1370W        W17264   2.779   7.632   2.117 -0.0767  0.0570  0.1873
 1371W        W17265   9.934   9.044  15.038 -0.1671  0.2647 -0.0129
 1372W        W17266   8.701   2.313   2.766 -0.3819  0.3157  0.1886
 1373W        W17267   9.337  17.686   0.546 -0.4331  0.2492 -0.3465
 1374W        W17268  12.755   4.930   2.393  0.0865 -0.0925  0.0963
 1375W        W17269  13.672  15.671   2.522  0.0969  0.0265  0.1856
 1376W        W17270  16.186   6.321  11.336 -0.1429 -0.4259 -0.0654
 1377W        W17271  11.438  12.918   4.252  0.2819 -0.1521 -0.2569
 1378W        W17272  13.967  10.570  15.087 -0.1167  0.2425 -0.0178
 1379W        W17273   9.389  10.875   3.503 -0.0469  0.0906 -0.0044
 1380W        W17274   3.872  16.827  12.433  0.0042  0.2444 -0.1585
 1381W        W17275   4.462   2.575  11.530 -0.1055  0.1173 -0.2251
 1382W        W17276   2.750   1.983  10.512  0.3591 -0.3073  0.0590
 1383W        W17277  11.694  13.612   2.536  0.3009 -0.2948 -0.2919
 1384W        W17278   4.781  10.065   3.718 -0.0697  0.0607  0.1295
 1385W        W17279  14.193  10.424   3.153 -0.0425  0.3081  0.3073
 1386W        W17280  18.018  12.041   5.275 -0.0313  0.1996  0.3330
 1387W        W17281  13.454   6.096  12.742  0.3595  0.2096 -0.2647
 1388W        W17282   0.081  11.262   3.724  0.0745 -0.2586 -0.2249
 1389W        W17283   4.715   9.965  11.282  0.0809 -0.0117  0.0686
 1390W        W17284  16.982   2.061   2.386 -0.1228 -0.0417 -0.3016
 1391W        W17285  12.973   9.906   2.249  0.0167  0.1445 -0.2175
 1392W        W17286  12.760  17.572   0.035  0.0946 -0.0814 -0.2048
 1393W        W17287  11.748  13.130  13.689  0.4154  0.0743 -0.2909
 1394W        W17288  13.538  16.085  14.463  0.0395  0.0987 -0.1006
 1395W        W17289  11.044   8.359   2.287  0.1520 -0.0596 -0.2471
 1396W        W17290   2.596   0.784  13.412  0.1725  0.0949  0.0014
 1397W        W17291  14.223   8.389   2.333 -0.2226 -0.0853 -0.1364
 1398W        W17292  10.325   8.413   3.108 -0.4001  0.1497  0.1686
 1399W        W17293   5.038   7.306  15.159 -0.1856 -0.4668 -0.0022
 1400W        W17294  17.291  16.591  11.390  0.1139  0.0813 -0.0508
 1401W        W17295   1.966   2.865  12.608 -0.2659 -0.2514  0.2627
 1402W        W17296   5.155  13.319  12.412  0.1271 -0.1606  0.1675
 1403W        W17297  12.256  10.532   2.011  0.2461 -0.0010 -0.0032
 1404W        W17298   9.427   7.637  11.255 -0.1735 -0.1620  0.0573
 1405W        W17299  16.208  13.443   4.369  0.0852 -0.2470 -0.0779
 1406W        W17300   4.129   4.389   2.868  0.1662  0.5167  0.1560
 1407W        W17301   6.302  11.913   1.856 -0.2231 -0.1184 -0.3101
 1408W        W17302  16.156   3.564   0.888  0.2514 -0.2060  0.1373
 1409W        W17303   0.734   2.013   3.190 -0.1117 -0.0746  0.1745
 1410W        W17304  11.417   4.032   3.860  0.0906 -0.0789 -0.3120
 1411W        W17305   1.332   9.142   3.965 -0.1864  0.0801  0.1126
 1412W        W17306  16.384  12.181  10.812  0.0691  0.0974 -0.2278
 1413W        W17307  12.243   9.271   2.377  0.3421 -0.1181  0.1887
 1414W        W17308   3.892  14.932  14.949  0.2295  0.3070  0.0187
 1415W        W17309  17.361   5.012   1.750 -0.2782 -0.0594 -0.0094
 1416W        W17310   9.719   0.886  12.557 -0.3194 -0.1046  0.1763
 1417W        W17311   4.190  15.017  10.660 -0.3020 -0.2866  0.0069
 1418W        W17312   1.020   2.726   5.319 -0.0017  0.1632 -0.2993
 1419W        W17313   6.548  11.169   3.702  0.0300 -0.1340 -0.0401
 1420W        W17314   7.846  12.053  10.381 -0.0736  0.0479 -0.1159
 1421W        W17315   0.643   9.179  10.887 -0.1095  0.2492  0.1988
 1422W        W17316   6.721  18.226   3.502  0.1827 -0.2521  0.2108
 1423W        W17317   8.666   7.331  13.867 -0.0742  0.2590  0.0216
 1424W        W17318  11.547  14.803  13.275  0.0370  0.2631 -0.1119
 1425W        W17319   3.236   3.100  10.636 -0.2308  0.0073  0.3795
 1426W        W17320  13.248   2.827   4.498  0.0336 -0.2548 -0.2136
 1427W        W17321   1.034   3.779  10.697  0.0913 -0.1066  0.0456
 1428W        W17322  13.812  17.706   0.572  0.2666  0.2434  0.5172
 1429W        W17323  15.961  18.245  14.594 -0.0825 -0.1278 -0.1241
 1430W        W17324  15.568  12.498  13.606  0.0937  0.4043  0.0665
 1431W        W17325   5.002  15.276  10.863  0.1953 -0.0389 -0.1500
 1432W        W17326  17.762  17.600  14.917 -0.0188  0.0071 -0.2728
 1433W        W17327   8.691  10.712   2.087 -0.2909  0.1162 -0.2041
 1434W        W17328   3.447   0.942  10.563  0.1588 -0.3976  0.1810
 1435W        W17329  18.136   8.195   2.320 -0.1067  0.0746 -0.0444
 1436W        W17330   9.327   9.527   1.426 -0.0544 -0.2359  0.3858
 1437W        W17331  15.730  15.901   3.279 -0.3117  0.0380 -0.0257
 1438W        W17332  19.158   5.243   1.963  0.1199  0.1623 -0.1977
 1439W        W17333   1.818   4.498   4.092 -0.0529  0.0967 -0.2889
 1440W        W17334  10.643  12.437  14.312  0.1092  0.1242  0.0719
 1441W        W17335  15.147  14.011   1.308  0.4360  0.1407 -0.0964
 1442W        W17336  10.269  14.781   1.372 -0.1262 -0.3226  0.4137
 1443W        W17337  10.445   0.922  13.755  0.2127  0.2957 -0.3687
 1444W        W17338  12.792   9.473   4.787 -0.2096  0.0186  0.4969
 1445W        W17339  17.144   7.118  12.743 -0.0462 -0.0754 -0.2885
 1446W        W17340  13.769   3.120  14.113  0.2884 -0.0990 -0.2567
 1447W        W17341   2.978  15.988   3.504  0.1124 -0.1831  0.1504
 1448W        W17342  19.090  12.364  14.712  0.3448  0.2753 -0.1042
 1449W        W17343   0.260  16.214  11.063  0.2918 -0.0121 -0.1540
 1450W        W17344   3.855  11.987   1.992  0.0923 -0.0084  0.2635
 1451W        W17345  13.615   2.233   0.229 -0.1591  0.1359  0.0831
 1452W        W17346  14.108  17.391  10.625 -0.1571 -0.0422  0.1266
 1453W        W17347   2.964  10.470  11.208  0.1977 -0.0122 -0.1812
 1454W        W17348   4.336  10.078   3.544  0.1831 -0.0709 -0.0909
 1455W        W17349  17.199   5.475   1.157  0.1827 -0.0666  0.1142
 1456W        W17350   1.148   9.420   4.400  0.1364  0.2376 -0.1360
 1457W        W17351  12.424   7.397  14.753 -0.1614 -0.1097 -0.0691
 1458W        W17352   7.474   2.727  14.782  0.0102 -0.1939 -0.1110
 1459W        W17353   8.489   9.832  14.359  0.3488  0.2495 -0.3369
 1460W        W17354   0.836   9.347  13.409  0.0864  0.1252  0.1088
 1461W        W17355  11.076  17.479   3.847 -0.1497 -0.1638  0.1670
 1462W        W17356  11.891   7.324   2.477  0.1175 -0.1369  0.3756
 1463W        W17357   3.872  15.327  13.299 -0.2689  0.1154 -0.0781
 1464W        W17358  17.190  11.460  10.044  0.2403  0.4177  0.2755
 1465W        W17359   6.795  16.747   4.590  0.0422  0.0661  0.0510
 1466W        W17360  10.153  15.570  13.587  0.1989  0.2212  0.1927
 1467W        W17361  17.501   8.463   4.257  0.2380 -0.0210 -0.1163
 1468W        W17362   2.296   7.357   5.353 -0.0145  0.0288 -0.0807
 1469W        W17363   7.337   8.207  13.608  0.0096  0.0891 -0.1793
 1470W        W17364   2.505   4.317  14.492  0.2084  0.1638  0.0409
 1471W        W17365   7.357   2.964   2.732 -0.1311 -0.2633  0.0538
 1472W        W17366  17.499  14.343  12.044  0.1619 -0.0380  0.2316
 1473W        W17367  16.390  16.859  14.857 -0.0085  0.4153  0.3089
 1474W        W17368   5.727   4.145  11.547 -0.1744  0.2128  0.1359
 1475W        W17369  17.194   3.052   3.130  0.3963  0.1638  0.0816
 1476W        W17370  10.491   9.796   3.804 -0.0766 -0.0119  0.0854
 1477W        W17371   5.591   1.887   0.532 -0.0066 -0.0206  0.1174
 1478W        W17372  17.902   6.762   5.187 -0.1146  0.1356  0.1028
 1479W        W17373  17.720  17.380   2.510 -0.3041 -0.0284 -0.2643
 1480W        W17374   0.688  13.793   3.114 -0.2518 -0.1169 -0.2192
 1481W        W17375   3.904  12.014  14.219  0.0713  0.0983  0.2702
 1482W        W17376   8.818   4.419   2.035  0.3325  0.0218  0.0034
 1483W        W17377  10.562   4.121   3.217 -0.0211  0.0300  0.2078
 1484W        W17378  18.249  13.402   4.045  0.1267 -0.1033 -0.2579
 1485W        W17379  18.906  11.816   4.008 -0.1603 -0.2051  0.0167
 1486W        W17380  10.683   0.121   3.440  0.0811  0.2087 -0.2599
 1487W        W17381   8.314   8.872   3.074  0.0224  0.0546  0.5141
 1488W        W17382   5.575   1.106   1.571 -0.1313  0.1595  0.1611
 1489W        W17383  10.925   7.069  12.318 -0.3059  0.0087  0.2133
 1490W        W17384   3.490   2.356   2.070  0.1624  0.2637 -0.1974
 1491W        W17385   7.265  18.592   1.926 -0.0062 -0.5199 -0.2105
 1492W        W17386  14.168   1.322   0.377 -0.1009 -0.2497  0.1049
 1493W        W17387   7.245  15.052  12.147  0.2482 -0.1084 -0.0191
 1494W        W17388   4.966   4.300  15.141  0.1661  0.1093 -0.0343
 1495W        W17389  17.383  13.499  10.694  0.0949 -0.1790 -0.1381
 1496W        W17390   4.204  15.188  13.736 -0.1230  0.2758 -0.1516
 1497W        W17391  13.559   0.970   3.162  0.1396  0.0146 -0.3677
 1498W        W17392   9.151   8.839  13.911 -0.0481  0.0962 -0.2577
 1499W        W17393  12.590   4.924  14.149 -0.0358  0.0062 -0.2216
 1500W        W17394  11.398   9.712   3.752  0.0486 -0.1311  0.0834
 1501W        W17395   6.459   3.162  14.269  0.0083 -0.0171  0.2337
 1502W        W17396  13.639   0.211   9.648  0.1472  0.0173  0.1258
 1503W        W17397   5.246  16.861  11.926 -0.4576  0.2534  0.3553
 1504W        W17398   4.183  12.940   3.999 -0.1161 -0.2083 -0.2763
 1505W        W17399  13.172  17.278   1.168 -0.0825 -0.0299  0.0627
 1506W        W17400  11.493  13.322  14.601 -0.0759 -0.1471 -0.2014
 1507W        W17401  17.441  13.951  10.792  0.1548 -0.1624  0.0813
 1508W        W17402  11.762   0.705  11.118  0.1879  0.3788 -0.0871
 1509W        W17403   4.561   7.413   1.485  0.1054 -0.2719  0.1668
 1510W        W17404  13.598  10.944   5.973  0.1755  0.2213  0.4197
 1511W        W17405   5.360  18.410  13.259  0.0131 -0.3573 -0.2631
 1512W        W17406   2.858  15.530   2.731  0.1924 -0.0165 -0.1549
 1513W        W17407   6.127   8.258   1.496  0.2107  0.3611  0.0527
 1514W        W17408  14.199  14.102  14.043  0.1995 -0.4104 -0.0234
 1515W        W17409  16.447   8.610  11.024 -0.0993 -0.0498 -0.1929
 1516W        W17410   6.144   8.249  13.380 -0.5387 -0.2124 -0.0610
 1517W        W17411  18.550  11.054  12.828 -0.0193 -0.3022  0.0034
 1518W        W17412   7.117   4.843  11.621 -0.2170  0.0068 -0.1563
 1519W        W17413  18.841   0.242   0.194  0.0623 -0.2027 -0.1047
 1520W        W17414   8.160   6.708   1.050 -0.0444 -0.0135  0.1124
 1521W        W17415  11.481   1.762   4.631  0.0857  0.1674  0.0304
 1522W        W17416  16.773  17.825   5.424 -0.4152 -0.1824 -0.1954
 1523W        W17417  17.286  17.323  12.080 -0.0033 -0.0447  0.1590
 1524W        W17418   9.843  17.820   0.503  0.1725  0.0541  0.0609
 1525W        W17419   6.664   5.780   3.616  0.1000 -0.0912  0.2071
 1526W        W17420   1.155   5.212  13.341 -0.4151  0.1138 -0.0198
 1527W        W17421   1.211  16.959   0.776 -0.1499  0.3065  0.2659
 1528W        W17422  18.960   9.997   1.932 -0.0562 -0.2588  0.0955
 1529W        W17423  18.395  13.822  14.667 -0.3173 -0.0308  0.0329
 1530W        W17424   6.600   6.469   0.016 -0.2116 -0.0736 -0.2058
 1531W        W17425  10.400  15.157   2.305  0.1638  0.0842 -0.3413
 1532W        W17426  18.039   0.201   3.918  0.1533  0.1032 -0.0008
 1533W        W17427   3.341  12.142  11.365  0.3708 -0.0051  0.0798
 1534W        W17428   7.244  15.887   1.242 -0.2552 -0.3367 -0.0343
 1535W        W17429   3.051   0.505   2.689 -0.2458 -0.0169  0.1201
 1536W        W17430   1.596  16.842   4.403 -0.1486 -0.1522  0.2057
 1537W        W17431  18.366  14.340   5.755  0.1936 -0.0169  0.0025
 1538W        W17432  19.084   6.293   0.504 -0.0918  0.2611  0.0538
 1539W        W17433   2.656   5.533  12.834  0.2739 -0.0054  0.1054
 1540W        W17434   1.697   5.694   1.755 -0.3574  0.0425  0.1591
 1541W        W17435   5.921  18.416  15.120  0.2723 -0.2728 -0.0742
 1542W        W17436  10.939   9.046  13.927 -0.0495  0.2207  0.0193
 1543W        W17437  16.868   3.372  14.196 -0.0667 -0.0664 -0.2280
 1544W        W17438  15.118  14.910   1.058  0.0585 -0.3422 -0.1448
 1545W        W17439   2.086  12.048  14.915  0.2856 -0.0557  0.0809
 1546W        W17440  11.328   0.897  13.801 -0.3006 -0.0610  0.0948
 1547W        W17441   3.490  14.476   5.237 -0.1298  0.1165  0.1899
 1548W        W17442  16.980  18.207   2.534 -0.2354  0.1305 -0.1025
 1549W        W17443  14.997   0.369   4.542 -0.0454 -0.2461 -0.0409
 1550W        W17444   4.843  12.115   1.872 -0.2366  0.1549  0.0821
 1551W        W17445   2.177   6.892   4.293 -0.0228  0.0896  0.0378
 1552W        W17446   2.317  17.561  13.737  0.0324  0.0775  0.1627
 1553W        W17447  15.333  13.729  10.512 -0.0217  0.0577 -0.0440
 1554W        W17448   8.950  17.038   0.357  0.0604  0.0111 -0.1375
 1555W        W17449  12.375   7.648   4.304  0.1196 -0.0914 -0.0972
 1556W        W17450   3.332  12.952   3.345  0.0768  0.0049 -0.1906
 1557W        W17451   1.585  17.778  14.449  0.1149 -0.1282  0.2513
 1558W        W17452  12.953  17.636   4.853 -0.0025 -0.2514  0.2003
 1559W        W17453   5.175   8.722   3.267  0.0687 -0.0188 -0.1348
 1560W        W17454   3.591  12.900  13.964 -0.2381 -0.1688 -0.0081
 1561W        W17455   6.531  15.009  11.482 -0.0429  0.3124 -0.0088
 1562W        W17456  15.053  12.532  11.001 -0.0330  0.0587 -0.0856
 1563W        W17457   0.403   7.377  10.609 -0.0221 -0.0366  0.2179
 1564W        W17458   0.794   7.254   3.439  0.3105  0.4005  0.1065
 1565W        W17459   7.517  14.324  10.450 -0.0818 -0.0762 -0.0138
 1566W        W17460  13.173   2.141   0.425  0.1111  0.1332 -0.0934
 1567W        W17461   4.664  12.493  12.393 -0.0339  0.3374  0.4672
 1568W        W17462  14.593   1.288   0.139  0.3377  0.3106 -0.0383
 1569W        W17463   0.146  12.931  12.944 -0.0418 -0.4234 -0.2130
 1570W        W17464   3.994  18.159  12.316  0.0272 -0.0764  0.3595
 1571W        W17465   7.848   0.778  11.804 -0.2262  0.3282 -0.2802
 1572W        W17466   2.413  10.307   3.861  0.3749 -0.1703  0.1390
 1573W        W17467   7.806   7.279  12.176 -0.1093  0.4563 -0.1660
 1574W        W17468   9.014   1.733   3.271 -0.1860 -0.2424  0.2468
 1575W        W17469   3.038  18.368  10.538 -0.0261 -0.1404 -0.1232
 1576W        W17470  17.252  10.640   0.639  0.1894 -0.2068 -0.0587
 1577W        W17471   5.159   4.305  12.998 -0.0845  0.1898 -0.2368
 1578W        W17472   3.060   1.060   0.784  0.3472  0.0928 -0.1915
 1579W        W17473   0.668  15.656   3.497 -0.0273  0.1977 -0.1058
 1580W        W17474   8.169   2.218  12.401  0.3773  0.0821 -0.2631
 1581W        W17475  19.138  10.466  14.166 -0.2529  0.0090 -0.0227
 1582W        W17476   5.342   0.688   4.700 -0.0862 -0.0041  0.0872
 1583W        W17477   8.936   4.111   0.399  0.1651  0.3619  0.0187
 1584W        W17478   2.959  12.238  13.031  0.0394  0.0012 -0.0648
 1585W        W17479   0.049   9.350  14.860 -0.0199 -0.2146  0.0646
 1586W        W17480   3.400   3.165   0.133  0.1029 -0.0200  0.2916
 1587W        W17481   4.791  10.568   2.027 -0.0641  0.1196 -0.0540
 1588W        W17482   1.056  16.170  14.748 -0.1845 -0.0264 -0.0858
 1589W        W17483   9.995   6.998   1.645  0.1392  0.2855 -0.0058
 1590W        W17484  17.583  15.041  11.537  0.2830 -0.0954 -0.0641
 1591W        W17485  10.743   8.058   2.991  0.3113 -0.0257 -0.1693
 1592W        W17486   8.771   3.304   0.624  0.1831  0.1685 -0.1820
 1593W        W17487  13.299   6.550  12.530 -0.2446 -0.0468  0.1075
 1594W        W17488   0.177   4.091  11.664  0.2117 -0.0606 -0.0843
 1595W        W17489  19.113   8.666  13.133 -0.2731 -0.0466 -0.2123
 1596W        W17490  12.790   7.125   4.633  0.1486  0.1231  0.1362
 1597W        W17491  12.562   2.454  13.185  0.4916  0.0089 -0.0342
 1598W        W17492  14.417   6.549   3.817 -0.1235  0.0258  0.2913
 1599W        W17493  11.591   6.256  12.356  0.0737 -0.5068 -0.3025
 1600W        W17494  13.965   3.923  14.201 -0.1519  0.0113 -0.0824
 1601W        W17495   8.623  18.274   9.502  0.1346  0.0436 -0.2014
 1602W        W17496  18.389   4.122  14.034  0.1865  0.1029 -0.1285
 1603W        W17497   8.728   5.848   5.217 -0.0201 -0.2164  0.2549
 1604W        W17498  10.973  14.037   2.985 -0.2242 -0.1898  0.1199
 1605W        W17499  12.324   8.042  14.921  0.2699  0.2855  0.0402
 1606W        W17500  16.954   0.937   2.383 -0.1216  0.2190 -0.0803
 1607W        W17501   7.035   9.032  14.806  0.1710 -0.0239 -0.1640
 1608W        W17502  17.680  10.395   0.776  0.1689  0.0272  0.0879
 1609W        W17503   4.994  16.402   4.496 -0.0781  0.0105 -0.1709
 1610W        W17504   9.830  11.192   0.047 -0.0073  0.0499 -0.1659
 1611W        W17505  13.673   7.136  13.774  0.1570  0.1014  0.1028
 1612W        W17506   0.197  17.710  11.063 -0.1248 -0.1719  0.0553
 1613W        W17507  15.583  11.015   4.372  0.4240  0.0340 -0.0047
 1614W        W17508  13.503   2.190   3.321  0.1458 -0.2639  0.1006
 1615W        W17509   9.119   3.459  12.549  0.1015 -0.4441  0.3747
 1616W        W17510  16.248  13.878   3.635  0.0165 -0.2339 -0.0172
 1617W        W17511   7.386  14.301   2.653 -0.0423  0.0052 -0.2472
 1618W        W17512  16.693  15.860  13.822 -0.0413 -0.2189  0.0191
 1619W        W17513   8.826   6.342   3.328 -0.3395 -0.0200 -0.1173
 1620W        W17514   4.839  14.468  14.595 -0.0386 -0.2534  0.0564
 1621W        W17515  12.976  17.351  10.090 -0.0460  0.2319  0.3605
 1622W        W17516  14.613  14.162  11.238  0.2315 -0.1785 -0.2623
 1623W        W17517   1.912  12.250  13.200 -0.1366 -0.2447  0.0908
 1624W        W17518  14.330   4.772   5.251  0.0558 -0.2725 -0.0482
 1625W        W17519   9.105  15.400  10.474  0.0754  0.3291  0.1251
 1626W        W17520   6.518  10.259  10.550  0.0045  0.1009  0.0059
 1627W        W17521   3.492  19.104  12.333 -0.1687 -0.0090 -0.0782
 1628W        W17522  11.441  16.327  12.519  0.3115 -0.3039  0.1489
 1629W        W17523   1.174  17.272   4.393  0.1730 -0.0883 -0.3791
 1630W        W17524  12.376   8.465  10.925  0.0289  0.0019  0.1740
 1631W        W17525   0.631  14.079   2.332 -0.1819  0.3588  0.1323
 1632W        W17526  15.887  13.506  11.130 -0.1197  0.2633  0.4057
 1633W        W17527  10.078   3.966   4.278 -0.0729  0.0895 -0.1654
 1634W        W17528  17.907  17.930  11.082 -0.2498 -0.0759  0.1002
 1635W        W17529  18.529   2.594   4.247  0.0002  0.2635 -0.3641
 1636W        W17530  11.425   5.773   5.053  0.2608 -0.0650  0.1846
 1637W        W17531   2.065   1.304  10.981 -0.3141  0.0805 -0.0047
 1638W        W17532  15.040  15.311  14.235  0.2211  0.3026 -0.0194
 1639W        W17533   9.074   1.380   1.040  0.0438  0.1184 -0.0547
 1640W        W17534   4.236  14.607   1.370 -0.3189  0.2691  0.2009
 1641W        W17535   0.313  17.856   3.856 -0.0351 -0.0168 -0.1041
 1642W        W17536  19.011   5.500   0.599 -0.1109  0.1922 -0.0146
 1643W        W17537  14.541  11.213  10.055  0.0500  0.1027  0.1561
 1644W        W17538   8.741  18.327   9.946 -0.2153  0.0702  0.2568
 1645W        W17539   3.097   4.473  11.851  0.0506 -0.0552  0.1178
 1646W        W17540  11.303   6.118  11.585 -0.1207  0.0987  0.1499
 1647W        W17541   0.414   0.611   2.223  0.0767  0.0046 -0.0309
 1648W        W17542   4.165   0.661  14.264 -0.0187  0.3033 -0.3494
 1649W        W17543  14.710   7.149   1.037  0.1528  0.0567 -0.1185
 1650W        W17544   9.464   9.788  11.869  0.3660 -0.1724 -0.3376
 1651W        W17545   4.450  17.741   1.026  0.2706 -0.4020  0.0923
 1652W        W17546  18.712   1.511   0.780 -0.2133  0.0951 -0.0658
 1653W        W17547  10.015  18.198   3.432  0.0437  0.3930  0.1228
 1654W        W17548   9.287  16.509  12.508 -0.1027  0.0499  0.0760
 1655W        W17549  16.723   4.774   0.662 -0.1999 -0.1240  0.0659
 1656W        W17550   1.589  18.841   2.687 -0.2768 -0.1562 -0.3704
 1657W        W17551   3.290   8.480   2.369 -0.1030  0.1769 -0.0416
 1658W        W17552   9.757  10.220   2.358  0.1763 -0.1430  0.0136
 1659W        W17553   1.817  17.547   1.619  0.0524 -0.2763  0.1035
 1660W        W17554  17.030  12.576  12.130  0.3502 -0.2450  0.1104
 1661W        W17555   7.408  17.143  12.793 -0.0839  0.0375 -0.0799
 1662W        W17556   6.139  12.359   2.901 -0.0582 -0.0615  0.1792
 1663W        W17557  15.543   2.084  14.792 -0.1440 -0.3732 -0.1494
 1664W        W17558  16.386   9.615  14.203 -0.1374  0.0221 -0.1468
 1665W        W17559   7.219  18.630  11.710 -0.2732 -0.1039  0.0362
 1666W        W17560  16.324   4.808  14.104 -0.2444  0.0751 -0.0914
 1667W        W17561   1.737  11.900   0.106  0.0214 -0.1748  0.0165
 1668W        W17562   6.294  18.323   0.923 -0.2332  0.3233  0.1426
 1669W        W17563  18.043  16.395   1.572 -0.1651 -0.0886 -0.3709
 1670W        W17564  16.750  16.116   4.024 -0.2477  0.3261 -0.2105
 1671W        W17565   3.774   4.203  14.756 -0.3590  0.0719 -0.0758
 1672W        W17566  13.335   5.987   4.486  0.0534 -0.0369 -0.1141
 1673W        W17567   5.745  17.152   0.377 -0.4275  0.1742  0.0178
 1674W        W17568   5.820  16.721   3.483 -0.1610  0.0797 -0.4377
 1675W        W17569  17.744  17.414  11.182  0.4337 -0.0579  0.0501
 1676W        W17570  16.593   1.150   3.745  0.1683  0.0609  0.0115
 1677W        W17571  15.059  12.896  12.314 -0.0650 -0.2633 -0.0134
 1678W        W17572   5.603   1.935   1.720  0.0336  0.3081  0.2020
 1679W        W17573  10.450  10.229   1.554  0.1758 -0.1389  0.0912
 1680W        W17574  16.004  18.832  13.772 -0.0024 -0.1103  0.2798
 1681W        W17575   9.234   8.115   3.081  0.0073  0.0597 -0.4343
 1682W        W17576  10.178   3.338   0.809  0.0992  0.1177  0.1705
 1683W        W17577   4.195  10.465  14.697 -0.2285  0.1058 -0.1332
 1684W        W17578   0.567  15.393  13.053  0.2399 -0.0462 -0.3339
 1685W        W17579  14.326   7.327  14.785 -0.0625  0.3459 -0.1243
 1686W        W17580  13.702   9.346   1.787 -0.2499  0.0039 -0.4199
 1687W        W17581  10.413   4.915   4.195 -0.0336 -0.2144 -0.5189
 1688W        W17582   9.751  18.788  11.309  0.1422  0.3138 -0.2123
 1689W        W17583   7.343  17.877   3.683 -0.0905  0.2389  0.1295
 1690W        W17584   4.099  10.948   4.171 -0.0669  0.1460 -0.1961
 1691W        W17585   5.461   6.050   5.412 -0.1527  0.3407 -0.2777
 1692W        W17586   5.000   6.520  12.420 -0.2934 -0.1489  0.0269
 1693W        W17587   4.161  13.059  11.712 -0.2888 -0.1550  0.2213
 1694W        W17588   0.422   7.043  14.630  0.0270  0.0400  0.1279
 1695W        W17589   5.720   7.055   4.559 -0.2066 -0.1998 -0.0321
 1696W        W17590   5.296  16.745  14.819 -0.0192  0.1356  0.2800
 1697W        W17591  18.719   9.938  11.520 -0.0821 -0.1355 -0.0075
 1698W        W17592   8.149  17.620  11.877 -0.2033  0.5666  0.0907
 1699W        W17593   8.435   3.638   3.247  0.3626  0.2735 -0.0511
 1700W        W17594   1.893   9.493  11.616  0.0596  0.0336  0.1113
 1701W        W17595   7.280   1.723   4.008 -0.0943 -0.0064 -0.0111
 1702W        W17596  13.583  12.140   0.949 -0.0461  0.0483 -0.0474
 1703W        W17597  17.356  13.225  11.104  0.2503  0.3355 -0.0349
 1704W        W17598  13.846   6.283  13.896  0.2039 -0.1430 -0.1803
 1705W        W17599   6.438   7.201   2.944  0.0850 -0.1071 -0.0930
 1706W        W17600  15.248  13.243   1.393  0.0797  0.1570 -0.2425
 1707W        W17601  16.276  10.107   4.431 -0.1632 -0.3090  0.2107
 1708W        W17602   5.194   3.678  14.424  0.0375 -0.2892  0.1906
 1709W        W17603   0.406   0.160   1.224 -0.0521 -0.0400 -0.2815
 1710W        W17604  11.451   6.270  14.567 -0.1809 -0.0444 -0.2008
 1711W        W17605  14.050  13.938  10.935  0.0935  0.4230 -0.0293
 1712W        W17606   8.809   7.411   0.530  0.0088 -0.2721 -0.3690
 1713W        W17607   2.831  15.745   1.664 -0.2065 -0.0915  0.2664
 1714W        W17608  11.146  17.051  10.014  0.0791 -0.3680 -0.0099
 1715W        W17609   5.466   1.010  11.960 -0.0893 -0.2334  0.0771
 1716W        W17610   8.633  17.166   1.640  0.0178  0.0782  0.1463
 1717W        W17611  17.267  17.818  14.334  0.1313 -0.3728 -0.0674
 1718W        W17612  11.442   8.481  13.380 -0.3183  0.1876  0.2331
 1719W        W17613  16.599   8.971   9.646  0.1701  0.1827  0.1388
 1720W        W17614   0.225  12.656   3.335 -0.0284 -0.3724 -0.3680
 1721W        W17615   5.792   7.794   3.990 -0.0283  0.3015 -0.1898
 1722W        W17616  15.720  12.783  14.023 -0.2299  0.3021  0.0108
 1723W        W17617  18.485  18.638  12.706 -0.3696  0.1659  0.3611
 1724W        W17618   9.625  16.325   1.913 -0.0977  0.2721  0.3658
 1725W        W17619   2.580  13.644  12.567  0.2447  0.0989 -0.2830
 1726W        W17620   5.420  14.858  10.270  0.2870  0.1393  0.0829
 1727W        W17621  15.684  18.569   0.349  0.0992  0.1405 -0.1148
 1728W        W17622   9.099  14.901  13.183 -0.2218  0.2212  0.1938
 1729W        W17623   1.410  16.921   3.545 -0.1732  0.1125  0.0053
 1730W        W17624  11.873   6.364  13.609 -0.0987 -0.4394  0.1327
 1731W        W17625   7.245   9.412   4.005  0.0741 -0.0115  0.0889
 1732W        W17626  13.631  17.879  11.879 -0.1063  0.1281 -0.1627
 1733W        W17627   5.500  12.733  14.761 -0.1466 -0.0748  0.2184
 1734W        W17628  17.020  13.953  10.464 -0.2281 -0.0722 -0.2016
 1735W        W17629   0.270   6.550   5.049 -0.0285 -0.2465 -0.1694
 1736W        W17630  10.704   5.401  12.437  0.1622  0.1847  0.0558
 1737W        W17631   2.784   6.809  14.579 -0.3884 -0.4535  0.2014
 1738W        W17632  15.110  18.963  13.814  0.0083 -0.2144 -0.0819
 1739W        W17633  13.741   2.595   4.238 -0.1151  0.2221 -0.1262
 1740W        W17634   3.836  16.159  11.903  0.0017 -0.2901 -0.2152
 1741W        W17635  14.625  15.169   1.047 -0.0043  0.0498  0.1615
 1742W        W17636  14.266  18.182   1.182  0.1178  0.1817  0.3080
 1743W        W17637  10.072   3.149   3.679 -0.0614 -0.1398 -0.0443
 1744W        W17638   0.497   7.174   2.140 -0.1062 -0.0658 -0.0875
 1745W        W17639  12.188  11.859   3.958 -0.1533 -0.1924 -0.0796
 1746W        W17640   5.424  18.909   3.855  0.1523  0.1265  0.1776
 1747W        W17641   4.315   1.241  12.293 -0.0394  0.0673  0.0834
 1748W        W17642   0.724  15.786  12.735  0.1449  0.1826  0.1294
 1749W        W17643  15.452  18.388  12.713 -0.0379 -0.1896 -0.1247
 1750W        W17644   4.629  14.319   0.459  0.0912  0.0673  0.0833
 1751W        W17645   6.694   9.051   0.994  0.4753 -0.0259  0.1548
 1752W        W17646   6.513   5.322   4.020  0.0891 -0.3000  0.4528
 1753W        W17647   4.120  13.121  12.235 -0.2275 -0.1893  0.1712
 1754W        W17648   3.637   8.915   3.067 -0.0707 -0.2449  0.1351
 1755W        W17649   5.601   9.061  15.073 -0.5033 -0.0496 -0.2453
 1756W        W17650  17.694  18.306   4.832 -0.3480 -0.0610 -0.1248
 1757W        W17651  17.245  13.345  13.619 -0.0244  0.0545  0.0393
 1758W        W17652  18.081  12.064  13.838  0.0560  0.2020 -0.3370
 1759W        W17653  14.448   8.803  13.364  0.0142  0.0235  0.1024
 1760W        W17654  18.065   2.814   4.277  0.0472 -0.1083 -0.1149
 1761W        W17655  14.665   4.081   4.887 -0.0828 -0.1379 -0.1342
 1762W        W17656   1.720   4.350   3.252  0.0073 -0.3882 -0.2173
 1763W        W17657  12.724   2.533  11.758  0.3598 -0.1959 -0.0192
 1764W        W17658   5.041  16.278   1.857  0.1814 -0.0346  0.2736
 1765W        W17659  18.946   6.954   5.415  0.1268  0.0436 -0.0672
 1766W        W17660   6.285   1.080  10.762  0.2527  0.0172  0.3548
 1767W        W17661   2.437   7.928  10.791  0.0821  0.2190  0.2031
 1768W        W17662   4.465   9.487   1.120 -0.1085 -0.2266 -0.1732
 1769W        W17663   7.003  15.552   5.068  0.1092  0.0011 -0.3637
 1770W        W17664  15.173  11.550  13.242 -0.1796  0.1425  0.2004
 1771W        W17665  12.945  17.796   3.543 -0.0192  0.1557  0.2266
 1772W        W17666   5.219   4.130   1.991  0.0582 -0.0030  0.1996
 1773W        W17667  18.086   0.743  13.036 -0.0679  0.0927  0.0984
 1774W        W17668   5.473  11.383   4.888 -0.0608 -0.1338 -0.3814
 1775W        W17669   9.487   5.971   0.041  0.0722  0.2453  0.0655
 1776W        W17670  18.059  11.272  11.539 -0.1977 -0.1073  0.1277
 1777W        W17671   0.462   5.100  14.114 -0.3071  0.0944  0.2848
 1778W        W17672  11.505  11.481   1.056  0.2611  0.1236 -0.1878
 1779W        W17673   4.788   1.992  14.183 -0.1815  0.1819  0.0267
 1780W        W17674   0.650  11.739   3.023 -0.1657 -0.3231 -0.0824
 1781W        W17675  11.703   5.387  13.489 -0.5887  0.4217  0.1240
 1782W        W17676   6.964   1.278   3.553 -0.0218  0.0753  0.2310
 1783W        W17677   9.451   1.268  10.920  0.4097  0.3675 -0.2246
 1784W        W17678   1.771  10.166  14.063  0.0366  0.3132 -0.1393
 1785W        W17679   6.039  17.679  14.417  0.1664 -0.0199 -0.1219
 1786W        W17680  16.642   0.932   5.487 -0.2110  0.1283  0.1349
 1787W        W17681   0.061  17.942   1.052 -0.4283 -0.1550 -0.0358
 1788W        W17682  12.370  18.517   3.025 -0.2907 -0.1802  0.1877
 1789W        W17683  15.604   2.942   4.687 -0.4943  0.2227  0.1869
 1790W        W17684  18.517   9.265   2.277  0.0145 -0.0730  0.1171
 1791W        W17685   2.433   2.155   3.644  0.0175  0.1641  0.1124
 1792W        W17686  14.778  17.205  11.440  0.1471  0.0055  0.0028
 1793W        W17687  11.586  17.875  11.984  0.2460  0.0935  0.1389
 1794W        W17688  14.480   0.384   4.721 -0.0414 -0.3262 -0.2269
 1795W        W17689   0.817   4.058   2.085 -0.1427  0.0932  0.2901
 1796W        W17690   7.212  11.516  14.952 -0.0516 -0.0991 -0.0081
 1797W        W17691  11.250  11.775   2.001  0.6087  0.1123  0.0340
 1798W        W17692  14.188   1.458  13.822 -0.4089 -0.0504 -0.0118
 1799W        W17693  10.850   9.149   4.955 -0.2980 -0.0035 -0.1885
 1800W        W17694   4.439  11.381  14.735 -0.1251  0.2277 -0.0425
 1801W        W17695  11.401   3.782   0.587 -0.0008  0.2440  0.1511
 1802W        W17696   3.562  14.975  11.098  0.1695 -0.1734  0.1559
 1803W        W17697  10.158  11.364   1.752 -0.4105 -0.0187 -0.1894
 1804W        W17698   1.663   4.664   5.398  0.2221  0.1979 -0.1224
 1805W        W17699  19.050  16.312   0.815  0.0395 -0.0943 -0.1141
 1806W        W17700   5.186   2.362  11.508 -0.0500  0.0051 -0.3256
 1807W        W17701   0.772   7.221   2.525  0.0601  0.0871  0.0111
 1808W        W17702  15.368  16.136  12.432 -0.0262 -0.3512 -0.0478
 1809W        W17703   0.993  10.085   1.038 -0.1390 -0.4218  0.1262
 1810W        W17704   0.848   5.174  13.839  0.2849  0.0947 -0.1121
 1811W        W17705   7.077  14.901   1.157  0.0891 -0.0325 -0.1188
 1812W        W17706   0.282  11.025  10.749 -0.1030  0.1407 -0.3478
 1813W        W17707   4.396   9.013  13.052  0.0306  0.1771 -0.1638
 1814W        W17708   2.290  11.043   3.308 -0.0977 -0.1559 -0.2568
 1815W        W17709  11.302   0.392  12.791  0.0574 -0.2878 -0.0966
 1816W        W17710   7.026  13.696  12.791 -0.1212  0.0001  0.0335
 1817W        W17711   5.631   0.316   1.386  0.2343 -0.2540 -0.2152
 1818W        W17712  19.129   8.128   5.024  0.0840  0.2613 -0.3003
 1819W        W17713  18.352   7.159  10.484 -0.2572  0.2047 -0.0766
 1820W        W17714  13.639   2.919   0.892 -0.1373 -0.1329 -0.2916
 1821W        W17715   7.002  12.498   2.360  0.5230 -0.1637  0.1813
 1822W        W17716  12.308   4.761   1.161 -0.2796  0.0629  0.1627
 1823W        W17717  18.685  17.848   5.179  0.2645 -0.1986  0.0898
 1824W        W17718   7.582  18.563   0.297  0.0570 -0.0385  0.1052
 1825W        W17719  14.876   4.919  11.090  0.1413  0.1527  0.0511
 1826W        W17720  17.664   9.402   4.174  0.1483 -0.1539 -0.0577
 1827W        W17721   8.076  17.181  15.074  0.0071 -0.3672  0.3276
 1828W        W17722  16.487  11.151  11.649 -0.0341  0.0349  0.0663
 1829W        W17723  16.886   0.293   5.339 -0.0775 -0.0561  0.1035
 1830W        W17724  13.505  13.304  14.798 -0.1061 -0.1287 -0.1182
 1831W        W17725  12.128   0.730   5.940  0.1857 -0.1221  0.1018
 1832W        W17726   1.689  17.454   4.369 -0.0713 -0.0524 -0.0852
 1833W        W17727  13.298   5.544  13.618  0.1692  0.1363  0.2254
 1834W        W17728  11.906  11.707   2.923  0.2026 -0.1989 -0.4131
 1835W        W17729  11.274  17.875  12.763 -0.0791 -0.2948  0.0923
 1836W        W17730  13.151   0.364   0.567  0.0973 -0.1212  0.1816
 1837W        W17731   0.416   2.657  13.501  0.3129 -0.0076  0.0879
 1838W        W17732  11.200   4.373  11.548 -0.1768  0.2866 -0.1343
 1839W        W17733  10.882   1.422   2.708 -0.3666  0.2574 -0.3029
 1840W        W17734   4.706  15.667  13.224 -0.3261 -0.0579  0.1875
 1841W        W17735  10.869  18.183   4.652 -0.2640 -0.1770  0.1871
 1842W        W17736  16.542   9.622  11.306  0.2335  0.1991 -0.1551
 1843W        W17737   0.086  14.435   4.246 -0.0588  0.1156  0.1417
 1844W        W17738   2.377  17.982  11.140 -0.3762 -0.1661  0.3377
 1845W        W17739  10.852   2.986   1.770 -0.1565 -0.2012  0.2746
 1846W        W17740  11.077  16.495  11.860 -0.3243 -0.0170  0.1611
 1847W        W17741  12.279  17.198   5.135  0.0647  0.1879 -0.0549
 1848W        W17742   4.272  18.432   2.991 -0.3161  0.3457  0.1783
 1849W        W17743   4.237  13.364   2.469  0.2897  0.0897  0.3261
 1850W        W17744  18.494  15.587  12.655 -0.0685  0.0921 -0.0142
 1851W        W17745   0.803   3.307   5.134 -0.2201 -0.4146  0.2809
 1852W        W17746   5.353   0.611   3.569 -0.1373  0.2469 -0.2933
 1853W        W17747   7.492  17.294   4.906  0.0414  0.1046  0.1978
 1854W        W17748   7.262   1.837   2.516  0.3585 -0.3357  0.3142
 1855W        W17749   6.494  19.161   2.419  0.2176 -0.0139  0.0639
 1856W        W17750  18.655  16.523  12.916 -0.2121  0.4738  0.0259
 1857W        W17751  10.307   0.281   1.516 -0.3377 -0.0544 -0.1869
 1858W        W17752   2.347  11.479   5.706  0.3847  0.0925  0.1909
 1859W        W17753  10.606   7.631   0.117  0.1354  0.0205 -0.0246
 1860W        W17754   2.392  18.516  14.633  0.0715 -0.0796 -0.1054
 1861W        W17755   3.013   1.639  10.763 -0.1832  0.0737  0.1090
 1862W        W17756  15.846   6.933  14.902 -0.1006 -0.0143  0.0234
 1863W        W17757  17.911   0.593   5.935 -0.1412  0.2080  0.1376
 1864W        W17758  14.158   4.087  12.201 -0.2364  0.3724 -0.1791
 1865W        W17759   8.132   3.259   3.387  0.1284  0.0255  0.1456
 1866W        W17760   7.169   0.952   4.425  0.0550 -0.1024  0.1447
 1867W        W17761  15.670   4.254  12.739 -0.1618  0.0429 -0.0063
 1868W        W17762   3.122  11.955   3.422 -0.5030  0.1989 -0.1693
 1869W        W17763   4.744   6.535  11.756  0.2263  0.5696 -0.3816
 1870W        W17764   1.613  19.184  14.117 -0.3269 -0.2244 -0.0390
 1871W        W17765   3.386   9.909   5.338  0.2269 -0.0608  0.3752
 1872W        W17766   0.527  11.982   1.664  0.1703  0.1142 -0.0018
 1873W        W17767  11.330   6.754  12.306  0.2462 -0.0946  0.1164
 1874W        W17768   2.612  13.335   1.982  0.2767 -0.0833 -0.0116
 1875W        W17769   4.410  11.017  13.999 -0.1694  0.2270  0.0298
 1876W        W17770   3.611  12.616   3.006  0.1870 -0.2027 -0.5475
 1877W        W17771  14.769   9.842   2.111 -0.3398 -0.1982 -0.3003
 1878W        W17772   0.303  13.163  11.297 -0.1805  0.3171 -0.0664
 1879W        W17773   4.648   9.176   0.615  0.0440  0.2111 -0.1864
 1880W        W17774   5.273  17.254  14.713 -0.0250 -0.1121  0.3360
 1881W        W17775   1.192   8.157   4.892  0.0513 -0.0873  0.2015
 1882W        W17776  17.948  10.623  13.800 -0.0424 -0.0741  0.0460
 1883W        W17777  18.962   4.582  13.157 -0.1994  0.0883  0.0763
 1884W        W17778   2.881   8.148   4.568 -0.3987  0.3342 -0.0792
 1885W        W17779  19.099  17.313  11.128  0.2577  0.0802  0.2541
 1886W        W17780  12.475   7.192  11.984 -0.1926 -0.1324 -0.0283
 1887W        W17781  12.669  13.511  14.597  0.4025  0.0482 -0.2250
 1888W        W17782  13.346   8.466  11.981  0.1325 -0.1057  0.0158
 1889W        W17783   9.286  15.021   4.193  0.1838 -0.4557  0.0175
 1890W        W17784   6.063   2.536  13.621  0.1081 -0.1002 -0.3338
 1891W        W17785  11.689   2.372  10.913  0.0239 -0.1513  0.0920
 1892W        W17786  12.547  14.346   4.864 -0.1586 -0.0119 -0.2381
 1893W        W17787   8.432  14.539  14.605  0.2262  0.3040  0.2305
 1894W        W17788   7.130  13.744  12.046 -0.3560  0.1868 -0.1551
 1895W        W17789   5.587   8.412  11.178 -0.2631  0.3330  0.2477
 1896W        W17790  10.344   7.909   5.085  0.0617  0.0515 -0.1378
 1897W        W17791   6.329   9.510   1.040 -0.2386  0.1513  0.0810
 1898W        W17792   6.870   6.649   2.126 -0.3692  0.0491 -0.1735
 1899W        W17793  13.484   8.956   1.478 -0.0883 -0.1669  0.1575
 1900W        W17794   2.848   0.937   2.037  0.2373 -0.0569  0.1038
 1901W        W17795   6.136  17.849  11.558 -0.2276 -0.3896 -0.0334
 1902W        W17796   3.957  18.532  13.833 -0.5137 -0.1103 -0.4666
 1903W        W17797  18.426  14.142  11.460 -0.2980 -0.2237  0.3869
 1904W        W17798   1.659   8.428   5.111 -0.3573 -0.1826 -0.0941
 1905W        W17799  16.803   9.559  10.494 -0.0481  0.1073  0.0820
 1906W        W17800  15.837   3.645   0.356  0.0827  0.0587  0.1464
 1907W        W17801  17.453  16.119  15.131 -0.4785 -0.1214 -0.1076
 1908W        W17802  16.707   6.973  14.310 -0.0914  0.0824  0.1091
 1909W        W17803   3.688   3.596   9.766  0.1505  0.1311  0.2839
 1910W        W17804   0.171  13.991  10.786 -0.1429 -0.1068  0.0859
 1911W        W17805   6.147  17.101   3.431  0.0013  0.1896 -0.1055
 1912W        W17806   8.846   6.651  11.908  0.0075  0.0757  0.0171
 1913W        W17807   7.354  14.867  11.101  0.3204  0.0080  0.1534
 1914W        W17808   7.237   1.335  15.038  0.1743  0.0859  0.0658
 1915W        W17809  17.886   3.238  12.026  0.0971  0.0188 -0.0447
 1916W        W17810  15.630  16.943   3.082 -0.0195  0.0372  0.2046
 1917W        W17811  16.243  10.841   2.954 -0.4287 -0.1126 -0.0825
 1918W        W17812  13.658  11.675  11.504 -0.1345 -0.0840  0.0377
 1919W        W17813  10.231   9.791   3.401  0.2700 -0.0508  0.1735
 1920W        W17814   1.193   1.357  14.208  0.1188 -0.0453  0.1402
 1921W        W17815   9.810  17.131  15.063  0.0834  0.3914  0.0514
 1922W        W17816   1.987  14.728   0.741 -0.1357  0.0310 -0.3120
 1923W        W17817  17.523   6.075  12.550 -0.1137 -0.0160 -0.2863
 1924W        W17818   4.299  11.770  11.811  0.1077  0.0451  0.1263
 1925W        W17819   8.737   9.797   0.299 -0.2298 -0.2499  0.2717
 1926W        W17820  10.596  15.494   4.059  0.1215  0.1180  0.1706
 1927W        W17821  16.447  16.370   2.788  0.0118  0.0211  0.2571
 1928W        W17822   7.434   2.864   1.331 -0.0618 -0.2576  0.0102
 1929W        W17823   1.375  15.681   2.798  0.0553 -0.0423  0.2995
 1930W        W17824  17.427  11.248  10.587  0.1383 -0.1864  0.3774
 1931W        W17825   3.920   0.974  12.869  0.3474  0.2723  0.5174
 1932W        W17826   1.497  13.051   1.566 -0.4659  0.2784 -0.0525
 1933W        W17827   1.143  10.678  10.461 -0.1940  0.0258  0.2710
 1934W        W17828  18.021   8.550  12.341  0.2254 -0.2316  0.0591
 1935W        W17829   2.191  14.305  10.990  0.2752 -0.0531  0.0781
 1936W        W17830   5.070  10.304  11.563  0.2474 -0.2819  0.1397
 1937W        W17831  14.304   8.925  13.848 -0.0026  0.0148 -0.0344
 1938W        W17832   0.004   9.672   3.328 -0.0032 -0.0653 -0.2135
 1939W        W17833  11.611  11.007   1.316 -0.1149 -0.1263 -0.0239
 1940W        W17834  11.775  16.561   4.041  0.2778  0.2269 -0.0465
 1941W        W17835  10.137   0.331  10.270 -0.0708  0.0734  0.0121
 1942W        W17836  13.051   3.186  13.532 -0.0429 -0.1558 -0.3054
 1943W        W17837  13.079  17.732  11.553  0.0154 -0.0098 -0.1641
 1944W        W17838  14.219  14.391  11.049  0.0232  0.1543 -0.5048
 1945W        W17839   8.421  12.413  11.386  0.2865 -0.1645 -0.0883
 1946W        W17840  12.759  13.301   3.363  0.0751 -0.0366  0.4736
 1947W        W17841   0.595   0.674   0.584  0.0895  0.0411  0.2823
 1948W        W17842   7.413   3.520  14.213  0.0236 -0.3293  0.1268
 1949W        W17843  17.073  17.674   3.516 -0.0291 -0.1780 -0.0555
 1950W        W17844  17.084   0.295   1.130 -0.0674  0.0320 -0.1074
 1951W        W17845  16.360  16.054  11.384 -0.3726 -0.1467  0.2455
 1952W        W17846  17.648   3.207   2.044  0.3521 -0.0878  0.3860
 1953W        W17847  18.683   1.443   2.920 -0.1247  0.0049 -0.0696
 1954W        W17848   5.561   3.434  11.888  0.0992 -0.0590  0.0572
 1955W        W17849   7.786  16.243   0.108  0.0866  0.0322  0.0803
 1956W        W17850   0.691   8.462   3.194 -0.1955 -0.1424  0.1309
 1957W        W17851  10.343   2.679   3.631 -0.0718 -0.2804  0.0222
 1958W        W17852  12.945   6.068   3.367 -0.0458  0.2854 -0.3077
 1959W        W17853  10.864   0.336   1.576  0.1069 -0.1549 -0.2279
 1960W        W17854  17.367  15.954  13.022  0.1050 -0.0360  0.0376
 1961W        W17855  17.912  14.942   4.919 -0.4712 -0.2186  0.0507
 1962W        W17856  18.312   8.529  11.791 -0.2453 -0.0808  0.0543
 1963W        W17857  11.074   0.041  11.175 -0.1930  0.0882  0.0645
 1964W        W17858  14.045   0.735   1.136 -0.2550 -0.2242  0.0523
 1965W        W17859   0.876  16.525  12.156  0.0289  0.0233 -0.2062
 1966W        W17860  10.866   3.941   2.887 -0.0646  0.1170  0.0427
 1967W        W17861   3.431   3.819   0.737 -0.0567 -0.0882 -0.2713
 1968W        W17862   7.038   6.109  14.567 -0.2435  0.0803  0.0317
 1969W        W17863  12.455  17.803   2.418  0.0842  0.0263 -0.1012
 1970W        W17864  14.012  14.371   4.126 -0.1496 -0.2068 -0.1469
 1971W        W17865  10.612  10.532   0.814 -0.0484  0.1260  0.3611
 1972W        W17866  12.070  17.496   4.655 -0.4177 -0.0058 -0.0895
 1973W        W17867  14.867  14.939   9.528  0.1274 -0.0998  0.0939
 1974W        W17868   0.231   3.278  10.972  0.2125  0.0578  0.0193
 1975W        W17869  17.181   1.858  12.968  0.1079 -0.0844  0.0718
 1976W        W17870   6.349  10.977  11.881  0.1058  0.0725  0.0099
 1977W        W17871   7.119   2.622   3.034  0.1041 -0.1331  0.2195
 1978W        W17872  17.785  15.470   2.624  0.0646  0.0666 -0.0639
 1979W        W17873  11.144   2.462   2.235  0.1958  0.4308 -0.1104
 1980W        W17874   7.116  14.173  14.570 -0.0619  0.2495 -0.1381
 1981W        W17875   3.009  18.727  14.408 -0.3643  0.1949 -0.1836
 1982W        W17876  11.109  15.536  12.246 -0.1336  0.1205  0.0770
 1983W        W17877  11.423   6.177  15.192 -0.0534  0.3398  0.2658
 1984W        W17878   5.037  18.552   0.626 -0.0367  0.1828  0.1637
 1985W        W17879   8.047   7.920  11.175  0.0755  0.2427 -0.2422
 1986W        W17880  15.374  13.418  14.509  0.1663 -0.0785 -0.1625
 1987W        W17881  11.135  19.117  14.467  0.0326 -0.1680 -0.1673
 1988W        W17882   6.844  13.276   0.835 -0.1365  0.1231  0.1319
 1989W        W17883   5.010   6.858   1.939  0.0839 -0.0755 -0.0196
 1990W        W17884   7.543   7.218   2.783 -0.0554 -0.0935 -0.0344
 1991W        W17885  15.148  14.225  12.077 -0.2364  0.3509 -0.1526
 1992W        W17886   5.121   6.269  10.980 -0.1048  0.2208  0.1999
 1993W        W17887  19.163   4.033  12.903 -0.3301  0.2415 -0.1144
 1994W        W17888  18.688  16.853  12.468  0.1261  0.0004  0.1895
 1995W        W17889   4.549   5.338   3.925 -0.0830 -0.2198  0.2256
 1996W        W17890   9.523  14.197  11.115  0.2247  0.0625 -0.2706
 1997W        W17891  17.174   5.244  10.952 -0.0866 -0.0072 -0.0244
 1998W        W17892  13.776   1.699   3.338 -0.1232  0.2320 -0.0236
 1999W        W17893  14.299   9.247  10.776  0.0431 -0.0262 -0.0109
 2000W        W17894   5.305   8.119  11.464  0.0358 -0.0272  0.0313
 2001W        W17895  17.836  12.996  15.006  0.0124  0.1911 -0.0049
 2002W        W17896  19.155   4.711  11.276 -0.0541 -0.0069 -0.2111
 2003W        W17897   7.419  16.516  12.356 -0.3792  0.0170  0.2286
 2004W        W17898  11.553  15.853   3.561  0.1233 -0.1073  0.2237
 2005W        W17899   2.188   6.419   3.345  0.0054  0.2227 -0.0088
 2006W        W17900  15.524  13.698   2.143 -0.1170  0.1219  0.3215
 2007W        W17901   5.795   5.675  11.117 -0.1428  0.2246  0.1297
 2008W        W17902   3.924  11.531  13.078 -0.0375  0.1282 -0.1606
 2009W        W17903   8.608   6.157   3.841 -0.1442 -0.3856  0.1712
 2010W        W17904  16.919  15.150  12.395  0.1163 -0.0197  0.2203
 2011W        W17905   6.955   1.047   0.766  0.3357  0.0343  0.3106
 2012W        W17906  14.543  13.460  13.530  0.1880  0.0803  0.4124
 2013W        W17907   2.032  13.941   4.108  0.2545  0.0115 -0.0644
 2014W        W17908   1.581   5.188   3.616 -0.1199 -0.1950  0.1140
 2015W        W17909  15.374  16.139   0.111 -0.0084  0.1030 -0.2320
 2016W        W17910   6.124   3.930  14.069 -0.1064  0.1588  0.1694
 2017W        W17911  16.691   5.828   5.371  0.1843 -0.0293  0.1824
 2018W        W17912   9.085   2.252  10.190 -0.1024 -0.0472 -0.2109
 2019W        W17913   6.107  17.282   0.086 -0.2221 -0.0890  0.1733
 2020W        W17914   1.487  11.529  13.729  0.0300  0.1808 -0.0988
 2021W        W17915  14.423  18.786   3.857  0.0078  0.1188  0.2112
 2022W        W17916   1.743  11.494   2.460 -0.2234  0.3107 -0.0115
 2023W        W17917   8.481  14.575   1.461  0.1107  0.0541 -0.0793
 2024W        W17918   9.623   0.729   1.034 -0.0445  0.0886 -0.0279
 2025W        W17919   7.177   1.362  14.023 -0.0270 -0.0654  0.2361
 2026W        W17920  15.412  11.859   2.360 -0.1815  0.1196  0.2451
 2027W        W17921   4.830   8.233   1.058  0.1673 -0.0612 -0.1504
 2028W        W17922   5.300   9.446  12.871 -0.0643 -0.0880 -0.1433
 2029W        W17923   2.272  18.570   4.577 -0.0168  0.3258 -0.2057
 2030W        W17924   6.625   9.670  11.261  0.1927 -0.0234 -0.2525
 2031W        W17925   8.534   3.913  10.759 -0.0817  0.0858 -0.1322
 2032W        W17926  18.824  12.735   0.036  0.2997 -0.1633 -0.0556
 2033W        W17927  15.475   2.797   5.239 -0.2164  0.2189  0.0607
 2034W        W17928  13.586   7.073  14.272 -0.0320  0.2747 -0.0324
 2035W        W17929   6.536   2.710  13.844  0.2248 -0.2149 -0.2048
 2036W        W17930  14.379   6.010  12.791  0.0587 -0.4915  0.2182
 2037W        W17931   5.258  11.911   2.500  0.1766  0.0900  0.0649
 2038W        W17932   1.314  18.755   3.160  0.0554 -0.0718  0.0094
 2039W        W17933   8.008  13.387   2.548  0.4641 -0.4572  0.1370
 2040W        W17934  10.872  14.463  11.188 -0.2904 -0.1853 -0.0071
 2041W        W17935   8.438  18.704  14.495 -0.0055 -0.1460 -0.0813
 2042W        W17936   6.650   9.728  10.662  0.0405 -0.0951 -0.3440
 2043W        W17937  11.026   9.213   0.382 -0.0412  0.1569  0.1906
 2044W        W17938  17.504  13.487  14.243  0.0780 -0.3428  0.1471
 2045W        W17939  18.961   2.070  10.608 -0.1386 -0.2861 -0.1440
 2046W        W17940   8.590  10.615  10.371  0.3102  0.2171  0.1180
 2047W        W17941   5.432   2.309  10.776 -0.3189 -0.1137  0.2257
 2048W        W17942  15.336  11.914  10.518  0.0969 -0.0423 -0.0896
 2049W        W17943  19.034  15.450  13.605  0.0974  0.2138 -0.1017
 2050W        W17944   9.563   4.814  12.504  0.0741  0.0804  0.0633
 2051W        W17945   3.370   0.052  14.538 -0.1879 -0.1268  0.2631
 2052W        W17946  12.562  10.956  12.655 -0.0993  0.1819 -0.0774
 2053W        W17947   2.745   1.371   2.305  0.1166 -0.0575 -0.4435
 2054W        W17948   2.396   3.555   1.289  0.1679  0.0460  0.1296
 2055W        W17949  14.546   9.580   4.579  0.1124 -0.1810  0.0234
 2056W        W17950   1.088  18.544   3.663  0.1453 -0.1704  0.2208
 2057W        W17951  18.951  10.538   1.963  0.1663  0.2361  0.0960
 2058W        W17952  13.770  10.705  11.742 -0.1177  0.1233  0.1120
 2059W        W17953  11.967  12.626  14.426  0.0032  0.0377  0.0232
 2060W        W17954  10.182  14.585   5.552 -0.1167  0.0257 -0.0946
 2061W        W17955  14.892   6.761  12.321 -0.0524 -0.0884  0.1125
 2062W        W17956  14.267  14.659  15.051 -0.0207 -0.0374  0.1035
 2063W        W17957  13.532  11.172  11.806 -0.2484  0.0258  0.0021
 2064W        W17958   6.725   6.983  12.624 -0.1523 -0.4510  0.2660
 2065W        W17959   6.881  18.148   5.060 -0.1122 -0.2980 -0.0494
 2066W        W17960   9.826  14.160  14.803  0.0529 -0.1215 -0.0524
 2067W        W17961  13.993  12.951  15.134 -0.1281  0.1592 -0.0440
 2068W        W17962  10.014  18.476  12.330 -0.3735 -0.0176 -0.1144
 2069W        W17963  13.298  15.718   4.353 -0.3945 -0.3894 -0.1860
 2070W        W17964  12.484   4.351   4.694 -0.4268 -0.0743 -0.1366
 2071W        W17965   6.938   4.096  12.795 -0.1348 -0.3284 -0.0955
 2072W        W17966   9.862  10.736  11.616  0.2257  0.1265 -0.1078
 2073W        W17967   3.274  17.917   2.326 -0.2343  0.0578 -0.0549
 2074W        W17968   3.309   7.564  10.563 -0.2453 -0.1305  0.0363
 2075W        W17969   8.014  11.794   1.131 -0.0392  0.1051 -0.3878
 2076W        W17970   6.955  14.002   4.438 -0.1395  0.2072 -0.1579
 2077W        W17971   0.684  10.914   4.117 -0.2318  0.1499  0.1059
 2078W        W17972  18.349   2.002  12.532  0.0285  0.0370  0.2320
 2079W        W17973   7.071   7.886  15.052  0.2720 -0.2880 -0.1050
 2080W        W17974   1.717  16.941   0.397  0.2738  0.0904 -0.0793
 2081W        W17975   5.912  12.497  14.559  0.0622  0.1514  0.4339
 2082W        W17976  18.428   7.668   1.309  0.2500  0.3786 -0.4731
 2083W        W17977  18.920   8.206  14.398  0.0615 -0.3237 -0.2074
 2084W        W17978  16.849   2.006   3.351 -0.0188  0.1490 -0.1019
 2085W        W17979  15.458   7.636   1.674 -0.2090 -0.1673 -0.0123
 2086W        W17980  14.621   9.335   0.652  0.1561  0.1757  0.0491
 2087W        W17981   2.900   6.474   3.108 -0.0614  0.0444  0.3802
 2088W        W17982  17.888   3.367  14.292  0.4793 -0.0097  0.0267
 2089W        W17983   3.905  19.027   3.688  0.1435 -0.0235 -0.1800
 2090W        W17984  13.696   2.548   4.917 -0.1458  0.2989 -0.1605
 2091W        W17985   1.199   4.269  13.807  0.1179  0.0945 -0.1367
 2092W        W17986   7.578  17.849   5.511  0.0672 -0.2002 -0.0661
 2093W        W17987   8.107   0.042   3.906  0.1546  0.1127 -0.0023
 2094W        W17988   7.332  11.405  13.098 -0.1808  0.0403  0.0747
 2095W        W17989  12.735   2.435   1.333  0.0167 -0.1880 -0.1600
 2096W        W17990  16.668  18.256  12.105 -0.3250 -0.2104  0.2921
 2097W        W17991  11.695  17.965   9.599  0.0328  0.0734 -0.1302
 2098W        W17992  10.921  13.640  13.175 -0.0562 -0.1473 -0.0551
 2099W        W17993  15.792   6.836  14.384 -0.0070  0.1042  0.1789
 2100W        W17994  10.957   9.556   4.029 -0.2966 -0.2289 -0.1163
 2101W        W17995   7.114   1.906   5.684 -0.0480  0.1857  0.2305
 2102W        W17996  11.866   7.986  14.198 -0.3543 -0.1450  0.2457
 2103W        W17997  16.556  17.340  14.590  0.2780  0.0496 -0.0856
 2104W        W17998   7.618   5.970   3.779  0.0777 -0.0607  0.1558
 2105W        W17999  16.848   4.807   3.664 -0.1432  0.1203  0.1392
 2106W        W18000   7.063   7.643   3.972  0.1515  0.0644  0.0953
 2107W        W18001  13.837  17.340   2.071 -0.4031 -0.1394 -0.0231
 2108W        W18002   9.663   5.452   0.917  0.1270  0.1451  0.1026
 2109W        W18003  17.488  16.951   2.855  0.2814  0.3543 -0.0279
 2110W        W18004   2.141  16.653  11.589 -0.3008 -0.2044  0.3592
 2111W        W18005   0.332  14.787   3.866 -0.0106 -0.2375 -0.2231
 2112W        W18006  18.412  11.620  13.688  0.2725 -0.2133 -0.0041
 2113W        W18007   2.942   8.695   4.597 -0.1664 -0.1066  0.0850
 2114W        W18008   7.928   6.690  11.389 -0.3737 -0.2337  0.0358
 2115W        W18009   9.003  11.031  11.714 -0.1019  0.0210  0.0056
 2116W        W18010  13.948  11.158   1.432  0.1207  0.1591 -0.2220
 2117W        W18011  14.401   1.611  11.629  0.1991 -0.0934  0.1327
 2118W        W18012  10.421   4.131   4.626  0.1631  0.1250  0.1344
 2119W        W18013  11.136   9.487  13.767  0.0408 -0.1488  0.0543
 2120W        W18014  18.132  11.501   1.539 -0.0167 -0.1461 -0.0775
 2121W        W18015   3.173  17.761   5.032 -0.0056 -0.2747 -0.1519
 2122W        W18016   8.719  15.330  13.431  0.0010 -0.1557  0.0325
 2123W        W18017  12.972   7.206  13.616 -0.0435  0.0143  0.0876
 2124W        W18018   2.029   5.031   3.710  0.0992 -0.3541 -0.0467
 2125W        W18019   4.198  10.593  10.985 -0.0603  0.0926  0.0657
 2126W        W18020  17.165   3.289   2.217 -0.2099 -0.0046  0.0620
 2127W        W18021   9.170   5.220  11.213  0.0736  0.1731 -0.2680
 2128W        W18022   0.285  17.099  12.466 -0.0001  0.3323 -0.2067
 2129W        W18023   2.596  18.990   4.543 -0.1145  0.3076  0.0146
 2130W        W18024   1.613   2.528   3.308 -0.1632  0.1200  0.3592
 2131W        W18025   2.302   5.439   3.574 -0.0997  0.4244  0.0575
 2132W        W18026   5.144   1.762  13.793  0.3099  0.0373 -0.0300
 2133W        W18027   1.029  11.083  10.714 -0.0511  0.1123 -0.0451
 2134W        W18028   2.473   8.860   3.598 -0.0126  0.1026 -0.0685
 2135W        W18029   2.664   4.763   0.534  0.1300 -0.2048 -0.2188
 2136W        W18030   9.825  19.162   3.883 -0.0650  0.3573 -0.0412
 2137W        W18031   2.630  16.189  15.023 -0.1836  0.0444  0.2928
 2138W        W18032   4.153  13.114   1.099  0.0840 -0.0096  0.1912
 2139W        W18033   2.512  14.271   1.345  0.1562 -0.1479 -0.0060
 2140W        W18034   8.174  17.779  10.420  0.5493 -0.0886  0.2860
 2141W        W18035   4.542   3.052  13.212  0.1584  0.0247 -0.1782
 2142W        W18036  12.530  18.024  14.548 -0.2135 -0.1454 -0.1768
 2143W        W18037  18.710  16.736  11.973  0.2538 -0.2241  0.0650
 2144W        W18038  19.166  15.176  12.341  0.0829  0.0049 -0.2985
 2145W        W18039   4.287  11.643  12.527  0.1292  0.1401  0.1883
 2146W        W18040  19.040   7.732  14.860 -0.1268 -0.0086  0.0535
 2147W        W18041   1.564  15.579   1.122  0.1406 -0.1759 -0.1022
 2148W        W18042  16.697  16.946   3.534  0.0193 -0.2412  0.0299
 2149W        W18043   8.780   7.638   1.292 -0.1579 -0.3262 -0.0281
 2150W        W18044   3.442  17.980   4.608 -0.3659 -0.0894 -0.1265
 2151W        W18045   2.606  16.101   4.245  0.0126  0.1709  0.0357
 2152W        W18046   1.532   1.260  12.529 -0.1655 -0.0873  0.3724
 2153W        W18047  17.783  12.101   4.802 -0.0565  0.0087 -0.1123
 2154W        W18048  11.175  16.918  13.175 -0.1460  0.2772  0.0079
 2155W        W18049  11.310   4.206  14.838 -0.1289 -0.0312 -0.0146
 2156W        W18050   5.135   1.450  11.502  0.3343 -0.0601 -0.1997
 2157W        W18051   5.015  10.243  10.497  0.5057  0.1178  0.0645
 2158W        W18052  12.389  17.833  15.045 -0.4694 -0.0443  0.0470
 2159W        W18053  19.184   3.846  14.811 -0.1782 -0.2445  0.0877
 2160W        W18054  17.924   8.973   2.940 -0.2398 -0.1838  0.0667
 2161W        W18055  14.022   6.868  13.094  0.3261  0.0554  0.1903
 2162W        W18056   5.638   6.900   5.019  0.2114 -0.1207  0.0475
 2163W        W18057   5.139   8.341   0.631 -0.4932  0.0623  0.0023
 2164W        W18058   6.402   6.851   5.162  0.2515 -0.1963  0.1099
 2165W        W18059  10.904   8.469  12.993  0.0486 -0.0621 -0.0156
 2166W        W18060   1.948  15.743   0.692  0.2215 -0.0283  0.3847
 2167W        W18061  13.683  10.653   5.083  0.1815 -0.0099 -0.0600
 2168W        W18062   5.561  14.000   3.104 -0.0266 -0.0039 -0.1729
 2169W        W18063  17.203   4.146   1.806  0.1773  0.0518  0.2611
 2170W        W18064  12.824   8.190  10.736  0.2137  0.1135 -0.1905
 2171W        W18065   0.431  18.888   1.909 -0.4134 -0.1835  0.1729
 2172W        W18066  16.723  12.937   3.139  0.1343 -0.1709  0.1015
 2173W        W18067   2.981  14.510   5.015  0.2798  0.0070  0.1073
 2174W        W18068  11.577  14.210   1.082  0.0114  0.5571 -0.0092
 2175W        W18069  17.543   6.781  13.041 -0.0390  0.0088  0.2807
 2176W        W18070  14.588  18.608   5.429 -0.2035  0.1106 -0.1176
 2177W        W18071  17.049  18.654  15.131  0.2198  0.0529  0.0311
 2178W        W18072   3.906   5.720   4.180 -0.3444  0.1131 -0.0920
 2179W        W18073  14.475   3.019  14.985 -0.0539  0.1132  0.2685
 2180W        W18074   5.367  11.341   3.417 -0.0446  0.2311  0.0151
 2181W        W18075  14.396   6.660  12.187 -0.2746 -0.0452 -0.0761
 2182W        W18076   9.567   6.823  14.090  0.0517 -0.0834 -0.0536
 2183W        W18077   7.984   0.888  14.034  0.0908  0.2799 -0.0425
 2184W        W18078   8.994   1.264  12.446 -0.1508 -0.3113 -0.0025
 2185W        W18079  14.943   2.414  10.559 -0.1522  0.2374 -0.1865
 2186W        W18080   3.782  12.422  12.365 -0.0323 -0.1243 -0.0461
 2187W        W18081  10.664   4.445   2.849  0.0887  0.1247 -0.1312
 2188W        W18082  14.263  13.635  15.144 -0.0894  0.1756  0.2342
 2189W        W18083   0.780  11.777  12.448  0.1052 -0.1999  0.2984
 2190W        W18084  13.856  12.369   3.344  0.1959  0.1158 -0.0896
 2191W        W18085   8.338  18.884   4.193  0.2078  0.3181 -0.1090
 2192W        W18086   4.360  10.461   1.092  0.3371  0.0798  0.0381
 2193W        W18087  13.746  13.275   4.183  0.0570  0.0087  0.2664
 2194W        W18088  16.932  13.162   3.519 -0.1067 -0.1942 -0.0218
 2195W        W18089   6.417   0.931  12.238  0.0373  0.2285 -0.1339
 2196W        W18090  13.572  17.219  12.668 -0.1718 -0.1145  0.2240
 2197W        W18091   4.780  12.132   0.494  0.3259 -0.0726  0.0709
 2198W        W18092   1.999   0.817  11.202 -0.0365  0.0614  0.1046
 2199W        W18093  15.140  17.829  14.551 -0.2991 -0.1877 -0.0862
 2200W        W18094   1.679  16.515   1.335 -0.1171 -0.1070 -0.2712
 2201W        W18095   7.879  18.940   4.296  0.1352  0.0433 -0.2713
 2202W        W18096  11.812  12.925   0.105  0.1692  0.2242  0.3193
 2203W        W18097   0.287   1.176   5.033 -0.2659 -0.0312 -0.1521
 2204W        W18098  17.483   8.168  13.853  0.0723  0.0260  0.1792
 2205W        W18099  17.388  15.507   3.484 -0.0140 -0.1418  0.5346
 2206W        W18100   1.294   6.257   4.227 -0.1855  0.2205 -0.4785
 2207W        W18101  14.392   5.962  15.125 -0.1758 -0.0441 -0.1572
 2208W        W18102  15.950   2.970  12.854  0.1125 -0.1557  0.1095
 2209W        W18103  10.673  15.650   2.300 -0.2193 -0.5577 -0.1333
 2210W        W18104   6.620   8.913  11.837 -0.3559  0.0812  0.1228
 2211W        W18105   3.477  10.727   0.661 -0.0464 -0.0838  0.2106
 2212W        W18106  11.109  17.145  13.999  0.0959 -0.3996  0.0977
 2213W        W18107  16.830  13.271   1.801  0.1240 -0.2353 -0.1194
 2214W        W18108   6.392  18.933  13.486 -0.1197  0.1281  0.1323
 2215W        W18109   4.422   9.508  12.875 -0.2255  0.0415  0.0739
 2216W        W18110   4.283  14.948   0.537  0.0931 -0.2206  0.0884
 2217W        W18111   0.417   6.798  10.540  0.1117 -0.0154  0.1154
 2218W        W18112   0.507   9.418   2.113  0.2018 -0.0408 -0.1152
 2219W        W18113  15.221  17.402   1.657  0.0205  0.1832  0.0129
 2220W        W18114   4.109  18.381   4.331  0.2206  0.0960  0.4193
 2221W        W18115  11.663  10.317  11.193 -0.0554 -0.0392 -0.0673
 2222W        W18116   1.376  14.132  13.890  0.1790  0.0444  0.0808
 2223W        W18117  16.168   7.142  12.558 -0.1075  0.2717  0.0675
 2224W        W18118  15.462   8.240   3.889  0.1359  0.0657 -0.0115
 2225W        W18119   7.751   6.637   0.680 -0.1425 -0.3213  0.1641
 2226W        W18120   9.622  15.587  11.051 -0.1097 -0.1246  0.3133
 2227W        W18121  17.611   9.433  13.112  0.0067  0.4085  0.2037
 2228W        W18122   2.394  16.341   4.652 -0.2846  0.1994  0.2286
 2229W        W18123   2.102  15.269   5.058 -0.3088  0.1207  0.1201
 2230W        W18124  15.491   0.346   2.970  0.2812  0.1645 -0.2394
 2231W        W18125  16.459   2.603   5.285 -0.1452  0.0576  0.0492
 2232W        W18126  17.963   4.010   4.908 -0.1004 -0.2956 -0.0467
 2233W        W18127   2.926  11.843   1.643 -0.1822 -0.4206 -0.3907
 2234W        W18128  17.069  11.805   1.473 -0.0260 -0.1938 -0.0392
 2235W        W18129   1.016   6.762   2.624  0.3074 -0.2245 -0.0728
 2236W        W18130   4.640   4.117   2.580  0.2724 -0.3159  0.2294
 2237W        W18131   8.477  15.454   1.269  0.0512  0.1144 -0.1246
 2238W        W18132   2.793  11.314   1.672  0.0334 -0.2237 -0.1427
 2239W        W18133  12.574  16.727   1.015 -0.1350  0.2846  0.3336
 2240W        W18134   8.097   5.696   4.623 -0.0378  0.0665  0.2093
 2241W        W18135  14.468  13.216   0.912 -0.1302 -0.3110 -0.1725
 2242W        W18136  11.358  13.741   1.264  0.2630  0.1154 -0.0398
 2243W        W18137   1.469   0.589   2.291  0.2537 -0.1572  0.3605
 2244W        W18138   5.474  14.787  11.263  0.3350 -0.1598  0.0714
 2245W        W18139  16.925  17.814   0.732  0.1838  0.1672 -0.1988
 2246W        W18140  12.804   8.666  12.765  0.0555 -0.0750 -0.2645
 2247W        W18141   4.809  16.629   0.363  0.1042  0.0300 -0.1262
 2248W        W18142   4.007   7.996   4.337  0.0163  0.1106  0.1619
 2249W        W18143  18.453  17.036  11.373 -0.2208 -0.0100  0.3420
 2250W        W18144   8.441   8.213  10.205  0.1350 -0.2055  0.0136
 2251W        W18145   6.839  15.996  14.033  0.2055  0.1188  0.0535
 2252W        W18146  15.177  12.333  11.477  0.0422 -0.2348 -0.0302
 2253W        W18147   5.691   8.680  12.627  0.2517  0.0430 -0.0712
 2254W        W18148  13.964   2.185  14.995 -0.0707  0.0963  0.0878
 2255W        W18149  12.366  11.207   3.488 -0.0124 -0.1430  0.1288
 2256W        W18150  12.540  13.653   2.524 -0.4126  0.1181 -0.0611
 2257W        W18151  17.813  11.391  12.795  0.1977 -0.0742  0.0606
 2258W        W18152  16.313  13.188  11.300  0.2042  0.2141 -0.4446
 2259W        W18153  14.158  17.208   5.644 -0.1025 -0.1976  0.3792
 2260W        W18154  13.724   5.329  13.409 -0.2287 -0.0302 -0.0052
 2261W        W18155   0.807   4.110   1.450  0.1116 -0.3068 -0.0089
 2262W        W18156  12.713   4.494   1.156 -0.0209  0.3093  0.0867
 2263W        W18157  10.412  10.912   4.786  0.0843  0.2739  0.1340
 2264W        W18158  18.935   6.902  12.254 -0.2624 -0.2737  0.2239
 2265W        W18159   7.134  14.127   1.633 -0.0076  0.0951  0.3800
 2266W        W18160  10.797  10.570   4.650  0.4279 -0.0424  0.1378
 2267W        W18161  12.203   3.489   0.270 -0.1306 -0.3389  0.0491
 2268W        W18162  14.213   9.204   4.592 -0.0161 -0.4681 -0.0162
 2269W        W18163   7.346   7.260  15.177  0.3055 -0.1332 -0.0787
 2270W        W18164  18.433  13.967  14.168  0.2689 -0.2885  0.1971
 2271W        W18165  17.314   5.315  14.146 -0.2659  0.2934  0.0725
 2272W        W18166  18.541   1.303   1.591 -0.2089  0.0191  0.0715
 2273W        W18167  11.794   5.590   4.720  0.0185 -0.1404 -0.4066
 2274W        W18168   2.677   3.720   2.122  0.0053 -0.1737  0.3245
 2275W        W18169   0.534  18.841   0.900  0.2499  0.2721  0.2052
 2276W        W18170   5.425   5.258  12.510  0.3076  0.0281  0.1065
 2277W        W18171   3.227   4.382  12.402  0.1809  0.1161  0.2315
 2278W        W18172  15.635   0.096   3.385  0.0080 -0.3741  0.2398
 2279W        W18173  11.974   1.347   2.361 -0.0117  0.0683  0.1839
 2280W        W18174   0.156   9.584   0.848 -0.1242  0.1216 -0.1816
 2281W        W18175   6.724   4.503  10.333  0.4020  0.2967 -0.2397
 2282W        W18176   1.184  12.636   3.498 -0.2105 -0.1268 -0.0184
 2283W        W18177   1.603  16.449   3.330  0.0110 -0.2224  0.2898
 2284W        W18178   7.871  10.058  10.086 -0.2723  0.0015  0.0833
 2285W        W18179  15.890  17.227   2.748  0.7555  0.2679 -0.1956
 2286W        W18180   9.761  14.937   9.577  0.2322  0.0683 -0.2417
 2287W        W18181   6.158  14.401  13.395  0.1062 -0.0067  0.0509
 2288W        W18182   3.111   0.660   4.945 -0.0965 -0.0336 -0.2086
 2289W        W18183   8.044  17.249  11.494 -0.2721 -0.0691 -0.0823
 2290W        W18184   0.442  13.456   4.583 -0.1247 -0.1784  0.2107
 2291W        W18185  10.846  16.833  14.299  0.1702  0.0473  0.1766
 2292W        W18186   1.565   1.539  13.126  0.0617  0.0151 -0.3098
 2293W        W18187  10.936  18.318  10.727 -0.1084 -0.0613  0.0437
 2294W        W18188   0.079   4.418   0.343 -0.0632  0.1930  0.0728
 2295W        W18189  15.338   1.185  13.178 -0.2243  0.1786  0.0633
 2296W        W18190   4.266  12.339  14.319  0.0798 -0.0782  0.1289
 2297W        W18191   7.302  10.686   0.119  0.1204 -0.0349 -0.0391
 2298W        W18192  17.428  11.307  13.095 -0.1923 -0.1240  0.0793
 2299W        W18193  19.126  18.153  11.884 -0.0693 -0.2192 -0.0813
 2300W        W18194   7.181  17.236   0.845 -0.1074 -0.0105  0.1654
 2301W        W18195  17.463   0.775   0.126  0.1394  0.0127  0.2306
 2302W        W18196  14.377  10.413   4.290  0.0825 -0.3640 -0.0614
 2303W        W18197  14.420  14.170   3.567  0.0279  0.1369 -0.1231
 2304W        W18198   9.008   8.331   9.683 -0.0247 -0.0351 -0.0955
 2305W        W18199  19.015  18.511   0.983  0.0791 -0.2912 -0.0386
 2306W        W18200  10.674  15.731   0.215  0.1789  0.0586  0.3120
 2307W        W18201  14.792   6.872  11.365  0.1455 -0.0809  0.1350
 2308W        W18202   9.926  17.324  14.484 -0.3510 -0.0271 -0.1683
 2309W        W18203   3.387   7.893  10.995  0.0430 -0.1668 -0.1657
 2310W        W18204  13.406   4.619  11.546  0.3475  0.1103 -0.1369
 2311W        W18205   7.995   0.424  13.385  0.2773 -0.0175  0.3398
 2312W        W18206   7.426   3.372  11.809 -0.1349  0.1922 -0.0082
 2313W        W18207   2.037  11.849   4.995 -0.2071  0.1714 -0.0356
 2314W        W18208  13.995   2.902  13.675  0.1663  0.1136 -0.0098
 2315W        W18209  15.581   8.246   2.561  0.2344 -0.3850  0.1906
 2316W        W18210   5.219   2.093   2.550  0.2372 -0.2342 -0.0702
 2317W        W18211  11.094   4.154   0.635  0.1234 -0.2686 -0.0933
 2318W        W18212   5.234   1.819   3.028  0.1523 -0.3162 -0.2358
 2319W        W18213   8.668  15.328  12.538 -0.2810  0.0982  0.0173
 2320W        W18214  13.470   3.590  11.657  0.0333  0.0343  0.0057
 2321W        W18215  13.043   1.297   0.434 -0.2854  0.2836 -0.1705
 2322W        W18216  12.609   2.111  15.130  0.0902  0.2125 -0.2924
 2323W        W18217  13.971   1.640   3.890  0.0033 -0.0552 -0.2903
 2324W        W18218  10.840  11.690   3.005 -0.3946 -0.1700  0.1064
 2325W        W18219   5.354  15.156   1.464 -0.0070 -0.1857  0.1599
 2326W        W18220   7.210   6.802   4.017  0.0665  0.0495 -0.0021
 2327W        W18221   4.043  17.731   0.057  0.1656  0.1465 -0.0241
 2328W        W18222   0.599   1.853  15.048  0.1383 -0.0518  0.3467
 2329W        W18223   9.319   4.269  13.878 -0.2003  0.2462  0.2382
 2330W        W18224   8.043   2.959   3.818 -0.1945 -0.0101 -0.0382
 2331W        W18225  12.993  15.450   1.522 -0.0496 -0.0057  0.0461
 2332W        W18226  11.065  14.349   1.308  0.3919  0.0825  0.5378
 2333W        W18227  17.534   0.810  14.844 -0.0142 -0.0043 -0.1854
 2334W        W18228   6.275   4.148   1.373 -0.0207  0.2137 -0.0614
 2335W        W18229  12.452  17.314   4.287  0.1213 -0.4885  0.4004
 2336W        W18230  14.324   2.002   2.973 -0.2697 -0.0565  0.0383
 2337W        W18231   7.709  13.407  10.555 -0.0724 -0.2644 -0.3544
 2338W        W18232   8.587  17.404  11.947 -0.4780 -0.0986 -0.0291
 2339W        W18233   1.914   6.176  11.016  0.0430  0.2712  0.0238
 2340W        W18234  15.147  11.208   1.014 -0.0670  0.2066 -0.0022
 2341W        W18235   0.270   2.247   6.031  0.0469 -0.1022  0.3755
 2342W        W18236  15.176  18.998   3.171 -0.1423  0.0248  0.2508
 2343W        W18237  14.937   2.797   3.929  0.1927 -0.2064  0.0086
 2344W        W18238   9.571   1.863  13.546 -0.0098 -0.0299 -0.2397
 2345W        W18239   6.338  14.194  11.001  0.0456  0.1210  0.3470
 2346W        W18240   7.819   2.079  11.619 -0.1889 -0.1323  0.0638
 2347W        W18241  13.788   3.427  12.434 -0.1286 -0.1232 -0.1807
 2348W        W18242  10.916   3.945   3.634 -0.0412 -0.1216 -0.1827
 2349W        W18243   7.935  16.475   9.739 -0.1728  0.0605  0.0313
 2350W        W18244  15.951  15.376  13.472  0.0078 -0.2558  0.2238
 2351W        W18245  14.935   7.843   5.247 -0.0648  0.0132 -0.1773
 2352W        W18246   0.586   6.913   0.422 -0.1909 -0.1695  0.1209
 2353W        W18247  15.397   7.739   3.159 -0.2181 -0.1945 -0.0104
 2354W        W18248  17.212   9.680  14.674  0.2534 -0.1580 -0.1259
 2355W        W18249   5.783   4.807  11.835 -0.2310 -0.0947 -0.0424
 2356W        W18250   2.751  12.272   3.345  0.1089 -0.0305  0.0277
 2357W        W18251  18.450   9.363   3.786  0.1226 -0.1578  0.1544
 2358W        W18252   3.873  10.156   9.745 -0.1613  0.0420 -0.1725
 2359W        W18253  14.582  12.572  13.946 -0.2540  0.0911  0.1536
 2360W        W18254   8.329   2.525   2.402  0.3720  0.0610  0.0611
 2361W        W18255   7.980  12.390  11.105 -0.0402  0.1625 -0.4621
 2362W        W18256  11.940   5.449  12.712  0.0841  0.2300 -0.0933
 2363W        W18257   7.657   2.231   2.515 -0.3252  0.0612  0.2400
 2364W        W18258   7.359  13.848  14.839  0.0896  0.1225 -0.0379
 2365W        W18259   0.007   3.558  11.564 -0.4607 -0.0638  0.1153
 2366W        W18260   0.329   4.001   1.705 -0.0973 -0.0396 -0.0145
 2367W        W18261  13.111   4.677  14.563 -0.1987 -0.0658  0.0361
 2368W        W18262   5.967  18.416   1.809  0.1221 -0.2873  0.0746
 2369W        W18263  10.592   1.297   3.339 -0.0001 -0.2138  0.1930
 2370W        W18264   5.607  18.875  10.353 -0.4743 -0.1054 -0.0807
 2371W        W18265  16.058  10.555   3.277  0.1529 -0.0837  0.2777
 2372W        W18266  14.593  15.106   1.856  0.1130 -0.1894 -0.3231
 2373W        W18267  15.166   9.879   4.419  0.0466  0.0019  0.0877
 2374W        W18268  17.117   4.935  10.129  0.0269 -0.4276 -0.3205
 2375W        W18269   5.954   8.288  10.880 -0.5012  0.0274 -0.3042
 2376W        W18270   8.717  10.853  12.314 -0.0249  0.1262  0.1588
 2377W        W18271  15.678   4.626   1.514  0.1255 -0.1851  0.0406
 2378W        W18272   1.300   2.649  13.898  0.1301  0.0365 -0.2362
 2379W        W18273  11.160  14.987   1.954 -0.1303 -0.0905  0.0060
 2380W        W18274  16.797   4.550  10.736 -0.1484  0.0367  0.0454
 2381W        W18275   9.877   5.059   0.701  0.1957  0.1498 -0.0818
 2382W        W18276   6.692  18.430   1.199  0.0207  0.1427  0.2119
 2383W        W18277  15.251   7.221   1.399 -0.1193  0.1418  0.2709
 2384W        W18278  11.747  12.769   1.000 -0.0189 -0.0262  0.1375
 2385W        W18279  14.919  10.418   4.510  0.2316 -0.1276  0.1884
 2386W        W18280  17.266   0.737   1.061  0.1633  0.1087  0.2538
 2387W        W18281  12.551  11.066  14.510 -0.3746  0.0057 -0.1105
 2388W        W18282  11.395  18.818   0.619  0.0923 -0.2337 -0.1083
 2389W        W18283   7.498  11.556   0.292  0.0073 -0.1771 -0.2289
 2390W        W18284   1.227   6.166  14.512  0.0343  0.2140 -0.1775
 2391W        W18285   1.694  18.001   0.203 -0.0294 -0.1386  0.1910
 2392W        W18286   3.333   7.211   4.153  0.2279 -0.0045  0.2793
 2393W        W18287   4.292  10.896   0.150  0.0975 -0.2102 -0.0014
 2394W        W18288   8.979  14.355   5.115 -0.0950 -0.0993  0.1581
 2395W        W18289   1.831   9.084  11.376 -0.2701 -0.0408 -0.1044
 2396W        W18290   3.231  19.099   2.277  0.5319 -0.2701 -0.1338
 2397W        W18291   3.424   8.084   1.081  0.0677  0.0349  0.2368
 2398W        W18292  12.326   5.674   4.507 -0.0539 -0.0029  0.0185
 2399W        W18293  17.203   0.519  14.534  0.0974  0.2854  0.0717
 2400W        W18294   8.622  13.451  12.061  0.0861  0.1327  0.0893
 2401W        W18295   4.188   4.116  13.715  0.1381  0.2088 -0.0129
 2402W        W18296   0.216  15.639   1.677 -0.0959  0.2741 -0.2379
 2403W        W18297  14.514   7.560   0.758 -0.1707  0.1735 -0.0010
 2404W        W18298  18.866  18.588  14.978 -0.0948 -0.0844  0.3895
 2405W        W18299   5.170  10.003   3.420  0.2595  0.2415 -0.1143
 2406W        W18300  18.363   0.302   2.063  0.1336  0.2355 -0.0426
 2407W        W18301   9.352   2.090   0.537 -0.0535  0.1584  0.0442
 2408W        W18302   0.767   5.226   3.798  0.1146  0.0688  0.1856
 2409W        W18303  16.972  13.281  14.075 -0.0306 -0.0591 -0.0456
 2410W        W18304   2.194  14.663  12.517 -0.0721 -0.0529  0.3890
 2411W        W18305   1.000   3.159   1.083 -0.1611  0.0405  0.2181
 2412W        W18306  12.095  15.877  10.925  0.0615 -0.3708 -0.2348
 2413W        W18307   7.528   9.911   2.213  0.0209 -0.1105 -0.0391
 2414W        W18308  11.665  13.505  14.187  0.2226  0.1782  0.0396
 2415W        W18309   3.073  17.870   3.680  0.1525  0.0160  0.0127
 2416W        W18310  11.003   3.265   4.315  0.0694  0.0544  0.0874
 2417W        W18311  14.761   9.238  12.611  0.1530  0.0792 -0.2702
 2418W        W18312  15.807   1.331  15.017 -0.2924  0.1165  0.0157
 2419W        W18313   2.905  14.460   3.641  0.0525  0.0222  0.2471
 2420W        W18314  15.187  13.356  15.034  0.2217 -0.1819 -0.2518
 2421W        W18315   9.407  11.295  11.869  0.0559 -0.4024  0.0386
 2422W        W18316  13.125   0.640  12.476 -0.1296 -0.1578 -0.0173
 2423W        W18317  18.083  15.905   3.123 -0.1253 -0.0566 -0.3148
 2424W        W18318  15.361   9.058   0.265  0.3004 -0.3085  0.3401
 2425W        W18319  13.071   1.938  11.600 -0.1122  0.1678  0.1246
 2426W        W18320  18.641   9.118   1.702  0.1037 -0.0331 -0.1825
 2427W        W18321   0.349  14.113  13.981  0.2977 -0.0311 -0.1399
 2428W        W18322   4.807   1.965  13.363 -0.4293  0.2020 -0.0550
 2429W        W18323   4.715  16.277  10.701 -0.1917  0.6320  0.0242
 2430W        W18324   9.671   9.113   2.794  0.0440 -0.1365  0.1223
 2431W        W18325   8.723   5.805  13.898  0.0203 -0.1562 -0.0070
 2432W        W18326   9.060  16.796   3.542 -0.3117 -0.2030  0.1155
 2433W        W18327  13.168  18.344  11.932  0.3281 -0.3215 -0.3160
 2434W        W18328  17.444  16.351   2.801 -0.2818 -0.1923  0.2793
 2435W        W18329  15.363  19.141   0.896 -0.0070  0.0417  0.2303
 2436W        W18330   5.868  12.377   0.913 -0.2927  0.2357 -0.1549
 2437W        W18331   8.963   3.182  10.727  0.1389  0.0383 -0.0558
 2438W        W18332   2.251  14.294  12.956 -0.2358  0.1348  0.1052
 2439W        W18333   7.721  12.526   5.327  0.4050  0.0569 -0.0659
 2440W        W18334   8.669   6.587   1.096  0.0465 -0.0513  0.2182
 2441W        W18335   0.813   4.656  13.957  0.1174 -0.1269  0.2674
 2442W        W18336   5.954   6.642   4.686  0.2676 -0.0632  0.0646
 2443W        W18337   0.917   9.198  14.382  0.1354  0.0682 -0.2486
 2444W        W18338  17.017  11.054  14.038  0.1905 -0.0114 -0.1008
 2445W        W18339   3.790  18.466   1.026  0.0310  0.2612  0.1971
 2446W        W18340   4.690   5.646   2.974  0.1282  0.0894  0.0634
 2447W        W18341   7.645   6.547   4.411 -0.4661 -0.2434  0.2781
 2448W        W18342  14.064   8.488   0.436 -0.0261  0.1443 -0.3396
 2449W        W18343  18.414   9.050  13.171  0.0628 -0.1037  0.9191
 2450W        W18344   2.163   1.054   2.364 -0.0478  0.1055 -0.2671
 2451W        W18345   1.431  11.956  11.236  0.0888 -0.1144 -0.5701
 2452W        W18346  18.596  14.144  15.040 -0.0621  0.0902 -0.1147
 2453W        W18347   5.492   4.780   3.065  0.1777  0.0477 -0.0131
 2454W        W18348   3.403  16.323  13.393  0.2741  0.0340 -0.1351
 2455W        W18349  16.352   2.015  13.091  0.2663 -0.1384  0.0194
 2456W        W18350  16.360   1.067   4.513 -0.0967 -0.0497  0.3480
 2457W        W18351  14.037  15.221   1.794 -0.4142  0.1046  0.1833
 2458W        W18352  13.950  14.499   0.158  0.1696 -0.0938  0.3039
 2459W        W18353   6.456   0.354   3.253  0.1856 -0.1677 -0.0192
 2460W        W18354  14.450  13.564  11.928 -0.0919  0.0657  0.0765
 2461W        W18355  14.633   8.727   2.126  0.2449 -0.1788 -0.0530
 2462W        W18356  11.483  13.976  11.610  0.1199  0.0889 -0.2966
 2463W        W18357  15.061  15.964  14.247  0.1603 -0.3344 -0.0126
 2464W        W18358   3.443   5.233   0.286  0.0091 -0.2955 -0.3073
 2465W        W18359   3.738   3.211  13.619  0.0806 -0.2426 -0.0372
 2466W        W18360   1.028  18.801  13.247 -0.1265 -0.3291 -0.1066
 2467W        W18361   8.775   5.598   3.959 -0.0428 -0.0804  0.2190
 2468W        W18362   2.087   9.480  12.438  0.1302  0.0122  0.0223
 2469W        W18363  12.935   9.354   9.896  0.1339  0.0289  0.1146
 2470W        W18364   4.997  15.475   4.840  0.1594  0.1465 -0.0392
 2471W        W18365   7.843   6.271  10.558 -0.3105 -0.3102  0.2190
 2472W        W18366  10.889  10.690  13.003  0.0200  0.6916  0.0105
 2473W        W18367  18.109   9.512  14.937  0.0783  0.0573 -0.2276
 2474W        W18368  11.941   7.721   4.625 -0.1124 -0.3290  0.1706
 2475W        W18369   2.836   3.110   5.227  0.1963 -0.0280  0.1290
 2476W        W18370   2.253   9.700   2.004 -0.1565 -0.0811  0.1793
 2477W        W18371  17.407   0.262   5.416  0.1971 -0.1839  0.2268
 2478W        W18372  11.483   8.392   1.236 -0.1502  0.2622 -0.1866
 2479W        W18373  14.344  12.421   5.284 -0.2895  0.2583  0.0021
 2480W        W18374   6.172   5.811   3.474 -0.0187  0.2443  0.1357
 2481W        W18375   5.865   9.790   3.064 -0.3354 -0.2364 -0.3846
 2482W        W18376  16.283  13.858  14.793  0.3144 -0.1008  0.0366
 2483W        W18377  15.768   0.312   4.615  0.1852  0.1642  0.4521
 2484W        W18378  16.902  11.927   3.364  0.0807  0.0929  0.1278
 2485W        W18379  16.984   0.279  12.992 -0.0361  0.0621 -0.1025
 2486W        W18380   9.961   7.190  12.463  0.2680 -0.3808  0.1727
 2487W        W18381  18.145   0.520   0.944 -0.0773 -0.0560  0.0440
 2488W        W18382  16.014   1.990   3.525 -0.4574 -0.4341 -0.0870
 2489W        W18383   7.358   5.859   1.427 -0.3957 -0.0412 -0.3151
 2490W        W18384   3.345  14.217   1.091  0.0681  0.1461 -0.0613
 2491W        W18385   5.837   9.767  10.576 -0.2029 -0.3195 -0.0835
 2492W        W18386   5.729   7.085  13.489  0.3825  0.2107  0.1117
 2493W        W18387   6.967   7.992   5.727  0.0925 -0.0230 -0.0411
 2494W        W18388  10.202   8.027  12.391 -0.2001  0.0056  0.0256
 2495W        W18389   6.306   9.735  12.335  0.2136  0.3156 -0.2468
 2496W        W18390  12.882  15.606   4.076  0.2461  0.0736 -0.1631
 2497W        W18391   5.930   2.784   0.332 -0.1151 -0.0729 -0.3393
 2498W        W18392   7.448  16.330  14.907 -0.1458 -0.0637 -0.0217
 2499W        W18393   6.415   8.293  14.910 -0.2265 -0.2434 -0.0953
 2500W        W18394  16.036  16.315   3.538  0.2702 -0.2662  0.0116
 2501W        W18395   6.693   4.200   2.318 -0.0332  0.0732 -0.0400
 2502W        W18396   6.227   0.385   2.676  0.0893 -0.2242  0.1651
 2503W        W18397  13.636  16.540   0.885 -0.2281  0.0449 -0.1436
 2504W        W18398   3.758   2.941   0.447 -0.3749 -0.2509  0.1574
 2505W        W18399  17.555   2.355  12.254 -0.2674 -0.1305  0.1127
 2506W        W18400   4.326   7.071   2.355  0.1722 -0.1826 -0.2310
 2507W        W18401   0.715  18.148   0.187 -0.4153  0.0283  0.1124
 2508W        W18402   6.369   2.912   1.232 -0.1066 -0.1112  0.0589
 2509W        W18403   7.168   1.187  10.155  0.1974  0.0758 -0.3458
 2510W        W18404  12.054  12.063   2.609  0.1641 -0.2466  0.0095
 2511W        W18405  16.528   2.011   2.022  0.0405  0.2893 -0.0584
 2512W        W18406  12.639   9.235   3.752 -0.0748  0.0193  0.1808
 2513W        W18407  17.676  15.873   3.608  0.3988 -0.3684  0.0086
 2514W        W18408   0.185   2.591   2.863  0.1558  0.0837  0.3087
 2515W        W18409  15.862  12.071  13.671  0.1488 -0.1049 -0.1632
 2516W        W18410   1.348  18.435  14.610 -0.1513 -0.2174  0.2081
 2517W        W18411  16.342   2.898  12.505 -0.2062 -0.0565  0.0617
 2518W        W18412  13.791  18.191   1.317 -0.2708  0.1416 -0.0195
 2519W        W18413  13.784  12.354   9.480 -0.1833 -0.1180 -0.4056
 2520W        W18414   7.478  10.559  14.146 -0.0135  0.3107  0.0387
 2521W        W18415   8.169  17.429  14.675  0.2633 -0.4052  0.0041
 2522W        W18416  10.142   3.961   0.984  0.2062 -0.0406 -0.1626
 2523W        W18417  13.599  15.098   0.930 -0.0995  0.0328  0.1130
 2524W        W18418  17.483   3.909   0.454  0.0041 -0.2411 -0.2898
 2525W        W18419  18.692  10.086  13.154 -0.2090 -0.1994 -0.0806
 2526W        W18420   8.112   5.472   2.150  0.3140  0.0954 -0.2876
 2527W        W18421   1.382  10.242  12.052  0.0696 -0.1130  0.0637
 2528W        W18422   3.593   4.837   2.583 -0.0833  0.2171  0.0597
 2529W        W18423  12.958   4.602  10.972  0.0132 -0.0211 -0.0719
 2530W        W18424  16.056   1.459  11.027 -0.0461  0.1320 -0.4122
 2531W        W18425  10.353   0.167  13.330  0.0625  0.1583 -0.1970
 2532W        W18426  14.967   7.627   0.950  0.2152 -0.0271  0.4682
 2533W        W18427   5.546  11.559  14.851  0.1296  0.0057  0.0561
 2534W        W18428  18.019   7.507  14.884  0.0212 -0.0698 -0.1706
 2535W        W18429   4.718  14.829   0.692 -0.2082 -0.0463  0.0609
 2536W        W18430  16.495   0.008   5.812  0.0577 -0.2291  0.0483
 2537W        W18431  16.700  17.488   4.691  0.2311  0.1308  0.3299
 2538W        W18432  18.815  12.396  13.940  0.0222  0.4438  0.1127
 2539W        W18433   3.360  12.785   3.880 -0.2285 -0.0425  0.1278
 2540W        W18434   2.785  11.806   3.006 -0.1406  0.1645 -0.1210
 2541W        W18435  17.298   1.261  14.810  0.1348  0.0010  0.0641
 2542W        W18436   0.239  10.068  10.938  0.0558  0.0905  0.0143
 2543W        W18437  14.669  11.721  13.209 -0.2260 -0.5492 -0.3169
 2544W        W18438   6.877  16.567  14.207  0.3235  0.2382 -0.0069
 2545W        W18439   7.037  15.118   1.617  0.0309 -0.2829 -0.2090
 2546W        W18440  15.059  14.527   3.213 -0.1080  0.2491  0.2362
 2547W        W18441  17.315  15.830   1.366 -0.2372  0.3314  0.1767
 2548W        W18442   2.936  18.114   0.532 -0.1518  0.1654  0.0607
 2549W        W18443  18.951   9.344  10.235 -0.3908 -0.0151 -0.3865
 2550W        W18444  10.794  17.229   3.475 -0.1533  0.0027 -0.1996
 2551W        W18445  12.920   3.537   2.166 -0.1944  0.2095 -0.2099
 2552W        W18446  12.976  13.474  10.268 -0.0505 -0.0969  0.1983
 2553W        W18447  15.345  12.500   1.614  0.0048  0.1940  0.0844
 2554W        W18448   0.178   3.452   5.082 -0.0691  0.2017 -0.1174
 2555W        W18449   6.371   8.198  10.089  0.0315 -0.1764  0.0242
 2556W        W18450   0.211   5.532   3.986 -0.1101 -0.1877 -0.0354
 2557W        W18451   2.155   6.847  11.831  0.0201 -0.4190  0.3109
 2558W        W18452   6.740  14.947   4.486 -0.1065 -0.1413  0.0349
 2559W        W18453  16.944  14.805   2.987 -0.2813 -0.2547 -0.0345
 2560W        W18454  15.415  17.969  13.015 -0.0951 -0.0373 -0.0593
 2561W        W18455  12.024  15.335   4.523 -0.2322  0.2676 -0.2878
 2562W        W18456  10.406  15.773  13.214  0.2491  0.1883  0.0241
 2563W        W18457  12.411  15.776   2.365 -0.1791 -0.1912 -0.5956
 2564W        W18458   4.026   1.479   2.577  0.2914  0.0705  0.1718
 2565W        W18459   0.558  19.148   5.050  0.1093 -0.2451 -0.0163
 2566W        W18460   8.391   5.449   1.280 -0.0503 -0.1692 -0.2270
 2567W        W18461   7.340   8.020   1.765  0.1187 -0.3462 -0.0166
 2568W        W18462  13.202   6.982   1.511  0.5269 -0.0014  0.2025
 2569W        W18463   5.676   9.661  12.573  0.5239 -0.2086 -0.1116
 2570W        W18464   6.917  14.882   2.141 -0.3548 -0.0408  0.0351
 2571W        W18465  15.860   7.788  13.913  0.1825  0.1190 -0.2538
 2572W        W18466  15.380   7.761  14.105  0.4013  0.1242 -0.1398
 2573W        W18467   0.072   7.696   2.916  0.0527  0.0345  0.0891
 2574W        W18468   7.514   4.484  11.545  0.0829  0.0841 -0.1529
 2575W        W18469   8.961   5.035  11.704  0.4140  0.1005 -0.1004
 2576W        W18470  11.760   0.077  12.026 -0.0910  0.1938 -0.2059
 2577W        W18471  18.886   9.267  12.100  0.1280 -0.2408 -0.2394
 2578W        W18472  12.986  18.874  11.230 -0.0601  0.0859 -0.0897
 2579W        W18473  18.283  12.910  14.692 -0.0337 -0.0517 -0.5246
 2580W        W18474  15.982  11.830   2.584  0.1689  0.0616 -0.0604
 2581W        W18475   1.650  18.684  14.211  0.0467 -0.0011  0.2331
 2582W        W18476   6.663  13.966   4.027  0.0213 -0.1657 -0.3019
 2583W        W18477   2.953   5.519  11.082 -0.0579  0.0682  0.0032
 2584W        W18478  13.883   3.799   3.922  0.2979  0.2186  0.1129
 2585W        W18479   8.521  19.153  12.675  0.0607  0.3478 -0.1201
 2586W        W18480   3.823   9.128  14.878 -0.2449  0.1201 -0.0686
 2587W        W18481  11.811   4.190   4.105 -0.1723  0.4612  0.0835
 2588W        W18482   4.199  18.383  14.865  0.2854 -0.2565 -0.0675
 2589W        W18483  17.523   4.915  13.354  0.1289 -0.1822  0.0943
 2590W        W18484  11.918   0.471   1.140  0.3929 -0.1047  0.0311
 2591W        W18485  13.414   5.063   3.897 -0.2036 -0.2023  0.1110
 2592W        W18486   7.101   5.865  11.735  0.0041  0.2386  0.0925
 2593W        W18487  18.990   0.555   3.320 -0.0739 -0.1648 -0.0034
 2594W        W18488  12.783  13.548   1.441  0.0706  0.3237  0.1696
 2595W        W18489   8.117  11.343   0.992  0.0929  0.1943 -0.0889
 2596W        W18490  14.780   6.633   4.651  0.0373  0.0573 -0.2589
 2597W        W18491   9.290   2.792   1.978  0.0228  0.0268  0.3987
 2598W        W18492   0.701  14.131   0.978 -0.0345 -0.5236  0.0116
 2599W        W18493   3.400  12.825   2.184 -0.0013  0.1545 -0.0044
 2600W        W18494   7.232  10.628   0.591 -0.0767  0.0677 -0.4536
 2601W        W18495  17.494  12.993   4.309  0.1843  0.0290  0.1162
 2602W        W18496  13.582   9.145   3.471  0.2496 -0.1501 -0.0870
 2603W        W18497  15.658  10.768  15.163  0.0688  0.0623  0.0875
 2604W        W18498  13.716   2.633  12.558  0.0476 -0.0321  0.0889
 2605W        W18499  14.471  15.876  14.151 -0.4205  0.1885 -0.2920
 2606W        W18500   7.758   6.652   5.734 -0.1129  0.4755  0.1712
 2607W        W18501   6.892   0.593  14.386 -0.0719 -0.0861  0.0825
 2608W        W18502  16.833   1.447   5.420 -0.5059 -0.0304  0.0806
 2609W        W18503   9.645   8.533   4.909  0.2000  0.0316 -0.0416
 2610W        W18504   3.735   7.047  14.689  0.0260  0.1147  0.2494
 2611W        W18505  11.700   0.895   1.838 -0.3006 -0.2409  0.2469
 2612W        W18506  15.145  10.735   4.119  0.2121  0.1590  0.1397
 2613W        W18507  14.889   8.260  15.005 -0.0882  0.1887 -0.0224
 2614W        W18508  14.573  10.386   3.506 -0.0409 -0.1920 -0.0767
 2615W        W18509   2.428   0.961  12.061 -0.0428 -0.1278 -0.2203
 2616W        W18510   3.372  10.593   2.101 -0.1014 -0.3121  0.3644
 2617W        W18511   7.165  13.431  10.735 -0.0800 -0.1554 -0.0619
 2618W        W18512   4.484   3.849   1.363 -0.0557 -0.4557 -0.0789
 2619W        W18513   0.302   0.806  13.496  0.2116 -0.0891  0.1069
 2620W        W18514  11.756  11.981   3.412 -0.0399 -0.2610 -0.1117
 2621W        W18515   3.157   4.503  11.194  0.1722  0.0751 -0.1315
 2622W        W18516  18.463  13.471   3.502 -0.1360  0.0466 -0.0419
 2623W        W18517   3.169   9.087  11.231 -0.2030  0.0481 -0.2250
 2624W        W18518   3.431   0.490   1.447 -0.2483  0.0815 -0.1847
 2625W        W18519   9.194  18.306  13.845 -0.1383  0.1533  0.3804
 2626W        W18520   1.927   7.504  12.339  0.2766  0.2580  0.1223
 2627W        W18521  11.889   2.528  15.082 -0.3304 -0.1954 -0.1683
 2628W        W18522   7.037   7.136  10.770 -0.1673  0.1987  0.0511
 2629W        W18523   4.711   3.000  14.921  0.2748 -0.2560  0.3823
 2630W        W18524   4.964  19.015   3.550  0.0220 -0.0712 -0.3351
 2631W        W18525  13.977  11.819  10.621 -0.1239  0.0593 -0.1806
 2632W        W18526  17.840  12.050   1.573  0.0967  0.1528  0.0370
 2633W        W18527   2.269   4.325  14.973 -0.0224  0.0236 -0.1857
 2634W        W18528  12.367   2.125   4.265 -0.0098  0.0184  0.1661
 2635W        W18529  14.311   0.729   3.571  0.0197 -0.0705 -0.0613
 2636W        W18530   2.726   7.276  14.440 -0.1355  0.0099 -0.0093
 2637W        W18531   2.488   5.824  14.638  0.0676  0.0815 -0.1577
 2638W        W18532   7.075   9.414   0.983 -0.1144 -0.0731 -0.0493
 2639W        W18533   4.345  11.015   5.084 -0.0833 -0.1332 -0.0187
 2640W        W18534  12.853  17.065   0.177 -0.1253 -0.0865 -0.3796
 2641W        W18535   1.357   0.295   4.733  0.0359 -0.0906  0.0627
 2642W        W18536  12.670   3.592  12.080 -0.1174  0.3934  0.0711
 2643W        W18537  18.546   0.784  14.530 -0.1259 -0.0519 -0.1000
 2644W        W18538  13.720   6.655  10.886  0.1933  0.0002  0.2310
 2645W        W18539  16.264   0.373  11.390  0.3652  0.2904 -0.2071
 2646W        W18540   5.180  12.728   1.829  0.0185  0.0198  0.1517
 2647W        W18541   6.019  11.229   1.474 -0.2924  0.0403 -0.0552
 2648W        W18542   8.933   8.167  13.915 -0.4011 -0.1198 -0.0229
 2649W        W18543  10.322   1.177  13.336 -0.1851 -0.0098  0.1684
 2650W        W18544   8.859   4.071   2.521  0.0669 -0.1099 -0.1574
 2651W        W18545   5.564   3.641  11.408 -0.0501  0.0573  0.0732
 2652W        W18546  17.122  10.345   2.635 -0.0973  0.1038  0.0672
 2653W        W18547   3.518  12.252  12.902  0.2809  0.1201  0.1168
 2654W        W18548  12.404   4.043  14.575  0.1058 -0.0114 -0.3687
 2655W        W18549   0.626   8.395   1.214 -0.0271  0.0485 -0.1891
 2656W        W18550  11.307  11.808  10.170 -0.1286 -0.0775  0.0497
 2657W        W18551  15.784   5.362   1.067  0.0224 -0.3543 -0.0483
 2658W        W18552   7.208   2.102   3.181  0.1024 -0.1013  0.0041
 2659W        W18553  10.477  17.212  14.419 -0.1541 -0.2411 -0.0591
 2660W        W18554  14.730  16.509  10.290  0.2263  0.0957  0.1618
 2661W        W18555   8.146   7.259  14.665 -0.0418 -0.1040 -0.1082
 2662W        W18556  18.977   0.825   4.214  0.3682  0.1664  0.3264
 2663W        W18557   6.104   1.510   3.838 -0.0868  0.3724 -0.1940
 2664W        W18558   5.026   4.021  10.939  0.1729 -0.0300 -0.1467
 2665W        W18559  12.879   3.800  14.230 -0.1619 -0.0861 -0.1823
 2666W        W18560   2.359  16.256   9.845  0.0903 -0.0587  0.0134
 2667W        W18561  13.852  13.339   2.321  0.2951 -0.0357 -0.2404
 2668W        W18562  10.761  10.230  13.224 -0.1461  0.0016 -0.1449
 2669W        W18563   2.089  16.745  10.502  0.3030  0.0333  0.0269
 2670W        W18564   1.627  15.253   3.879  0.0954  0.2580 -0.3240
 2671W        W18565   7.903   9.713   4.434  0.1685 -0.4004  0.1881
 2672W        W18566   3.776   0.844  11.548 -0.2024 -0.2619 -0.0162
 2673W        W18567   4.961  17.048   4.881 -0.2933 -0.2882 -0.3408
 2674W        W18568   0.822  17.272  13.830 -0.0653  0.2683 -0.3733
 2675W        W18569  17.542   3.632   1.762  0.2500  0.0995 -0.2126
 2676W        W18570   7.189   7.275   3.423  0.1683 -0.2635  0.2029
 2677W        W18571  15.994   9.621   2.613 -0.1032  0.1520  0.1902
 2678W        W18572   5.217  12.466   0.585 -0.2914  0.1852  0.0691
 2679W        W18573   5.316  12.672   4.234  0.3263 -0.1675  0.2149
 2680W        W18574  10.752  13.149  13.875  0.2033  0.3841  0.0577
 2681W        W18575   8.567   4.570   4.960 -0.1012  0.3099 -0.1239
 2682W        W18576   2.495  15.073   0.842 -0.0392  0.1074 -0.1317
 2683W        W18577   7.125   9.138  11.007 -0.1265  0.0743  0.2004
 2684W        W18578  16.253  17.698   0.114  0.0067  0.1906  0.1307
 2685W        W18579   2.910   8.861   1.152 -0.1729 -0.0166  0.2223
 2686W        W18580   0.638  16.947   4.032 -0.0153  0.0087  0.1926
 2687W        W18581  14.876   2.517   5.425  0.4027  0.0528  0.1567
 2688W        W18582   8.890   4.059  14.013 -0.1276  0.3977 -0.0178
 2689W        W18583  18.554   3.731  12.265 -0.0940  0.1410 -0.0705
 2690W        W18584   9.829   2.102   4.616 -0.0600  0.1433  0.0509
 2691W        W18585  15.625  11.970   1.429 -0.3131  0.1065  0.3234
 2692W        W18586   7.906  14.034  10.360 -0.3485 -0.2087  0.0578
 2693W        W18587  13.974   9.439   4.157  0.2771  0.1636  0.1866
 2694W        W18588   0.432   1.118   3.640 -0.0589  0.1501  0.1257
 2695W        W18589  15.908  10.227  11.676  0.2649  0.3585 -0.1102
 2696W        W18590  19.081   6.801   5.880 -0.1102  0.3329  0.3607
 2697W        W18591   3.599  13.432   9.625  0.3202 -0.1327 -0.0777
 2698W        W18592  19.066   8.342  11.113  0.0704 -0.0718  0.0259
 2699W        W18593   1.864   7.980  11.481  0.1239  0.0262  0.2331
 2700W        W18594   8.910  17.623  11.199 -0.0196  0.0992 -0.0787
 2701W        W18595  16.453  13.939  10.488  0.1553 -0.0471  0.0731
 2702W        W18596  12.888   3.279  12.997  0.1035  0.0670 -0.2154
 2703W        W18597   2.092   0.658  13.644 -0.1338 -0.0232  0.2125
 2704W        W18598   3.284  14.437  14.123 -0.1798 -0.0048  0.2570
 2705W        W18599   6.261   9.346   3.909  0.0635 -0.0577 -0.4384
 2706W        W18600  13.051   6.889  11.864 -0.0322 -0.1758 -0.1454
 2707W        W18601  15.196   6.880  10.405  0.3657 -0.0795 -0.3095
 2708W        W18602   6.290   1.190  10.287 -0.1941 -0.0916  0.0065
 2709W        W18603  11.396  14.193   0.151 -0.0895  0.1635  0.0885
 2710W        W18604  16.640  11.140   3.337  0.1494 -0.1345 -0.2319
 2711W        W18605   6.144  17.178  12.234  0.1873 -0.1221 -0.0858
 2712W        W18606  15.406   2.992  14.452 -0.2501 -0.2736 -0.0842
 2713W        W18607  15.226  12.034  11.007  0.1614 -0.0233 -0.0402
 2714W        W18608   7.278  15.356   0.103 -0.0239 -0.2540  0.0396
 2715W        W18609   7.674   0.950   2.277 -0.2157 -0.2936 -0.0702
 2716W        W18610   7.459   0.517   2.493  0.0024 -0.2643  0.1908
 2717W        W18611   9.053  10.329   4.151  0.2244  0.1169  0.1632
 2718W        W18612   0.509   9.021  11.825  0.0329 -0.0594  0.6116
 2719W        W18613  17.704  16.573  14.575  0.1701  0.1298  0.0976
 2720W        W18614  10.680  13.112  13.343  0.2148  0.1373  0.1645
 2721W        W18615   0.133  15.674  10.140 -0.0522  0.0472  0.1060
 2722W        W18616  18.916   3.388   4.010  0.1832  0.6338 -0.2575
 2723W        W18617   0.709  17.549   0.682 -0.0827 -0.3462 -0.5496
 2724W        W18618  10.788  10.293   2.947 -0.2777  0.1058  0.0654
 2725W        W18619  14.794  14.905   2.951 -0.0094 -0.1198 -0.2129
 2726W        W18620   0.988   6.170  13.130  0.0689 -0.0095  0.1900
 2727W        W18621   8.223   9.093  14.490  0.1621  0.0429 -0.1909
 2728W        W18622   7.257  11.866   0.603 -0.0738  0.0122 -0.0425
 2729W        W18623   2.412  12.944   3.730 -0.1886 -0.3728 -0.0930
 2730W        W18624   8.012   2.485   1.952  0.0587  0.2319  0.0430
 2731W        W18625   6.562  17.157  11.029  0.1044 -0.0120 -0.1039
 2732W        W18626   7.732  10.696   0.531 -0.1644 -0.3910  0.0226
 2733W        W18627   0.645   6.560  12.948 -0.4645 -0.1576 -0.1057
 2734W        W18628   5.359  16.351   0.421 -0.0447 -0.0677  0.0135
 2735W        W18629   5.531   4.821  12.301  0.0429 -0.1023  0.0944
 2736W        W18630   5.753  14.732  13.596  0.0935 -0.1691  0.0091
 2737W        W18631  13.781  18.388   0.245 -0.1611 -0.0766 -0.3170
 2738W        W18632  17.618   0.518  11.774 -0.0752  0.3583  0.1175
 2739W        W18633   2.916  13.959   0.211  0.0212 -0.1447  0.3102
 2740W        W18634  12.379  10.423  11.136 -0.2775  0.1356 -0.3075
 2741W        W18635   2.475  17.617  11.521 -0.0763  0.1340  0.1374
 2742W        W18636   7.379  12.136   4.486  0.2461  0.0344 -0.1244
 2743W        W18637  15.833   3.226   5.140 -0.0640  0.3214  0.0330
 2744W        W18638   3.008   6.256  14.381  0.1101 -0.0386 -0.1513
 2745W        W18639   4.739  11.760   1.564  0.0334  0.2687  0.3036
 2746W        W18640   7.095   8.676  14.431 -0.0234 -0.2618  0.2390
 2747W        W18641  10.663  16.353   0.901 -0.1813  0.0540 -0.0955
 2748W        W18642  17.216  14.170   3.418  0.4539  0.2082  0.0832
 2749W        W18643   7.765   6.724  12.967  0.0148  0.2623 -0.1252
 2750W        W18644   6.901  11.583   2.585 -0.1381 -0.1131 -0.2086
 2751W        W18645  10.920   0.407  11.605 -0.0766  0.1503  0.3338
 2752W        W18646   2.145   9.932  11.467  0.2579 -0.2133 -0.0005
 2753W        W18647   1.687  16.889  11.384 -0.2240  0.1845  0.2422
 2754W        W18648   4.355  11.434   1.723  0.0612 -0.0513  0.5444
 2755W        W18649  11.951  16.536   2.745 -0.3195  0.1673 -0.0294
 2756W        W18650   4.604   9.724   2.621 -0.4748  0.2385 -0.4212
 2757W        W18651   4.895  14.485   1.936 -0.0103 -0.2041  0.2218
 2758W        W18652  17.374  15.501  12.850 -0.1509  0.1557 -0.0041
 2759W        W18653  17.062  15.746   0.466 -0.1216  0.0451  0.2702
 2760W        W18654  15.018   6.124   6.345  0.0002 -0.2854  0.6097
 2761W        W18655   4.126   7.856  11.005 -0.0112 -0.2252 -0.1493
 2762W        W18656   4.707   8.293   0.403 -0.0929  0.0300 -0.1647
 2763W        W18657  12.627   9.206   1.066  0.0914  0.0032 -0.2097
 2764W        W18658  17.167  15.124  11.977  0.0683  0.1618  0.3580
 2765W        W18659  17.837  10.718  12.292  0.0045  0.2035  0.0644
 2766W        W18660   0.482  15.142  11.209  0.1248 -0.4275  0.0731
 2767W        W18661   5.372   8.892   2.549 -0.0859 -0.0634 -0.3385
 2768W        W18662  11.804  12.453  11.248 -0.3245 -0.0706  0.0491
 2769W        W18663  18.535  11.050  10.722  0.0175 -0.0986 -0.0438
 2770W        W18664   7.271  14.944   4.805  0.4324  0.3332 -0.3153
 2771W        W18665   2.720   7.247   3.846  0.2209  0.4310 -0.0393
 2772W        W18666   7.256  15.201   2.503  0.0631 -0.1484 -0.1893
 2773W        W18667   0.946  13.422   0.513  0.0502  0.3758  0.1975
 2774W        W18668   5.438  17.003  12.694 -0.2928  0.1556  0.0734
 2775W        W18669  10.313   5.969  12.002 -0.0588 -0.1252 -0.1772
 2776W        W18670   7.704  17.233  11.920 -0.4329 -0.0571 -0.0975
 2777W        W18671   6.070  16.978   2.318  0.2707  0.2223  0.0337
 2778W        W18672   6.611   4.493   1.735  0.1817  0.2690 -0.1671
 2779W        W18673   4.615   3.915   5.059  0.1193  0.2794  0.1283
 2780W        W18674   0.335   3.419   0.555  0.2251  0.2257  0.1688
 2781W        W18675   3.081   7.548   1.123 -0.0566  0.1909  0.0623
 2782W        W18676  15.652  12.606   3.716  0.2443 -0.1622 -0.0841
 2783W        W18677  17.392  12.271  10.827  0.1726  0.1280  0.0131
 2784W        W18678   8.689  17.911   3.858 -0.0907  0.2114 -0.0652
 2785W        W18679  14.567  16.485  14.961  0.0928 -0.0549 -0.2270
 2786W        W18680  13.176   0.183   4.864 -0.0704 -0.1712  0.1716
 2787W        W18681  14.284   8.852   5.793 -0.2479 -0.5301 -0.0339
 2788W        W18682   5.467  10.863   5.678  0.0696  0.2760  0.2389
 2789W        W18683  10.622  13.377  11.088  0.0005  0.0266 -0.1890
 2790W        W18684  10.083   1.275  13.733 -0.1265 -0.0173 -0.2877
 2791W        W18685   8.816  10.303  12.910 -0.0762 -0.0968  0.2811
 2792W        W18686   5.269  10.328  13.230  0.0383 -0.0695  0.1354
 2793W        W18687   0.425   1.881   1.794 -0.3497  0.0513 -0.4746
 2794W        W18688  17.596  18.725   3.421  0.1079  0.1153 -0.2202
 2795W        W18689  16.262  16.120   0.972 -0.3174 -0.0901  0.0993
 2796W        W18690   4.908  18.658  12.105  0.0402 -0.1560  0.0683
 2797W        W18691  13.342   7.616  12.162 -0.2415 -0.1655  0.3271
 2798W        W18692  13.102  17.365   1.772  0.2436  0.2228  0.4215
 2799W        W18693  17.380  19.107  13.059  0.1037 -0.0462  0.0675
 2800W        W18694  12.065   7.289  15.068  0.2203  0.0723  0.1391
 2801W        W18695  17.673   7.340   4.012  0.1176 -0.1067 -0.2626
 2802W        W18696  16.959   0.654   2.845  0.2482  0.0751 -0.4608
 2803W        W18697  10.855   9.565   5.166  0.0719  0.0561 -0.0440
 2804W        W18698  10.264   9.866   5.044 -0.0117 -0.1857  0.2413
 2805W        W18699  16.919  13.479  11.079  0.0586 -0.1598  0.1385
 2806W        W18700   4.112   6.810  12.477  0.1622  0.1376  0.4409
 2807W        W18701   9.270   2.964  12.405 -0.0463 -0.0507  0.2201
 2808W        W18702   1.833  14.124  13.672 -0.2101 -0.0077  0.1749
 2809W        W18703  10.786  15.088  11.247  0.0656 -0.0980 -0.0123
 2810W        W18704  17.804  16.146  14.255 -0.3606 -0.4099 -0.0483
 2811W        W18705  12.428   4.161  11.000 -0.1746  0.2894  0.5909
 2812W        W18706   7.929   7.481  11.068  0.1507 -0.4116 -0.0585
 2813W        W18707   5.313  11.771   3.044  0.5480  0.3077 -0.2325
 2814W        W18708   2.938  14.804  12.209  0.0521 -0.1245 -0.0358
 2815W        W18709  17.903   6.951  11.322 -0.1933 -0.0867 -0.3109
 2816W        W18710  10.441   4.135   1.405 -0.0858 -0.0172  0.0729
 2817W        W18711   7.481  17.336  13.282 -0.3038  0.0470 -0.0162
 2818W        W18712   6.082   3.329  11.746  0.0716  0.2118  0.1553
 2819W        W18713  10.987  15.335  10.881 -0.1580  0.2225  0.1328
 2820W        W18714  18.920  10.920   3.974  0.0425  0.2206  0.1693
 2821W        W18715  11.189  15.682   1.611 -0.0917 -0.1847  0.0640
 2822W        W18716   5.558  17.576  14.440 -0.4083  0.2368  0.1564
 2823W        W18717  18.069  15.218   2.221 -0.0063 -0.0370 -0.0786
 2824W        W18718  15.020  18.511  14.196 -0.2521  0.2187 -0.1634
 2825W        W18719  17.937   9.784  11.125  0.0857  0.1431  0.3548
 2826W        W18720   4.818  18.794  14.277 -0.1679 -0.2142 -0.1513
 2827W        W18721   5.872  14.975   1.538  0.0120  0.0607  0.1339
 2828W        W18722   1.602   0.050  11.361 -0.0071  0.0368  0.0762
 2829W        W18723  17.028  15.286   4.365  0.1229  0.4779  0.1028
 2830W        W18724  16.861  14.997   0.404  0.0521 -0.1015  0.1508
 2831W        W18725   8.415   1.898  10.370 -0.3554  0.1614 -0.0521
 2832W        W18726  14.715  13.126  11.045  0.0572  0.2331 -0.2528
 2833W        W18727   6.687  15.004  13.494  0.4723  0.1972 -0.2097
 2834W        W18728   4.513  10.605  14.359  0.0426 -0.1718 -0.3472
 2835W        W18729   7.967  10.809  14.154  0.2615  0.2272 -0.0571
 2836W        W18730  15.991   5.750  14.494  0.1679 -0.1668  0.2645
 2837W        W18731   1.154   9.730   2.957 -0.2509 -0.0641 -0.0908
 2838W        W18732   9.831   6.294   4.469  0.0642 -0.0645  0.0289
 2839W        W18733   9.775   3.957   0.446  0.4997 -0.2874 -0.1716
 2840W        W18734  12.487   3.487  13.239  0.2215  0.2441 -0.1268
 2841W        W18735   6.831   5.720  12.919 -0.2651  0.1573 -0.1807
 2842W        W18736  18.447  11.094   3.149 -0.3983 -0.2619 -0.1133
 2843W        W18737   4.538  11.890   1.068 -0.1880 -0.2415 -0.0933
 2844W        W18738  18.319  12.685   4.076 -0.0832  0.1989 -0.3919
 2845W        W18739  15.425   0.252   0.506  0.1387 -0.0974 -0.3985
 2846W        W18740   7.154  10.136   4.114  0.0676  0.5350 -0.3036
 2847W        W18741   9.208  16.557   4.415 -0.1997  0.2740  0.0319
 2848W        W18742   8.434   3.860   0.879 -0.0357  0.0320  0.0022
 2849W        W18743   3.689   2.587   1.367 -0.2278  0.0442 -0.0671
 2850W        W18744  11.823  12.384  11.709 -0.1728  0.3493 -0.0569
 2851W        W18745  16.509   8.383  14.089 -0.2118 -0.1781 -0.1512
 2852W        W18746  11.820   7.400  10.263  0.0542 -0.1551  0.0375
 2853W        W18747  18.052   0.201   3.079 -0.0321  0.2704 -0.0380
 2854W        W18748  11.055  11.625  14.256 -0.5297  0.0688 -0.0454
 2855W        W18749  13.996  13.405  12.114  0.0109 -0.0545 -0.1535
 2856W        W18750   1.784  16.632  11.889 -0.2726 -0.1241 -0.0344
 2857W        W18751  13.711  16.307  11.626 -0.0324  0.0642  0.0484
 2858W        W18752  14.021  18.707   5.518 -0.0713  0.3320 -0.4165
 2859W        W18753   5.813   7.824   1.656  0.0848  0.1245 -0.4676
 2860W        W18754   1.227   5.259   9.675 -0.0397 -0.2301 -0.0905
 2861W        W18755   6.913   0.849   3.906  0.1435  0.1191  0.2251
 2862W        W18756   3.543   2.477  11.276  0.2287 -0.3039 -0.1300
 2863W        W18757  14.475  13.027   0.069  0.0646 -0.1799  0.3336
 2864W        W18758  16.924  11.667   0.515  0.2804 -0.1438 -0.2141
 2865W        W18759   0.751  18.872  13.964 -0.0988  0.0409 -0.0557
 2866W        W18760   3.492  15.171  12.478 -0.0475 -0.2206 -0.4608
 2867W        W18761  12.794  10.054  14.481  0.1382 -0.1611 -0.0698
 2868W        W18762  11.648   5.066   4.519  0.1118  0.2444  0.0405
 2869W        W18763   2.410   5.991  12.837 -0.0761  0.0556 -0.1059
 2870W        W18764   6.013  16.192   0.197 -0.3901  0.0975 -0.0035
 2871W        W18765  13.396   0.097   4.209  0.0120 -0.1141 -0.3778
 2872W        W18766  15.048  13.848  14.012 -0.2142 -0.0948  0.0524
 2873W        W18767   5.769  13.268   0.742 -0.4662  0.2295  0.1047
 2874W        W18768  15.336   0.746  12.086  0.1383 -0.3860 -0.3482
 2875W        W18769  17.242   6.378   0.331 -0.2014  0.0764  0.1146
 2876W        W18770   1.553  15.468  14.388  0.0986  0.2666 -0.2351
 2877W        W18771   7.298   2.597   2.268  0.0544  0.1439  0.1021
 2878W        W18772  10.917   5.712  15.077 -0.0624 -0.0732  0.5029
 2879W        W18773   6.755   4.149   3.612 -0.0173 -0.2548  0.0670
 2880W        W18774  12.071   0.802  13.477 -0.1997  0.0535 -0.1588
 2881W        W18775  16.808  15.380   2.058 -0.2122 -0.0858  0.1602
 2882W        W18776   6.427   4.610   2.887  0.0063  0.2568 -0.3102
 2883W        W18777   4.433  16.538   2.939  0.0569  0.1040  0.0113
 2884W        W18778   0.563  13.123  12.190  0.1992  0.0436 -0.1849
 2885W        W18779   6.376   8.772   3.437  0.4194 -0.0344  0.0759
 2886W        W18780   3.683   3.535   5.103  0.1142 -0.4817  0.2787
 2887W        W18781   5.157  11.294   0.396 -0.0373  0.0754 -0.0519
 2888W        W18782  17.061   2.668   5.430 -0.0428  0.4000 -0.2548
 2889W        W18783  10.957  14.648   4.023 -0.2136  0.1121 -0.1185
 2890W        W18784  14.970   4.483   0.426  0.0110 -0.0530  0.0541
 2891W        W18785   0.576  14.312   3.044 -0.1955 -0.4150 -0.1069
 2892W        W18786  15.488   4.289   1.209  0.2352  0.0673  0.1026
 2893W        W18787   1.784   6.674   2.167  0.0965 -0.0496 -0.1693
 2894W        W18788  18.683   3.316   0.783  0.0048  0.2254 -0.0005
 2895W        W18789   2.174  17.003  12.048 -0.2521 -0.3099 -0.1158
 2896W        W18790  15.064  18.144   3.462  0.0112 -0.1666 -0.0147
 2897W        W18791  12.791   1.462  11.608 -0.1702  0.1331 -0.0489
 2898W        W18792  14.937  15.604   3.271 -0.0378  0.3824  0.2364
 2899W        W18793  17.483  10.700  13.864 -0.0381  0.0334  0.1339
 2900W        W18794   6.570   8.085   2.808 -0.0443  0.0721  0.2229
 2901W        W18795  16.049  12.284  11.220 -0.1596  0.3039 -0.3083
 2902W        W18796   8.251   4.184   1.725 -0.0357  0.0212  0.3130
 2903W        W18797  10.466   2.109  13.515  0.1081  0.1123 -0.1653
 2904W        W18798  19.106  16.761   1.147  0.2881 -0.2093 -0.1095
 2905W        W18799  18.062  13.807   3.343 -0.2464 -0.1521 -0.1332
 2906W        W18800   3.639   3.427  13.162  0.0461  0.4696  0.4725
 2907W        W18801   8.302  12.418   1.711 -0.1222 -0.2444 -0.0644
 2908W        W18802  17.843  12.342   2.676 -0.3877  0.2556 -0.1676
 2909W        W18803  10.028  16.610  12.809 -0.0343 -0.1588 -0.0869
 2910W        W18804   1.243   3.518   4.841  0.0921 -0.2963 -0.1293
 2911W        W18805   1.666  11.714  11.602  0.1186  0.0795 -0.1307
 2912W        W18806  15.551   4.312  11.775 -0.1465 -0.0057 -0.1668
 2913W        W18807  13.817   7.680  11.521  0.3280  0.0499  0.0235
 2914W        W18808  10.532  12.924  12.598 -0.4287  0.0771  0.4264
 2915W        W18809  10.292   9.747   1.714 -0.2454  0.2752 -0.0929
 2916W        W18810  11.838   6.456   2.050 -0.1773 -0.2408 -0.5067
 2917W        W18811  11.606  14.132  12.115  0.4554 -0.3142  0.1847
 2918W        W18812  18.294   1.054   3.397  0.1234  0.0053  0.2288
 2919W        W18813   2.927  17.342   1.942  0.0682 -0.0031  0.0101
 2920W        W18814   2.593   4.357   4.768  0.0581 -0.3671  0.1834
 2921W        W18815  16.624  11.139   2.762 -0.0090 -0.2323 -0.1856
 2922W        W18816   9.955   0.134   1.834  0.3547  0.2747  0.4158
 2923W        W18817  14.839   4.253  14.663 -0.0998  0.2191 -0.0034
 2924W        W18818   8.879   2.692  12.832 -0.3532  0.0238  0.2780
 2925W        W18819   5.431  18.227  10.823  0.0385 -0.0557  0.1446
 2926W        W18820  17.194  18.843   9.946 -0.2038  0.1060  0.1844
 2927W        W18821  17.490  11.009  11.788 -0.0150  0.2137 -0.0054
 2928W        W18822  19.173   9.604  13.420 -0.3402  0.0830 -0.0791
 2929W        W18823  12.378  17.330   1.661  0.1128  0.0184 -0.1146
 2930W        W18824  12.825   0.497   0.942 -0.1760 -0.3587 -0.1018
 2931W        W18825   1.967  17.163  12.938 -0.1879  0.1161  0.2543
 2932W        W18826  12.136  12.313   4.316 -0.2287 -0.1628 -0.0616
 2933W        W18827  14.391   4.292  11.671 -0.0085  0.1710 -0.1321
 2934W        W18828   7.515  12.002  13.376 -0.1578  0.0298  0.1259
 2935W        W18829  17.616   9.091   0.498  0.0347 -0.2730  0.0021
 2936W        W18830   7.399   2.531  12.757 -0.2375 -0.0209  0.0180
 2937W        W18831  12.326   4.644   2.489  0.0627 -0.0045  0.1936
 2938W        W18832   1.240  10.747  12.793 -0.1258  0.0524 -0.0354
 2939W        W18833   4.060   2.843  13.933 -0.2334  0.0008 -0.2199
 2940W        W18834   3.045  15.548  11.069 -0.2858  0.0168 -0.3372
 2941W        W18835  13.840  13.416   3.347 -0.1662  0.1000  0.1083
 2942W        W18836   0.426   0.270  15.114 -0.1445 -0.0018 -0.2686
 2943W        W18837   8.990   7.167  13.535 -0.3058 -0.0164  0.0252
 2944W        W18838  10.966   2.485   1.724  0.1729 -0.0933  0.1807
 2945W        W18839  18.120   0.115   1.701 -0.0985 -0.1510  0.2334
 2946W        W18840   0.680  11.940   4.065 -0.0398  0.0893  0.3843
 2947W        W18841   7.620   4.868   0.626 -0.3786 -0.0073 -0.4609
 2948W        W18842  11.852   8.971   5.866 -0.2556  0.0191 -0.0320
 2949W        W18843   6.272   7.672   9.952  0.0175  0.0602 -0.1513
 2950W        W18844   7.607   7.221  13.738 -0.2676  0.0561  0.0899
 2951W        W18845   6.209   4.958   3.767  0.0251 -0.0471 -0.2608
 2952W        W18846  16.673   3.390   0.905  0.1013 -0.2082 -0.0350
 2953W        W18847  14.603  10.290  12.549  0.2000 -0.3615 -0.2126
 2954W        W18848   4.217   5.516   3.602 -0.3942 -0.0449 -0.1744
 2955W        W18849   8.608   1.172  11.395  0.1790 -0.3016 -0.2046
 2956W        W18850   2.327   0.072  11.902 -0.1486 -0.1036 -0.0910
 2957W        W18851   2.551   2.331   1.224 -0.0835 -0.0136 -0.0509
 2958W        W18852   7.930   9.147  12.719  0.2265 -0.2152 -0.0298
 2959W        W18853  17.919   9.067  12.998 -0.1168 -0.1579 -0.0705
 2960W        W18854  12.609  18.970  11.512 -0.0564 -0.0850 -0.0047
 2961W        W18855   5.814   4.530   0.375 -0.0403  0.1227 -0.3219
 2962W        W18856  18.635   6.177  11.292 -0.1825 -0.0059 -0.2215
 2963W        W18857   3.078  12.784   4.918  0.0431 -0.2890  0.1945
 2964W        W18858  15.343   8.806  14.497  0.0536 -0.0392  0.3620
 2965W        W18859   0.169   3.992   0.608  0.0010  0.0065 -0.1640
 2966W        W18860   1.119  12.294   0.916 -0.0045  0.1012  0.1652
 2967W        W18861   6.707   1.962   1.876  0.0938  0.1987 -0.1011
 2968W        W18862   9.763  18.999   5.624 -0.5276  0.2983 -0.0985
 2969W        W18863  18.889   7.569  12.953  0.0804  0.0234 -0.1220
 2970W        W18864  18.457  18.665   1.101 -0.1771 -0.0895 -0.0374
 2971W        W18865   4.882   5.420   0.527 -0.4192  0.1371 -0.0371
 2972W        W18866   9.057   1.054  10.362  0.3115 -0.0991  0.2192
 2973W        W18867   3.265  10.310   0.936 -0.1710 -0.0789 -0.2033
 2974W        W18868   5.962  10.732   4.216 -0.1780 -0.0997  0.1063
 2975W        W18869   9.555   9.091  10.615 -0.0636 -0.1326 -0.0242
 2976W        W18870  13.183   3.656  13.025 -0.0659  0.2368  0.4206
 2977W        W18871  14.307  16.399  13.167  0.1158 -0.3178  0.0729
 2978W        W18872   9.434  11.679   4.109 -0.1395  0.1019 -0.0369
 2979W        W18873  14.298   9.533  13.203  0.0727 -0.4352  0.2831
 2980W        W18874  15.520   8.780   0.636  0.0808 -0.3294  0.1868
 2981W        W18875  15.119   8.834   1.315 -0.3404  0.0961  0.3284
 2982W        W18876   7.762   1.038   2.804  0.1309  0.0653  0.1756
 2983W        W18877   7.749  16.681   1.157  0.1921 -0.2900 -0.2203
 2984W        W18878  17.716  14.998   5.708  0.2522 -0.0669  0.0363
 2985W        W18879  16.864  19.032   3.018  0.0629 -0.1220  0.3190
 2986W        W18880   6.999  11.420  13.694 -0.0293  0.0926 -0.2193
 2987W        W18881  16.577  14.790   3.576  0.1823  0.1061 -0.4558
 2988W        W18882  10.851  15.363   1.963  0.1720 -0.0556  0.3595
 2989W        W18883  15.116   8.300  10.232 -0.1028 -0.2305 -0.4522
 2990W        W18884   5.394   5.571   1.508  0.3937  0.3863  0.0920
 2991W        W18885  17.387   6.978   2.981 -0.3626 -0.2281  0.1801
 2992W        W18886  13.393   4.396  14.136 -0.1138 -0.2624 -0.0164
 2993W        W18887  16.667   5.845  13.034  0.1305  0.1294  0.0194
 2994W        W18888   4.185  15.267   4.460  0.1541  0.4348  0.0987
 2995W        W18889  13.835  15.601  10.235  0.1048 -0.0228  0.0831
 2996W        W18890  14.078   5.209   5.234  0.0288 -0.1230 -0.0295
 2997W        W18891  14.405   6.389   1.365 -0.1795  0.0093  0.0640
 2998W        W18892   9.418  12.572  10.869  0.0260  0.2023 -0.1464
 2999W        W18893   8.207   0.601  11.114 -0.0285 -0.0092 -0.0123
 3000W        W18894   6.012  17.283  12.715 -0.0532  0.1027 -0.2850
 3001W        W18895   1.568  13.673  13.530 -0.1083  0.1485 -0.1583
 3002W        W18896   9.024  11.319   4.237  0.0183 -0.2273 -0.1777
 3003W        W18897   6.333   1.339   2.741 -0.0121  0.2136  0.3757
 3004W        W18898   2.594   5.518   4.069  0.0289  0.0973 -0.2095
 3005W        W18899  11.360   8.693   1.671  0.1301 -0.1098  0.1162
 3006W        W18900   9.047  12.458  12.292  0.0060  0.0796  0.0563
 3007W        W18901  13.798   7.133  11.366  0.0628 -0.0681  0.1657
 3008W        W18902   9.999   3.738  14.645 -0.2554 -0.2998  0.0335
 3009W        W18903   6.059  15.904   1.618 -0.1649  0.1436 -0.0528
 3010W        W18904   7.189  19.115   3.870 -0.1369 -0.1149  0.3545
 3011W        W18905   2.678   7.369   0.071  0.0456  0.0823 -0.1610
 3012W        W18906  11.654   9.224   1.236 -0.0199  0.5323  0.0215
 3013W        W18907   5.119   1.106  12.369  0.3008  0.0637  0.1620
 3014W        W18908  14.626   3.558  13.347  0.2386 -0.2084 -0.2182
 3015W        W18909  18.751  12.638  11.252  0.0004  0.1337 -0.0810
 3016W        W18910  14.834  12.424   1.297  0.1179  0.5401  0.3955
 3017W        W18911  10.516  11.218   1.391  0.3580 -0.2579 -0.0070
 3018W        W18912   3.688   4.656  11.084 -0.0468 -0.4455 -0.1230
 3019W        W18913   0.216  10.977   4.145 -0.0263 -0.1040 -0.1378
 3020W        W18914  12.512   1.989  14.164  0.3118  0.0338  0.3398
 3021W        W18915  12.866  10.001   4.993  0.1840  0.0850  0.0235
 3022W        W18916   9.235   2.127   1.033 -0.2204  0.0843  0.3051
 3023W        W18917   5.513  12.553   5.572  0.1858  0.0994  0.0371
 3024W        W18918   3.674  12.853  12.036  0.1104 -0.0192 -0.0825
 3025W        W18919   9.047  12.704   2.460  0.1448  0.3698 -0.1649
 3026W        W18920  13.976  15.500  14.921 -0.1194  0.2182 -0.0624
 3027W        W18921   9.837  11.192  12.999 -0.1397 -0.0280  0.2574
 3028W        W18922  16.458  13.411  10.903  0.2500 -0.1955  0.0480
 3029W        W18923   2.636   1.424   0.739  0.1973  0.0620 -0.2101
 3030W        W18924  19.049   8.922  11.022 -0.1295  0.1752  0.6116
 3031W        W18925   2.113   8.653  14.954 -0.2011  0.2187  0.0520
 3032W        W18926   0.444  14.383   4.655 -0.0368 -0.0275  0.0161
 3033W        W18927   4.626  17.136   0.326 -0.1468  0.1111  0.1378
 3034W        W18928  19.040  19.047   1.563 -0.0007  0.0798  0.2820
 3035W        W18929  17.736   6.925   4.667  0.0567  0.3378  0.0887
 3036W        W18930   1.274  15.248   0.949 -0.1061 -0.3556 -0.1182
 3037W        W18931  18.782   4.501  12.309  0.1724  0.1587  0.2086
 3038W        W18932   7.098   3.945   0.626 -0.2401  0.0599 -0.0161
 3039W        W18933   2.130   3.638  10.261  0.1387 -0.1595 -0.1521
 3040W        W18934  12.378  15.752  12.755 -0.4052 -0.1345  0.2144
 3041W        W18935  14.491  12.306   1.682  0.1803  0.1283 -0.1371
 3042W        W18936  17.692  12.151  12.311 -0.2846  0.3210 -0.1409
 3043W        W18937   2.843  13.187   3.652 -0.1557 -0.1696 -0.0374
 3044W        W18938  14.571   7.833  15.118 -0.0336 -0.0394 -0.1078
 3045W        W18939   6.640  17.570   1.940  0.1364 -0.0101 -0.1517
 3046W        W18940  16.117   8.257  13.249  0.2490 -0.0001 -0.0829
 3047W        W18941  16.260   4.517  13.126 -0.0572 -0.2059  0.1853
 3048W        W18942   3.844   6.098  14.639 -0.0835 -0.0425 -0.2231
 3049W        W18943  13.515  16.839  13.092 -0.1710 -0.0620  0.2132
 3050W        W18944   0.473   9.060  13.683  0.1948  0.0152 -0.3336
 3051W        W18945   0.096   0.906  11.280 -0.1485  0.2896  0.0645
 3052W        W18946   7.557   4.209  11.089 -0.2351 -0.0309  0.3140
 3053W        W18947  18.856   6.898  10.754 -0.1411 -0.1140  0.1230
 3054W        W18948  14.568   8.652  14.185 -0.3521  0.1883 -0.2669
 3055W        W18949   3.829  19.111  14.918  0.0551 -0.0208  0.1103
 3056W        W18950   6.558   4.055  10.652 -0.1110 -0.0496  0.3396
 3057W        W18951   0.093  12.681  11.378 -0.2018  0.3116 -0.0194
 3058W        W18952   3.748   7.624   5.073  0.0962  0.1392  0.1750
 3059W        W18953  11.657   0.486  13.254  0.1874  0.3886 -0.1117
 3060W        W18954   3.144  12.019   5.755 -0.0468  0.1801 -0.0922
 3061W        W18955   8.378   9.512   3.747  0.3388 -0.2916 -0.1002
 3062W        W18956   0.336  17.797   4.906  0.2021  0.1225  0.2745
 3063W        W18957  17.213   5.014  12.955 -0.0636  0.3238 -0.0844
 3064W        W18958   8.012  10.109  13.028  0.0663 -0.0754 -0.1584
 3065W        W18959  10.138  14.564  10.392 -0.0087  0.0381  0.2264
 3066W        W18960  14.367   1.124   3.245  0.2881  0.2472  0.2254
 3067W        W18961   2.946   4.479   1.028  0.1339  0.3830 -0.1158
 3068W        W18962   1.414  17.723   4.736  0.1835  0.1245  0.1162
 3069W        W18963   9.673  11.514   1.406 -0.1516  0.2475  0.0234
 3070W        W18964   7.653   8.385  11.147 -0.0154 -0.0338 -0.0112
 3071W        W18965  16.117   2.480   2.753 -0.0022  0.1133 -0.1167
 3072W        W18966   4.847  11.576   2.749 -0.0381  0.0729 -0.2010
 3073W        W18967   9.531   1.932   4.075  0.2314  0.0428 -0.3585
 3074W        W18968  18.301   7.870  13.535 -0.0203  0.2716  0.3073
 3075W        W18969   2.048   1.208  12.766 -0.1386 -0.3581  0.4797
 3076W        W18970  13.660  17.114  13.477 -0.5332  0.3161  0.1772
 3077W        W18971  17.290  12.867   1.857  0.1040  0.0234 -0.1034
 3078W        W18972  15.586  12.116  11.433 -0.1983  0.0414  0.0865
 3079W        W18973  18.079   4.176  13.557 -0.5692 -0.0644  0.1443
 3080W        W18974   4.404   2.469  10.123  0.0470  0.2921  0.0696
 3081W        W18975   4.207   8.094   2.266  0.1987 -0.1221 -0.0765
 3082W        W18976   7.329   0.968   0.294 -0.0040  0.4027 -0.1040
 3083W        W18977   6.569   6.070   2.760 -0.2586  0.2962 -0.0339
 3084W        W18978  15.162  15.707  13.798  0.3433  0.5184 -0.5533
 3085W        W18979   0.328   1.373   2.568 -0.3320  0.1467  0.2953
 3086W        W18980   3.267  16.738   1.259  0.1497  0.0309 -0.3819
 3087W        W18981  12.218   6.113   3.826 -0.1065 -0.2697 -0.0338
 3088W        W18982  13.926  11.553   4.061 -0.1870 -0.0220 -0.0573
 3089W        W18983   9.483   0.276  12.490 -0.2138  0.2158  0.2355
 3090W        W18984   5.283   4.036   2.832 -0.0249 -0.0364  0.0130
 3091W        W18985   6.956  14.475  11.677  0.1725  0.3092  0.0688
 3092W        W18986   7.762   0.525   9.721 -0.0689  0.0274  0.1834
 3093W        W18987   7.574  13.811   0.567  0.0186 -0.2232  0.0575
 3094W        W18988   9.181   4.361   5.201 -0.0585  0.4266 -0.3910
 3095W        W18989   5.941   2.996  10.665  0.2422  0.2820 -0.0477
 3096W        W18990   4.295   9.031   3.949  0.0709  0.5524  0.0055
 3097W        W18991   9.295  18.594   2.111  0.2218 -0.1637 -0.3591
 3098W        W18992   7.666   8.080   0.539  0.1199  0.2987  0.2169
 3099W        W18993   3.237   3.659  11.698  0.0708 -0.0341  0.0020
 3100W        W18994   8.116  14.011   1.202 -0.0481 -0.1747 -0.0787
 3101W        W18995   5.100   6.138  13.223 -0.1442  0.0647 -0.2892
 3102W        W18996   6.406  10.928   2.961 -0.2003  0.1538 -0.0916
 3103W        W18997   3.701  19.085  10.670  0.0887  0.0384  0.0546
 3104W        W18998   1.922   2.912  10.136 -0.2976 -0.0587 -0.1805
 3105W        W18999   4.493  12.980  12.998 -0.3274  0.0528  0.0739
 3106W        W19000  11.825  18.259   1.125  0.1373 -0.0609 -0.1088
 3107W        W19001  12.488  13.946   4.089 -0.2924  0.1133 -0.0326
 3108W        W19002  16.687   5.417  11.786 -0.1072  0.1122 -0.2545
 3109W        W19003  19.143  12.165  13.126  0.4422  0.3194 -0.0584
 3110W        W19004   5.000   3.240  14.197 -0.0806  0.2166 -0.0538
 3111W        W19005  15.340   7.369  10.676 -0.0383  0.0644 -0.0194
 3112W        W19006   6.455  18.668   3.510 -0.0590 -0.0570  0.1029
 3113W        W19007  11.228  13.113  13.270 -0.1008  0.0510  0.0896
 3114W        W19008   9.131   8.704   0.717  0.0703  0.0226  0.0486
 3115W        W19009   3.986  15.252  14.172 -0.0160  0.0173 -0.1656
 3116W        W19010   8.159  18.749   4.730 -0.0092  0.1251 -0.1442
 3117W        W19011   2.289   8.154   5.000  0.1504  0.3003  0.0267
 3118W        W19012   6.772   3.098   9.774 -0.0558 -0.1709  0.3927
 3119W        W19013  11.499  12.369  10.278  0.5286 -0.2914 -0.1026
 3120W        W19014  11.260   4.898  14.526  0.2406 -0.0117  0.1745
 3121W        W19015  17.562  12.303  10.402 -0.0928 -0.3483  0.0769
 3122W        W19016   7.900  15.352   1.713 -0.1241  0.3029 -0.0273
 3123W        W19017  14.617  17.444  10.630  0.1845 -0.2629  0.2694
 3124W        W19018  14.150   2.046  11.534 -0.2005 -0.0957 -0.2030
 3125W        W19019  11.381  14.355  11.262  0.0221 -0.0819 -0.1123
 3126W        W19020   6.489  10.280   9.472  0.0768  0.1991 -0.0425
 3127W        W19021  13.517   3.404  10.368  0.0194  0.0205 -0.3127
 3128W        W19022   6.327  13.354  13.929 -0.2618  0.3121  0.0103
 3129W        W19023  19.096   2.631   0.337  0.0492 -0.1694 -0.2411
 3130W        W19024   4.173  12.680  10.432  0.1223 -0.3073 -0.1189
 3131W        W19025  18.128   9.704   3.668  0.0044 -0.2875  0.1119
 3132W        W19026  14.891   3.872  14.243  0.1670  0.3010  0.1799
 3133W        W19027   8.496  15.290   3.735 -0.1619 -0.0455  0.1246
 3134W        W19028  12.156  16.159   9.972  0.3027  0.1037 -0.0059
 3135W        W19029  10.702   2.421   2.458 -0.0691 -0.1418  0.2196
 3136W        W19030  17.286  16.875  11.830  0.1720 -0.0201 -0.3546
 3137W        W19031   4.403  13.670   3.745  0.1150  0.6677 -0.1809
 3138W        W19032   5.743  14.986   1.071 -0.3723 -0.1456 -0.0149
 3139W        W19033   3.851   7.463   1.397 -0.1117  0.1200 -0.1735
 3140W        W19034   2.935   9.065   3.764 -0.3806  0.0978  0.1586
 3141W        W19035   1.431   7.698  11.501 -0.2417 -0.2890  0.1205
 3142W        W19036  18.136   8.851   1.690 -0.0354  0.0571 -0.0253
 3143W        W19037  10.676  16.243  12.734 -0.2457 -0.0087  0.0458
 3144W        W19038  10.964   0.068  14.955  0.2311 -0.2638 -0.4194
 3145W        W19039  12.328  11.766  12.326 -0.1761 -0.0167  0.5014
 3146W        W19040   4.262   6.625   2.638 -0.4285  0.1190 -0.4876
 3147W        W19041  15.537  11.606  13.744 -0.1806  0.2109  0.0747
 3148W        W19042  11.251   5.419   1.827 -0.2724 -0.3053 -0.0953
 3149W        W19043   6.193   9.152  14.772 -0.1080 -0.1944 -0.4346
 3150W        W19044   2.528  15.618  13.545 -0.1656  0.1461 -0.2184
 3151W        W19045   8.760   1.039   1.814  0.0213 -0.6310  0.0454
 3152W        W19046  14.122   2.793   4.587  0.0914 -0.0616 -0.0989
 3153W        W19047  15.165   6.603   6.188  0.6260 -0.1098  0.0277
 3154W        W19048   5.664   0.906  12.927  0.0417  0.2037 -0.0483
 3155W        W19049  13.998   9.256   9.818 -0.5763  0.1917  0.3917
 3156W        W19050   3.197   3.309   4.927 -0.1785  0.1901 -0.0102
 3157W        W19051   3.778  17.041  13.896  0.0906 -0.4019  0.0905
 3158W        W19052   1.154   1.712  12.413 -0.1377 -0.2174  0.0988
 3159W        W19053   7.363  17.708  12.869  0.2035  0.2350  0.3377
 3160W        W19054  11.798   2.063  13.784 -0.2605  0.3338 -0.1930
 3161W        W19055  16.993   6.375   4.191  0.0661 -0.4177  0.0325
 3162W        W19056  12.642   0.050  15.116 -0.0088  0.0690  0.1530
 3163W        W19057  17.269  18.810   1.818 -0.1506  0.2160 -0.0890
 3164W        W19058   1.183  10.696  13.383 -0.0797  0.0201 -0.3787
 3165W        W19059   8.602   8.113  14.428  0.1838 -0.2238 -0.1893
 3166W        W19060  16.441  10.043  13.435 -0.2016  0.1481 -0.5899
 3167W        W19061   9.361  18.072   4.895 -0.2678 -0.1639 -0.1116
 3168W        W19062   1.379  10.175  13.514  0.1696  0.2005  0.2926
 3169W        W19063   8.665  19.023   1.434  0.0740 -0.0731 -0.1649
 3170W        W19064  13.421  12.124   3.123  0.1039  0.1705  0.1884
 3171W        W19065   2.549  16.380  13.531  0.0633  0.0812  0.0249
 3172W        W19066  17.681  14.053  13.944 -0.2641  0.0548  0.2755
 3173W        W19067  15.820   9.499   1.428  0.0038  0.0730  0.1616
 3174W        W19068  13.856   0.530  10.978  0.0823 -0.0819  0.1362
 3175W        W19069   7.032  14.368  15.010 -0.2629  0.2958 -0.4897
 3176W        W19070  11.785   8.541   4.874  0.0980  0.1693  0.0315
 3177W        W19071  14.393  15.480  10.900  0.0747 -0.2232 -0.1323
 3178W        W19072  17.708   9.689   1.221 -0.0318  0.1941  0.0291
 3179W        W19073   5.454   6.803  10.470 -0.3225 -0.4108 -0.2776
 3180W        W19074  17.222  15.049   5.830 -0.0791 -0.1759  0.4116
 3181W        W19075   2.469  16.151   3.482  0.0325  0.3334 -0.4204
 3182W        W19076  17.127  16.051  10.548  0.3075 -0.1466 -0.1836
 3183W        W19077   1.101   8.328   2.264  0.2577  0.5021 -0.2457
 3184W        W19078  18.213   6.271  12.394 -0.0603  0.0888 -0.2312
 3185W        W19079   4.278   0.178   2.514 -0.0190 -0.3316 -0.3087
 3186W        W19080   6.722   6.385  10.235  0.5539 -0.0732  0.1145
 3187W        W19081   0.132  11.398  14.000  0.1996 -0.1705  0.2524
 3188W        W19082   3.305   4.950  14.161 -0.1197 -0.2656 -0.2131
 3189W        W19083   2.106   7.072  13.135  0.3791  0.1803 -0.3554
 3190W        W19084   3.772  10.344   0.953  0.1516  0.0536 -0.4052
 3191W        W19085   9.464  10.217   3.915  0.1666  0.3647 -0.3854
 3192W        W19086  12.192   3.028  14.107  0.1899 -0.2264 -0.1197
 3193W        W19087   5.690  11.792   2.178  0.2542  0.0606 -0.0418
 3194W        W19088   0.173  11.517  12.016  0.1045 -0.2274 -0.1173
 3195W        W19089   2.850  18.594   0.746 -0.0883  0.1880  0.0908
 3196W        W19090  15.177   6.931   3.352  0.1885 -0.2815  0.0069
 3197W        W19091   0.318  10.523  10.736  0.3085 -0.0159 -0.1042
 3198W        W19092  15.559   7.967  13.554  0.2934 -0.1632 -0.1842
 3199W        W19093  16.546  17.417   5.331  0.0030 -0.0444  0.2074
 3200W        W19094   8.652   3.526  12.782 -0.1443  0.3649  0.2416
 3201W        W19095   6.996   6.003  11.033 -0.0596 -0.0989 -0.1268
 3202W        W19096   3.110   9.587   0.952  0.0071 -0.1936 -0.1944
 3203W        W19097   9.828   1.878  14.155  0.2735  0.3714 -0.0106
 3204W        W19098  18.174  13.078   1.488  0.2547 -0.1541  0.1770
 3205W        W19099  15.378  12.323   2.230 -0.2586 -0.0231 -0.1929
 3206W        W19100   8.970   5.152   0.583 -0.1248 -0.1435 -0.0443
 3207W        W19101   5.406  17.771  10.992 -0.0701  0.0181  0.2134
 3208W        W19102   1.298   2.539   4.423  0.2117 -0.0649 -0.0313
 3209W        W19103   9.380   1.698   1.308 -0.0300 -0.1002  0.3746
 3210W        W19104   5.912  13.159   3.002 -0.1353 -0.0163 -0.1118
 3211W        W19105   0.912   9.065  12.498 -0.1681 -0.0957  0.0186
 3212W        W19106  13.705  13.886   3.327  0.2266  0.1452  0.1509
 3213W        W19107  19.059  16.483   3.852 -0.3516  0.1383  0.2192
 3214W        W19108  12.782  14.594   0.858 -0.0939 -0.4941 -0.1979
 3215W        W19109  15.355  10.016   2.115 -0.0156  0.1974 -0.2116
 3216W        W19110   2.509   6.141   1.733 -0.0031 -0.1322 -0.2776
 3217W        W19111   2.627   1.084   1.587 -0.3025 -0.0170 -0.0644
 3218W        W19112  17.778   7.270   5.648 -0.1943 -0.3350  0.0589
 3219W        W19113  16.621   6.066  11.119 -0.2970  0.2954  0.1327
 3220W        W19114   0.778   4.071  13.866  0.2018 -0.0084 -0.1173
 3221W        W19115  12.478   6.775   3.237  0.0368  0.1138 -0.0772
 3222W        W19116   0.394   8.019   2.056  0.0495 -0.0159 -0.0507
 3223W        W19117   1.797   4.715   1.682 -0.1149  0.1072  0.1353
 3224W        W19118   8.431   9.269   5.222  0.2785  0.1353 -0.0307
 3225W        W19119  18.044   6.698   1.270 -0.0382 -0.0918 -0.2128
 3226W        W19120  12.135  11.953   0.393  0.2152  0.1690 -0.2161
 3227W        W19121  10.935  18.053  13.061  0.2653  0.2892  0.2702
 3228W        W19122   4.607  12.160  13.292 -0.0772 -0.0462  0.2219
 3229W        W19123  16.570  14.563   1.596 -0.0673  0.0081 -0.0643
 3230W        W19124   7.749   5.374  10.730  0.0971 -0.1844  0.1471
 3231W        W19125  16.146   1.594  14.596  0.1829 -0.0721  0.0772
 3232W        W19126  14.312   1.656   3.408  0.1736 -0.0360  0.1354
 3233W        W19127   9.000   3.963  12.487  0.1202 -0.1112 -0.2868
 3234W        W19128   5.071  16.781   0.959  0.0407  0.1446 -0.0247
 3235W        W19129  13.122  10.503   0.614 -0.1077  0.2105  0.0717
 3236W        W19130  13.807   4.751   0.036  0.2744  0.0011  0.3878
 3237W        W19131  19.103  15.344   2.230  0.2280 -0.3776  0.0139
 3238W        W19132  11.723   1.554   4.267 -0.0984  0.1224  0.1971
 3239W        W19133  10.124   9.517  14.878 -0.1524 -0.0231  0.1713
 3240W        W19134  11.802   6.151  11.762 -0.4812 -0.0277  0.0257
 3241W        W19135   3.320  13.726   4.615  0.0021  0.1680  0.1104
 3242W        W19136   7.930  11.777   3.081 -0.1425 -0.1784  0.2221
 3243W        W19137  16.522  10.790  13.109  0.3280 -0.0376  0.1443
 3244W        W19138   6.804  13.099  10.926 -0.2051  0.0274 -0.3933
 3245W        W19139  17.798   9.926  13.203  0.5643 -0.1028 -0.0872
 3246W        W19140   9.999   7.943  11.027  0.1975  0.2276 -0.3472
 3247W        W19141   2.226   2.597   0.346  0.0786  0.0960  0.1770
 3248W        W19142   3.262   0.826  13.951 -0.1276  0.1333  0.6651
 3249W        W19143  10.574   7.564   0.688 -0.3488 -0.1867 -0.0940
 3250W        W19144   6.170   1.115  11.254 -0.3762  0.1003  0.0944
 3251W        W19145  14.695   0.239  12.523  0.0375 -0.0353 -0.0392
 3252W        W19146   0.068   7.954  12.260  0.2292  0.1515 -0.2124
 3253W        W19147   7.634   1.619   0.644  0.0789 -0.0102  0.2339
 3254W        W19148   1.941  19.063  12.872 -0.0512 -0.0488 -0.2835
 3255W        W19149   7.723  11.341   2.852  0.0926 -0.4617  0.2206
 3256W        W19150  11.967  14.331   2.961  0.0303  0.0569 -0.1994
 3257W        W19151  13.574   9.147   4.888 -0.0517  0.0773  0.3282
 3258W        W19152   3.491  10.034   4.768 -0.1311 -0.0207  0.0420
 3259W        W19153   6.070   4.214  10.312  0.2147 -0.1369  0.0796
 3260W        W19154  12.200   1.698  12.112  0.0735  0.1274  0.0005
 3261W        W19155   1.867   6.581  10.681  0.2349 -0.1647  0.1509
 3262W        W19156  18.383   3.988   0.261  0.4012 -0.0621  0.2681
 3263W        W19157   3.324   4.248  13.345  0.0717 -0.1447  0.0950
 3264W        W19158  17.230   2.469  11.507 -0.1236  0.4586  0.0918
 3265W        W19159  15.620   4.648   2.796 -0.0288 -0.0172  0.2594
 3266W        W19160  10.240  17.519   0.752 -0.2113 -0.0622 -0.0853
 3267W        W19161   5.417  17.687  14.944 -0.0923 -0.4040  0.1829
 3268W        W19162   4.569  17.273   1.059  0.1978  0.1667 -0.0105
 3269W        W19163  18.802  10.867   2.894 -0.0801 -0.1439 -0.0493
 3270W        W19164   0.050  15.186   3.084  0.2257 -0.2417  0.3369
 3271W        W19165   6.960   6.844   2.680 -0.0733 -0.2807 -0.1187
 3272W        W19166   7.734   1.054  12.777  0.0418 -0.1060 -0.0327
 3273W        W19167   2.831   2.706   0.915 -0.1920  0.0321 -0.2823
 3274W        W19168   8.353  16.316  12.394 -0.1715  0.5208  0.0178
 3275W        W19169  18.050  13.400   0.078  0.0242 -0.2572  0.3639
 3276W        W19170  10.539   8.200   2.131  0.1295  0.2471 -0.1246
 3277W        W19171  11.347   9.302   0.747  0.1800 -0.0937 -0.0524
 3278W        W19172  16.659   0.065   1.250  0.1090  0.1515  0.3921
 3279W        W19173  10.823  11.838   3.912  0.1844  0.0697  0.0248
 3280W        W19174  18.548  12.400  14.988  0.0099  0.0817  0.2625
 3281W        W19175   9.481   8.377   1.053 -0.3071  0.1089 -0.3034
 3282W        W19176  10.461   2.303  10.780  0.0603  0.1820 -0.1287
 3283W        W19177   4.774  12.747   4.651  0.0768  0.1726  0.2803
 3284W        W19178   2.514   4.320   0.737 -0.3470  0.3438  0.2229
 3285W        W19179  16.022  12.239   4.975  0.5797  0.0169  0.3097
 3286W        W19180  11.585  14.607   1.881  0.3686 -0.1859 -0.3503
 3287W        W19181   0.165   3.168  12.557 -0.0849  0.2738 -0.1717
 3288W        W19182  11.482  11.028   2.272  0.2726  0.0333 -0.0223
 3289W        W19183   9.642  10.705   2.189  0.0367  0.0190  0.2782
 3290W        W19184  10.910   7.973   1.915  0.0255  0.0194  0.2491
 3291W        W19185   9.932  12.438  13.604 -0.0731 -0.0214  0.2099
 3292W        W19186   4.621  13.009   1.586  0.1439 -0.2523 -0.0880
 3293W        W19187   4.635   5.966  13.343 -0.1903  0.1182  0.2949
 3294W        W19188   6.058  16.411  11.236 -0.0794  0.3932 -0.1448
 3295W        W19189   3.972   9.751  11.488 -0.2283  0.3935 -0.0492
 3296W        W19190   8.919   3.037  11.206 -0.3806  0.2792  0.1447
 3297W        W19191   2.409   5.544  10.931 -0.0995  0.0970  0.2878
 3298W        W19192  11.417  13.117  12.167 -0.2200  0.0133 -0.1323
 3299W        W19193  16.764   4.627  14.454  0.2278 -0.3857  0.2528
 3300W        W19194   9.312  10.730  13.624 -0.0538 -0.0515 -0.3658
 3301W        W19195   8.528  13.999  14.732  0.1111  0.0123  0.0513
 3302W        W19196  18.938   7.871  11.003 -0.0943  0.0572  0.1213
 3303W        W19197   4.437   0.431   2.908  0.0847  0.1484  0.2672
 3304W        W19198   4.576   8.438  11.130  0.0043 -0.1807  0.0493
 3305W        W19199  12.905  11.256   1.525  0.3159  0.2581 -0.0582
 3306W        W19200   9.652  17.661   0.041  0.3783 -0.1908  0.2010
 3307W        W19201  15.790  17.683  11.173 -0.0289 -0.2022 -0.0389
 3308W        W19202  17.638  13.580  13.779  0.0012  0.1087  0.0198
 3309W        W19203   7.160   1.003  14.588 -0.2532  0.1814 -0.0297
 3310W        W19204   5.986   3.723  10.098  0.2377 -0.0903  0.3811
 3311W        W19205   2.760  16.100   0.945  0.0265  0.2315 -0.3905
 3312W        W19206   1.958  13.165   2.213  0.2191  0.0076  0.2384
 3313W        W19207   0.176   2.029   9.770 -0.0860 -0.0310  0.0574
 3314W        W19208   5.724   7.845  12.055  0.2910  0.2752 -0.0018
 3315W        W19209   3.421   2.157  15.133  0.1045 -0.0015  0.1140
 3316W        W19210   8.185   4.388  13.330  0.0881 -0.1791 -0.2892
 3317W        W19211   1.261  11.572   5.689  0.3672  0.2793 -0.2015
 3318W        W19212   3.416   0.906  12.651 -0.0289 -0.0079  0.0570
 3319W        W19213   1.828   4.021  11.951  0.1199  0.1538  0.3180
 3320W        W19214   0.130   9.020   4.482  0.1847 -0.0969 -0.0261
 3321W        W19215  10.007   4.120  11.997 -0.3406  0.0492  0.3644
 3322W        W19216  14.849   5.477   5.451 -0.1032 -0.0141  0.4853
 3323W        W19217   4.683   1.202   3.430 -0.3518  0.1801 -0.0391
 3324W        W19218   8.880   0.234   1.137 -0.1578 -0.1358  0.4498
 3325W        W19219  17.716   2.466   4.060 -0.0103 -0.1645  0.0635
 3326W        W19220  17.305  16.557  15.179  0.0906 -0.2046 -0.1994
 3327W        W19221  12.656  15.460   2.677 -0.3518  0.4141 -0.1807
 3328W        W19222   1.856   3.905   2.787  0.2575 -0.3156  0.1963
 3329W        W19223   4.677   5.299  14.908 -0.0616 -0.0081  0.0519
 3330W        W19224  18.542  18.481  11.832 -0.2259 -0.0643 -0.1939
 3331W        W19225   0.295   6.742  12.135 -0.0679  0.1596  0.2369
 3332W        W19226   4.974  17.158   3.393  0.4002 -0.2908 -0.0999
 3333W        W19227   6.887   6.891  10.316  0.1098  0.0993 -0.3320
 3334W        W19228   2.737   7.792   3.806  0.1120 -0.2189 -0.1213
 3335W        W19229  15.270   8.461  12.758  0.0848 -0.0076 -0.2122
 3336W        W19230  13.633  11.562  10.414  0.0871 -0.2645 -0.1551
 3337W        W19231   5.084  17.164   0.545 -0.2931  0.1347 -0.0906
 3338W        W19232   3.482   1.715   3.346 -0.2719  0.1347  0.1390
 3339W        W19233  12.325   5.702   3.048 -0.3235 -0.1529  0.1151
 3340W        W19234   0.028   7.523   1.876 -0.0665  0.3347 -0.1055
 3341W        W19235   4.615   7.541  10.957 -0.0672 -0.1282  0.0169
 3342W        W19236  13.557  16.013  10.294  0.0137  0.0065  0.1179
 3343W        W19237   8.876   1.255  10.923 -0.3654  0.0213 -0.0033
 3344W        W19238  16.993  12.060  14.918  0.1675 -0.1974  0.2974
 3345W        W19239  18.126  16.079   2.146 -0.0680 -0.0250  0.0167
 3346W        W19240  18.789  17.522   0.004  0.0235  0.3067  0.4301
 3347W        W19241   7.590   6.685  10.107 -0.0536  0.1389 -0.0821
 3348W        W19242   7.751  17.698  14.778  0.5431 -0.0377  0.1600
 3349W        W19243  14.439  10.223   2.418  0.0152 -0.1722 -0.1935
 3350W        W19244  13.190   0.506  14.557 -0.0310 -0.0619  0.2516
 3351W        W19245  15.830  13.462   2.815 -0.1212  0.1895  0.0282
 3352W        W19246   6.043   5.396   3.252  0.0833  0.1964 -0.1887
 3353W        W19247  10.713   7.838  11.481  0.1921 -0.0400 -0.0354
 3354W        W19248  17.529   1.429  13.805 -0.1077  0.2707  0.1207
 3355W        W19249  11.051  18.373  12.595 -0.2755  0.1395  0.0849
 3356W        W19250   5.018  10.271  10.957 -0.0596 -0.0831 -0.2480
 3357W        W19251   6.686   1.220   4.757 -0.0565 -0.0689  0.0463
 3358W        W19252  16.680   5.222   1.043 -0.1888  0.0540 -0.1510
 3359W        W19253  14.195  15.622  14.501  0.0720 -0.0338  0.0357
 3360W        W19254  18.155   7.182   2.191 -0.2955 -0.0609 -0.0713
 3361W        W19255  17.537   5.559   4.583 -0.0006  0.2711  0.1729
 3362W        W19256   3.828  10.517  13.097 -0.1516 -0.3616  0.4198
 3363W        W19257   1.064  10.976   4.403 -0.1584  0.0290  0.1636
 3364W        W19258  12.906   0.291  14.175 -0.4825  0.1187  0.2086
 3365W        W19259  16.139  11.924   1.724 -0.4742 -0.1000 -0.1383
 3366W        W19260   1.032  13.574   2.295  0.1126  0.0053  0.1818
 3367W        W19261  11.705   5.517   4.152  0.0627 -0.3183  0.1487
 3368W        W19262  10.247   0.202   5.314  0.4396 -0.1549 -0.1152
 3369W        W19263   1.215   0.630  15.046 -0.2199 -0.2983  0.2240
 3370W        W19264   4.548   4.713   1.379 -0.0543 -0.0516  0.4524
 3371W        W19265   5.907   4.859   1.670  0.0040 -0.1527 -0.1698
 3372W        W19266  16.255   9.164  13.239  0.0956 -0.2879  0.0487
 3373W        W19267   8.535   2.705   4.634  0.0396 -0.2505  0.2012
 3374W        W19268   5.848  18.605  12.033  0.0393 -0.1261 -0.0305
 3375W        W19269   3.138   1.420   0.455 -0.0314 -0.1100  0.0860
 3376W        W19270   6.794  12.880  11.432 -0.0063  0.0391  0.1389
 3377W        W19271  14.954   2.296  11.182  0.0335  0.4360  0.0427
 3378W        W19272  11.698   8.673   1.991 -0.1807 -0.0491 -0.2140
 3379W        W19273   9.282   1.320   0.303 -0.1679 -0.3738 -0.3223
 3380W        W19274  13.376  14.157  14.704 -0.1014 -0.1602  0.1452
 3381W        W19275   3.685   6.089   2.104 -0.1004  0.0681 -0.0531
 3382W        W19276  14.346   9.005   4.063 -0.2413 -0.3918  0.0983
 3383W        W19277   6.745  11.685  11.355 -0.1049  0.0957 -0.0210
 3384W        W19278  16.760  12.947   0.583  0.0217  0.0116  0.0016
 3385W        W19279  11.745  16.797   3.235  0.0232 -0.1874 -0.1560
 3386W        W19280   4.819  14.689  13.356 -0.1533  0.0909 -0.0050
 3387W        W19281   8.274  18.133   3.575 -0.0777  0.3069  0.0709
 3388W        W19282   0.046   6.023   3.780 -0.1668 -0.1000  0.1829
 3389W        W19283  16.066  10.111   3.483  0.0910  0.0782  0.1661
 3390W        W19284   8.701   4.346  12.293  0.1148 -0.0669  0.0105
 3391W        W19285  10.612   2.585   4.846 -0.1741  0.1658  0.0390
 3392W        W19286  18.841  15.953  14.388 -0.1756 -0.2754 -0.2265
 3393W        W19287  11.421   6.825  13.691  0.0702 -0.0916 -0.2837
 3394W        W19288   3.764  11.377  14.445  0.2572  0.0757 -0.1375
 3395W        W19289   0.929   0.578  12.528 -0.4034 -0.1947  0.2774
 3396W        W19290  10.649  11.223  11.778 -0.0349  0.0481 -0.0246
 3397W        W19291  14.454   7.140   5.502 -0.1401  0.0695  0.1290
 3398W        W19292   8.748   7.256   1.722 -0.1097 -0.1995  0.0910
 3399W        W19293  10.434  13.008  11.386  0.2324 -0.2484  0.1226
 3400W        W19294  17.926   5.431   4.346 -0.0087  0.1531 -0.0211
 3401W        W19295   2.619  18.200   3.195  0.1361  0.4497 -0.0247
 3402W        W19296  15.245  14.303   4.666  0.1907  0.0088  0.0739
 3403W        W19297   3.089   1.651  13.642  0.1879 -0.1765  0.0797
 3404W        W19298  18.887  17.989   3.812  0.3580  0.3156 -0.0788
 3405W        W19299   7.905   1.045   3.920  0.0793  0.0599  0.0300
 3406W        W19300   2.828   1.374   4.766 -0.0614  0.0146  0.0346
 3407W        W19301   3.819   3.382   2.878 -0.2859  0.2165  0.1124
 3408W        W19302  15.418  16.934   0.787  0.0376  0.3805  0.2410
 3409W        W19303   6.329   8.893  13.804  0.3379 -0.2304 -0.1770
 3410W        W19304  18.903   8.640   4.064 -0.1523 -0.0479  0.0341
 3411W        W19305   5.307   9.861   3.903  0.0320  0.1982 -0.5380
 3412W        W19306  10.300  19.004  12.065 -0.2752  0.2827  0.2149
 3413W        W19307   6.417   3.131  13.525 -0.0130  0.0305 -0.0146
 3414W        W19308   2.150   1.502   0.901  0.2010  0.0228  0.1907
 3415W        W19309   5.155  17.500  11.495  0.3886  0.0035  0.2847
 3416W        W19310   7.875   8.749   3.860  0.0336 -0.3421 -0.1583
 3417W        W19311  18.082  18.420   0.831  0.1373  0.3765 -0.0327
 3418W        W19312  11.551  18.478   1.427 -0.1230 -0.0398  0.2301
 3419W        W19313   4.958   9.590   3.682  0.1529 -0.4733  0.1037
 3420W        W19314   7.410   2.785  13.700 -0.2454 -0.0135 -0.0366
 3421W        W19315   5.874   0.048  10.954 -0.2058  0.1993 -0.2925
 3422W        W19316   1.656  14.203   0.389 -0.1318 -0.4572  0.4168
 3423W        W19317   4.140   7.956   0.852 -0.1025 -0.0207 -0.2969
 3424W        W19318   1.222  11.426   4.619 -0.0621 -0.1480  0.2894
 3425W        W19319   6.720   6.642  11.971 -0.3414  0.0514 -0.1971
 3426W        W19320   5.786   0.617   0.693  0.4644  0.4507 -0.2085
 3427W        W19321   6.322   6.639   1.274 -0.0346 -0.2278 -0.0905
 3428W        W19322  13.600   5.640  11.110 -0.3171  0.2705 -0.2278
 3429W        W19323  13.555   5.141  11.292 -0.2088  0.0771 -0.0015
 3430W        W19324   6.855  10.324   0.185 -0.1518  0.0828 -0.0532
 3431W        W19325  16.255   6.627  10.987 -0.1083  0.1787 -0.4362
 3432W        W19326  14.193  11.167  10.839 -0.0477  0.1074  0.0468
 3433W        W19327  16.118   4.490  12.442 -0.1305 -0.1427  0.2313
 3434W        W19328   4.735   8.198   1.519  0.0995 -0.1881 -0.3309
 3435W        W19329   1.951  16.667   1.906 -0.2776 -0.0738  0.2322
 3436W        W19330  12.003   4.848  13.691  0.0847  0.0363 -0.2451
 3437W        W19331   6.369  14.764   1.223  0.0485 -0.2187 -0.0858
 3438W        W19332   1.295  16.212   1.391 -0.3654  0.2887 -0.0148
 3439W        W19333  11.371   8.210   1.885 -0.1136 -0.1994 -0.1935
 3440W        W19334   5.274   5.096   0.799  0.0573 -0.0425  0.0466
 3441W        W19335  13.393   9.187   0.099  0.4148 -0.0012  0.1176
 3442W        W19336  18.023  17.135   2.888  0.0887  0.0160  0.0058
 3443W        W19337  15.712   5.951  12.268 -0.0431 -0.2587  0.1930
 3444W        W19338   8.483  16.439   5.639  0.0162  0.1442 -0.2242
 3445W        W19339  17.103  13.833   1.910 -0.1526 -0.4795  0.2447
 3446W        W19340  15.201   6.735   2.662 -0.1836 -0.1624 -0.2978
 3447W        W19341  11.254  15.022  13.616  0.1569 -0.1454  0.1403
 3448W        W19342   7.810  14.952   4.870 -0.0364 -0.0159 -0.2081
 3449W        W19343   1.485   7.100  13.110  0.1653  0.0744  0.0037
 3450W        W19344  18.373   5.848   5.106 -0.1530 -0.1711 -0.0676
 3451W        W19345   0.928   5.657  15.014  0.0233 -0.3251 -0.1169
 3452W        W19346   1.765  18.600   5.649 -0.1323 -0.0658  0.3371
 3453W        W19347  13.201   0.864   2.786 -0.1194 -0.1241  0.3170
 3454W        W19348  13.830   9.033  14.299  0.0891 -0.2614  0.1315
 3455W        W19349   7.799  12.326  11.961 -0.1471 -0.1357  0.0076
 3456W        W19350   3.783  13.095  14.561  0.0724 -0.1979 -0.0459
 3457W        W19351   6.812   4.960  12.320 -0.1168 -0.3632  0.1337
 3458W        W19352   6.050  16.853   2.908 -0.0930  0.1185 -0.0452
 3459W        W19353  13.513   3.384   1.191  0.0894 -0.1058 -0.2123
 3460W        W19354  11.792   2.811   3.203 -0.0284 -0.1446 -0.1469
 3461W        W19355   6.307   3.687  14.449 -0.2973  0.1698 -0.2716
 3462W        W19356   9.718   3.302   1.280  0.0945 -0.1246 -0.2672
 3463W        W19357  16.867   0.781  12.987  0.0157 -0.0530 -0.1203
 3464W        W19358  15.507   4.112  13.975 -0.0982  0.2887 -0.0707
 3465W        W19359   8.230  13.069   5.773  0.0160  0.2949 -0.0594
 3466W        W19360   0.619  18.370   1.685 -0.0856 -0.0427  0.1679
 3467W        W19361   9.006   4.677   0.954  0.0127 -0.1492 -0.1463
 3468W        W19362  13.415   3.607   1.731 -0.0534  0.0783 -0.1607
 3469W        W19363   9.024  14.996   0.429  0.1987 -0.1611  0.0190
 3470W        W19364   6.765  18.609  11.399 -0.0422  0.1047 -0.0359
 3471W        W19365   2.951  11.114  14.017  0.2641  0.2308 -0.0490
 3472W        W19366   0.994  11.847  11.466 -0.1236 -0.0619 -0.1193
 3473W        W19367   8.090  12.147  13.361 -0.0145 -0.1954 -0.1360
 3474W        W19368   7.125   9.222  13.286  0.2721 -0.1712  0.1724
 3475W        W19369   4.479  14.013   3.124  0.1942 -0.2365  0.1298
 3476W        W19370  10.021  14.720   3.181 -0.2327  0.3572 -0.0676
 3477W        W19371   9.928  14.556  12.548  0.1524  0.0518  0.1021
 3478W        W19372  10.751   9.130   5.452  0.1764 -0.3599 -0.1174
 3479W        W19373   7.542   3.460  11.151  0.1106  0.1038  0.3330
 3480W        W19374  16.802  17.206  13.827 -0.2682 -0.1782 -0.1849
 3481W        W19375   6.080  11.690   0.454  0.0460  0.3740  0.0472
 3482W        W19376  15.701   6.538  11.280 -0.0763 -0.0000  0.3766
 3483W        W19377   3.180  13.685  13.642 -0.1199  0.0829  0.1600
 3484W        W19378   1.723   0.505  11.775 -0.0486  0.0933  0.2540
 3485W        W19379   5.283  12.803  13.584  0.3028  0.0053  0.0306
 3486W        W19380   6.144  10.235   3.548  0.2723 -0.0249 -0.1705
 3487W        W19381   5.437  11.160  11.252  0.0173 -0.1499 -0.1645
 3488W        W19382  11.054  13.783  12.637  0.0546 -0.1090 -0.1331
 3489W        W19383  17.477   6.907   4.159  0.0904 -0.0393  0.3794
 3490W        W19384  17.656  16.526   1.941  0.1492  0.1020  0.2444
 3491W        W19385  12.469  11.427   0.341 -0.1580 -0.2721 -0.0977
 3492W        W19386   6.992   5.376  13.874 -0.0123 -0.0110 -0.2011
 3493W        W19387   5.896  11.988  12.517 -0.3610  0.1941  0.0088
 3494W        W19388   9.352  18.655  14.170 -0.0708 -0.0310 -0.0400
 3495W        W19389  17.031   1.658  12.505 -0.0414 -0.0588  0.2305
 3496W        W19390  10.881   2.389   0.241  0.2105 -0.0586 -0.2330
 3497W        W19391   1.874   0.230   5.559  0.3503  0.3275  0.1247
 3498W        W19392   2.889  10.844   4.486 -0.0763 -0.0191  0.1266
 3499W        W19393  16.838  11.994  12.558  0.1826 -0.3318 -0.3560
 3500W        W19394  11.271  15.329   0.625  0.0427 -0.2168 -0.0314
 3501W        W19395  11.569  15.420  11.889 -0.1985  0.0414 -0.1955
 3502W        W19396  10.441   5.605  13.895  0.1447  0.1353 -0.1431
 3503W        W19397  17.468   8.329  14.983 -0.1962  0.1717 -0.1961
 3504W        W19398  16.076  15.047  12.846 -0.0296 -0.3056 -0.0866
 3505W        W19399   4.634   1.676   0.904 -0.3027  0.3626 -0.0870
 3506W        W19400  10.838   7.472  13.764  0.0583  0.1374  0.1359
 3507W        W19401  14.866   5.320  12.471  0.0730  0.0111  0.1159
 3508W        W19402  11.359  17.710  11.135 -0.1463  0.0162  0.1949
 3509W        W19403   9.526   1.310  12.702 -0.2665  0.0222  0.1014
 3510W        W19404   6.480   2.464  11.007  0.3730  0.0740  0.0529
 3511W        W19405  10.469   2.102   4.733  0.0782  0.0187 -0.0433
 3512W        W19406  16.916   4.786   4.949 -0.3420 -0.0503  0.3287
 3513W        W19407  11.562  18.227   3.328 -0.0539 -0.1103 -0.0936
 3514W        W19408   6.980  10.989   3.408  0.0742  0.3633 -0.0098
 3515W        W19409   7.382  13.746  11.139  0.0286  0.0184  0.2031
 3516W        W19410  10.621  17.163  11.401 -0.3379  0.0600  0.1755
 3517W        W19411  13.871   8.252   4.568 -0.1407 -0.1293  0.2336
 3518W        W19412   1.084   1.952  10.897 -0.2927 -0.1502 -0.1261
 3519W        W19413   5.530   7.641  14.827 -0.2129  0.0043  0.2498
 3520W        W19414  17.694   5.999  11.478 -0.1616  0.0851 -0.1681
 3521W        W19415   6.342   3.672  13.312 -0.1159  0.1946  0.1859
 3522W        W19416  13.942  14.930   4.043  0.0661 -0.2949 -0.0043
 3523W        W19417   6.873   0.604  11.816 -0.1783 -0.1154  0.0754
 3524W        W19418  12.956  18.202  12.539 -0.0165 -0.2448  0.1282
 3525W        W19419  10.435   4.375  11.867 -0.1755  0.2508  0.1904
 3526W        W19420   2.835   9.336  12.945 -0.2094  0.0479  0.1971
 3527W        W19421   6.774   2.223   5.292 -0.2901  0.0965  0.1289
 3528W        W19422   7.154   7.612   1.619 -0.2684 -0.1037  0.0361
 3529W        W19423   3.499   8.940   4.354  0.1259 -0.1871  0.0040
 3530W        W19424   5.808   5.075   2.879  0.0896 -0.1298  0.0174
 3531W        W19425   8.336  10.805   9.951  0.0592 -0.0554 -0.2508
 3532W        W19426   9.547   0.365  10.718  0.3675  0.0598  0.0502
 3533W        W19427  12.390  15.766   9.991 -0.1952  0.0859  0.2090
 3534W        W19428  12.103   9.494   1.967  0.1012 -0.1030 -0.0105
 3535W        W19429  18.574  18.325   2.763  0.2188  0.0855 -0.2492
 3536W        W19430   2.901  13.768   4.938  0.0768  0.1025 -0.0440
 3537W        W19431   8.785  13.165  14.819  0.3182 -0.2530  0.0210
 3538W        W19432  13.702   2.283  11.947 -0.1234  0.0323  0.2063
 3539W        W19433   9.065   5.889   1.599  0.0783 -0.2355  0.1541
 3540W        W19434   9.106   6.196   0.855  0.2073 -0.0835  0.1696
 3541W        W19435   6.775   9.614  12.296  0.3686  0.0876 -0.0556
 3542W        W19436  15.360  12.054  13.805 -0.0890  0.1068 -0.4471
 3543W        W19437  16.415   4.272  10.544  0.0503 -0.1474 -0.3582
 3544W        W19438   6.809   9.392   1.387 -0.0665  0.1386 -0.1660
 3545W        W19439   1.189   1.720   3.573 -0.1360  0.2809 -0.1799
 3546W        W19440  15.736  14.736   1.587  0.3412 -0.1211  0.0827
 3547W        W19441   8.970   8.230  12.079  0.3137  0.2377 -0.0776
 3548W        W19442   4.331  15.479   1.808  0.0431  0.2586  0.2115
 3549W        W19443   1.348  16.812  11.720  0.0315 -0.1791 -0.0287
 3550W        W19444   2.894   1.126  10.527 -0.1464 -0.1036  0.1474
 3551W        W19445   1.929  17.327   1.203  0.0274 -0.1619  0.1199
 3552W        W19446  15.664   0.653   5.220  0.1200  0.3497 -0.2623
 3553W        W19447  12.003  13.881  11.782 -0.1631 -0.2137  0.1454
 3554W        W19448   4.909   0.264   3.057  0.0071 -0.1020 -0.0262
 3555W        W19449  16.171  13.340   1.748  0.2100 -0.0756 -0.1622
 3556W        W19450  15.609  10.617  10.305 -0.0550  0.0132  0.0764
 3557W        W19451   3.363   9.189  11.724  0.0691 -0.1910  0.1921
 3558W        W19452  15.406  13.406   3.112  0.1998 -0.1381 -0.1930
 3559W        W19453  14.188   8.879   2.314  0.0341  0.0014  0.1989
 3560W        W19454   1.633   4.225  14.135  0.1026  0.1263  0.1590
 3561W        W19455  13.169  15.346   2.472 -0.1557  0.0725  0.0345
 3562W        W19456   0.196  17.392  14.454  0.0507  0.0455  0.1215
 3563W        W19457  18.747   7.732   2.913 -0.1898 -0.3271  0.1176
 3564W        W19458  15.376   6.875  13.050 -0.0984 -0.0432  0.1193
 3565W        W19459  10.831  12.067  10.735 -0.2441  0.0519 -0.4195
 3566W        W19460  15.200   5.266   2.475  0.1719  0.0358 -0.0109
 3567W        W19461   5.118  18.981  13.837 -0.0376  0.0816  0.1618
 3568W        W19462   2.289   7.187  12.169  0.0561  0.1338 -0.1550
 3569W        W19463   4.511  15.723   4.894 -0.0038 -0.1150 -0.3939
 3570W        W19464  16.225  18.972   0.806 -0.1167  0.1998  0.3836
 3571W        W19465   9.760   5.664   4.159  0.0804  0.2250  0.0933
 3572W        W19466   6.172   1.821   4.252 -0.0622  0.2315 -0.0152
 3573W        W19467  10.892   4.970   3.520  0.0640  0.0443  0.0061
 3574W        W19468   5.681   6.769   9.231  0.3130 -0.0819 -0.2064
 3575W        W19469  12.917   8.846   1.854 -0.2729  0.1965 -0.0527
 3576W        W19470  11.876  19.046   2.362 -0.0084  0.1233  0.2128
 3577W        W19471  15.669  16.381   5.697  0.0543 -0.2193 -0.1922
 3578W        W19472  17.680   8.892   1.063  0.2070 -0.0819 -0.0396
 3579W        W19473  15.540   5.362  14.429  0.2842 -0.0996  0.4091
 3580W        W19474   9.250   5.364  14.675 -0.1583 -0.0644  0.2482
 3581W        W19475  17.519   6.516  13.710 -0.0187  0.1436 -0.0034
 3582W        W19476  17.070  13.624  12.523 -0.3234  0.0486  0.1046
 3583W        W19477  15.486   5.158   1.486 -0.1015 -0.2243 -0.3302
 3584W        W19478   3.752   0.550  12.506 -0.0439 -0.0991  0.2539
 3585W        W19479   3.635  18.746  10.299 -0.1307  0.3891 -0.0686
 3586W        W19480   2.422   2.810   2.181  0.0615  0.1314 -0.0330
 3587W        W19481  17.148   8.023   3.315 -0.2186 -0.3938  0.0295
 3588W        W19482   8.855  18.567  13.437  0.0599 -0.1177  0.2223
 3589W        W19483  13.461  12.355   5.681 -0.2858 -0.3332 -0.1124
 3590W        W19484  17.014   9.102   3.478  0.3517 -0.0138  0.0236
 3591W        W19485  10.488  17.890   2.735  0.1085  0.2007 -0.0510
 3592W        W19486   4.438  13.445  11.048 -0.1398 -0.0646 -0.1573
 3593W        W19487  15.417  10.862  12.046  0.1479  0.0363 -0.0821
 3594W        W19488  11.471  16.879   0.835 -0.4127 -0.1996 -0.0356
 3595W        W19489  12.505   2.240   2.224  0.0745 -0.1358  0.1588
 3596W        W19490  16.785   5.042  10.552  0.0824 -0.0148  0.1098
 3597W        W19491  16.223  16.632  10.466 -0.3280 -0.2607 -0.3207
 3598W        W19492  11.334   9.768   0.389  0.0693 -0.1314  0.1150
 3599W        W19493   4.605  12.796  11.895  0.0727  0.1841 -0.1805
 3600W        W19494   2.199   4.252   5.997 -0.0169  0.3129  0.1568
 3601W        W19495  11.489  11.340  11.553 -0.0216 -0.1019  0.0528
 3602W        W19496   7.829  18.488  10.003  0.2802  0.2738 -0.2153
 3603W        W19497  16.232  13.448  10.399 -0.2583 -0.1727  0.0841
 3604W        W19498  16.874   9.661   0.399  0.2724 -0.0961  0.1063
 3605W        W19499  11.566  11.376   0.026  0.1773 -0.3481 -0.5246
 3606W        W19500  15.600  18.879  13.547 -0.1503  0.0071  0.1991
 3607W        W19501   8.215  17.223  14.219 -0.1785 -0.0281 -0.0558
 3608W        W19502  17.152   1.723  15.039 -0.2508  0.0936 -0.0400
 3609W        W19503   6.635  14.140   0.105 -0.2954 -0.0994  0.1631
 3610W        W19504   5.305   3.102   5.565  0.1791  0.0650 -0.1821
 3611W        W19505   5.033  12.679  11.124 -0.2837  0.2066  0.1234
 3612W        W19506  14.107   8.538   3.950  0.2547 -0.0763 -0.1738
 3613W        W19507  16.705   9.056  10.842  0.3225 -0.0140 -0.1176
 3614W        W19508   2.087  12.108   2.532  0.2469 -0.1294 -0.1458
 3615W        W19509   8.201  10.861   1.237 -0.0390  0.0876 -0.0986
 3616W        W19510   3.633  17.705   3.118 -0.0405 -0.2298 -0.0508
 3617W        W19511   1.110  13.789   1.010 -0.0344  0.0378  0.1003
 3618W        W19512  12.186  13.701   0.197 -0.0336 -0.0519  0.0105
 3619W        W19513   6.146  14.295   0.256 -0.1846  0.1154  0.0031
 3620W        W19514  12.518  15.175   3.698  0.2490  0.1168  0.0499
 3621W        W19515   1.690  16.773  10.846  0.3430  0.1333  0.1405
 3622W        W19516  16.825   4.246  13.038  0.1054 -0.2053  0.0852
 3623W        W19517  13.476  12.838   0.972 -0.2126  0.0808  0.2194
 3624W        W19518   3.422   4.013  15.051 -0.1087  0.2594  0.0800
 3625W        W19519   8.915  10.706   0.178  0.0703  0.1317  0.0016
 3626W        W19520   2.298   1.217  15.108  0.3686  0.1173  0.1927
 3627W        W19521  18.414   9.195  13.971 -0.1698 -0.1715 -0.2341
 3628W        W19522   6.272   7.512  13.044 -0.1250  0.2226  0.0686
 3629W        W19523  15.859  17.232   3.725 -0.3426  0.0746  0.1662
 3630W        W19524   2.373   5.955  13.431  0.3555  0.0986  0.1301
 3631W        W19525   7.405  12.214  10.107  0.0667  0.4061  0.0132
 3632W        W19526   9.590   3.847   2.630 -0.0963  0.1917  0.4307
 3633W        W19527  15.318  12.434  10.595  0.1768  0.1110  0.1378
 3634W        W19528  12.977   6.258   4.336  0.0561  0.0472 -0.1204
 3635W        W19529  17.396  12.473   4.327 -0.0271 -0.1065 -0.4381
 3636W        W19530   6.432   1.070   3.789 -0.0836  0.0590 -0.0955
 3637W        W19531   6.834   1.183   0.267 -0.0242  0.1222 -0.0501
 3638W        W19532  14.775  11.693  12.084 -0.1309 -0.2159 -0.2527
 3639W        W19533   7.589  17.792  14.246 -0.2955  0.0361 -0.0465
 3640W        W19534  14.402  15.933  13.407 -0.0221  0.4836  0.1699
 3641W        W19535  10.746  18.806  14.865 -0.0575 -0.2865  0.3247
 3642W        W19536  14.946   2.490   3.434  0.1863 -0.0244  0.0890
 3643W        W19537   7.054   5.073  11.086 -0.1309 -0.0388 -0.0628
 3644W        W19538   7.515   8.124  10.016  0.1549 -0.0449 -0.0880
 3645W        W19539  19.091  14.153   1.914  0.1559  0.2280  0.0228
 3646W        W19540   5.245   5.143   0.162 -0.2537 -0.0286 -0.0172
 3647W        W19541  12.959   9.338   2.164  0.1590 -0.0097 -0.0110
 3648W        W19542   0.665   7.073  13.894 -0.0842 -0.0976  0.1659
 3649W        W19543   2.590  18.736   3.333 -0.0627 -0.1235 -0.2320
 3650W        W19544  13.513   3.000   4.061  0.1315  0.3090  0.2476
 3651W        W19545   8.371  15.694  13.526  0.4974  0.0072 -0.2203
 3652W        W19546   9.386  15.995  14.412  0.3209 -0.0534 -0.0686
 3653W        W19547   1.405  12.908  12.369  0.0278  0.0745  0.2250
 3654W        W19548  11.206   8.565  11.106  0.0004  0.1042  0.3643
 3655W        W19549  12.617   5.521  11.920  0.1347 -0.0902 -0.1621
 3656W        W19550  14.011  14.920   1.199 -0.1437 -0.2182 -0.0233
 3657W        W19551  11.886  13.693   3.552  0.1488 -0.0401  0.1852
 3658W        W19552  19.100  17.078  12.093 -0.1412  0.2778 -0.3784
 3659W        W19553   3.258  16.760  13.134 -0.2746  0.1657  0.1390
 3660W        W19554  18.923   1.433   2.458  0.2038 -0.0799 -0.3403
 3661W        W19555  18.286  14.435   2.480  0.0714  0.1139  0.1134
 3662W        W19556   3.279   3.734   2.049  0.1319 -0.0261  0.0933
 3663W        W19557   1.047  18.500  10.878 -0.0865  0.4508  0.1281
 3664W        W19558  10.979   0.291   2.607  0.1583 -0.0434  0.0170
 3665W        W19559   8.260  14.469  10.528  0.1139  0.0638  0.1007
 3666W        W19560  18.419   2.600   2.105  0.2379 -0.3246 -0.0094
 3667W        W19561  10.691  13.785   2.630 -0.3543  0.1145  0.3017
 3668W        W19562   5.958   9.769   4.445 -0.3182  0.0789 -0.3046
 3669W        W19563   4.175   7.462  11.287  0.1703  0.2441  0.3032
 3670W        W19564   3.981   9.855  13.006  0.2189 -0.2298  0.2768
 3671W        W19565  16.363   0.376   5.296 -0.0233 -0.0876  0.0726
 3672W        W19566   5.019  17.117  15.152  0.0056 -0.0622  0.0338
 3673W        W19567  11.379   2.461  12.855  0.2102  0.2077  0.0844
 3674W        W19568   3.450   6.170   2.634 -0.3508 -0.0080 -0.3372
 3675W        W19569  10.171   8.919   3.878 -0.3933  0.1504  0.1221
 3676W        W19570  17.870   4.687   3.573 -0.3199  0.0333 -0.0047
 3677W        W19571  12.844   3.773  11.429  0.1592  0.2349 -0.2483
 3678W        W19572   2.858  18.108   1.021  0.0267 -0.1187 -0.0585
 3679W        W19573  11.372   6.366   2.264  0.0139  0.1731  0.2336
 3680W        W19574   9.150  14.409   1.949 -0.2905  0.0441 -0.1758
 3681W        W19575   5.281   6.053   3.461 -0.1106  0.2330  0.0710
 3682W        W19576  15.397  15.181  11.726 -0.2011 -0.0036 -0.3178
 3683W        W19577   5.305  17.532  13.280  0.0895 -0.0149  0.2669
 3684W        W19578  11.817  10.079   4.213  0.0535  0.0487  0.3825
 3685W        W19579   1.784   0.111   1.432 -0.0754 -0.0268 -0.1052
 3686W        W19580   1.496   1.945   3.251 -0.1423 -0.1594 -0.0095
 3687W        W19581   2.138   4.167  13.755  0.5586 -0.0152  0.1396
 3688W        W19582   1.585  15.692   3.576 -0.2049  0.2042 -0.1234
 3689W        W19583   6.903  17.245  14.936  0.0650  0.1299 -0.0478
 3690W        W19584   2.584  13.944  12.977 -0.3002 -0.0063  0.1569
 3691W        W19585  15.513  15.025  14.220  0.2290  0.1694 -0.2705
 3692W        W19586   4.237   3.450   1.683  0.1833  0.0768 -0.0349
 3693W        W19587   5.005   8.801   4.259 -0.1954 -0.0065  0.0697
 3694W        W19588   0.647  13.831   9.978 -0.1489  0.1339  0.1472
 3695W        W19589   5.478  14.448  12.603 -0.0714  0.3080  0.4748
 3696W        W19590  16.781   7.554   2.156 -0.0081  0.0431 -0.2501
 3697W        W19591   9.500  18.151   0.694  0.0606 -0.2265 -0.0436
 3698W        W19592  18.412   5.308   3.071  0.2041  0.0082  0.2158
 3699W        W19593  10.983   6.754   3.074  0.1003  0.2984  0.0874
 3700W        W19594  11.054   2.360  11.152  0.3172  0.2769 -0.2032
 3701W        W19595  14.627  17.629  14.145  0.0431  0.0350  0.0269
 3702W        W19596   5.686   7.092   2.512  0.3107 -0.3527  0.2652
 3703W        W19597   7.353  17.660   2.529  0.3227  0.0084 -0.2743
 3704W        W19598   4.467   7.647   2.225 -0.1148  0.4002 -0.0056
 3705W        W19599  16.249   7.748  11.992  0.2760 -0.2071 -0.0984
 3706W        W19600   0.863   5.084   4.981 -0.0149  0.0260  0.1050
 3707W        W19601  10.110   8.265  11.860 -0.1355  0.1446  0.0824
 3708W        W19602  16.686  11.698  15.148 -0.1223  0.0401  0.2330
 3709W        W19603   2.531  12.995   0.374  0.1775 -0.1117  0.0381
 3710W        W19604   1.777   5.686  13.912  0.2025 -0.1609  0.0238
 3711W        W19605  11.961   3.883  11.809 -0.0505  0.0986 -0.4355
 3712W        W19606  13.149   4.739   0.244  0.1773  0.0602  0.3565
 3713W        W19607  17.930   9.406  12.653  0.1216 -0.1706  0.0773
 3714W        W19608  16.353   0.009   4.415 -0.0901  0.0792 -0.1314
 3715W        W19609  15.296  19.004   3.843 -0.0562  0.0618 -0.0826
 3716W        W19610  12.718   4.244   0.221 -0.0082 -0.1752 -0.3484
 3717W        W19611   3.158  14.976  13.900 -0.0579 -0.3019 -0.0182
 3718W        W19612   0.849  17.838  14.909  0.3706  0.0803  0.2219
 3719W        W19613  18.883  16.387   0.310 -0.1136 -0.1626  0.1360
 3720W        W19614   7.265   3.072   4.282 -0.1140 -0.1503  0.1502
 3721W        W19615   9.703   8.701  13.754  0.1042  0.5790  0.1890
 3722W        W19616   6.147  15.371   0.393  0.0854  0.1318  0.0269
 3723W        W19617   9.051  14.747   3.198  0.3575  0.1140  0.2904
 3724W        W19618   6.623  11.512  13.152  0.1932  0.2362  0.1150
 3725W        W19619   0.926   4.059  11.940  0.1071  0.2622 -0.0429
 3726W        W19620   0.659  17.389  12.196  0.0530 -0.2891  0.0125
 3727W        W19621   3.320   7.202   1.485  0.1422 -0.1559  0.2086
 3728W        W19622   3.212  11.951  13.663  0.0842 -0.0831 -0.1208
 3729W        W19623   5.034   2.389   9.616  0.1580  0.0285 -0.3337
 3730W        W19624   9.529  18.440  12.343 -0.2230 -0.3541 -0.2548
 3731W        W19625   2.988   0.834  15.180  0.0821 -0.3743  0.1195
 3732W        W19626  13.334   9.926   4.759  0.1782  0.1022  0.0007
 3733W        W19627  18.315  13.514   0.510  0.1871 -0.1097  0.2803
 3734W        W19628   2.342  12.017   4.540 -0.5243 -0.0158 -0.2062
 3735W        W19629  12.236   7.704  12.984 -0.0790  0.1760  0.1945
 3736W        W19630  12.328  15.706  12.138 -0.1293  0.1928  0.3118
 3737W        W19631   8.662   6.701   1.688  0.1434  0.0076  0.1707
 3738W        W19632  10.768  18.255  10.217 -0.0132 -0.0548 -0.0774
 3739W        W19633  15.861   6.629  11.754 -0.1292 -0.1641  0.3591
 3740W        W19634   8.995  13.243  14.411 -0.1610 -0.2177  0.2124
 3741W        W19635  14.383   4.683  14.054 -0.3251 -0.1789  0.1718
 3742W        W19636  15.007  12.109  14.763 -0.2673 -0.2607 -0.2387
 3743W        W19637  18.820   8.703   2.775  0.0142 -0.1521  0.2300
 3744W        W19638   2.509   3.105  10.879  0.1783  0.1346  0.1306
 3745W        W19639  16.923   9.958   2.900  0.0791 -0.3247 -0.0569
 3746W        W19640  11.306   2.405   5.288  0.0554 -0.1667  0.0319
 3747W        W19641  15.355  15.590   3.569 -0.3975 -0.2498  0.0962
 3748W        W19642   7.048  11.487  10.714 -0.0783 -0.2503 -0.1630
 3749W        W19643   7.370   1.584   3.330 -0.0145 -0.0877 -0.2196
 3750W        W19644  17.688  14.042   1.064  0.0145  0.0294  0.3804
 3751W        W19645   1.599   4.835  13.426 -0.4046 -0.1009  0.0517
 3752W        W19646  16.681   1.786  13.677  0.1471 -0.1976 -0.0394
 3753W        W19647  12.225  12.843  11.603 -0.1741 -0.3425 -0.2007
 3754W        W19648  12.119   2.772  11.120 -0.1302  0.1428 -0.0720
 3755W        W19649   5.692   6.069  14.835  0.0084  0.2246 -0.3578
 3756W        W19650   6.118  15.925   4.671  0.1070  0.2535  0.0357
 3757W        W19651  10.961   5.594  12.865  0.0100 -0.2869 -0.3920
 3758W        W19652   7.435   1.800   4.435 -0.1083  0.2380  0.2425
 3759W        W19653  14.410   7.640   1.867  0.1749  0.2191 -0.2039
 3760W        W19654   4.551  15.103  12.295  0.2443 -0.1988  0.2858
 3761W        W19655   3.528   0.553   2.794  0.1451  0.0655  0.0839
 3762W        W19656   9.979  13.810  13.075 -0.0802 -0.0661 -0.0619
 3763W        W19657  15.566   4.859   1.086 -0.1151  0.0988  0.0024
 3764W        W19658   9.636  10.279  11.919  0.1866 -0.1698 -0.1283
 3765W        W19659   5.755   0.349   4.649  0.0493  0.0244  0.0678
 3766W        W19660   1.639   5.851  12.099 -0.4212  0.0777 -0.0742
 3767W        W19661  11.113  16.097   0.755  0.1755  0.0015 -0.0708
 3768W        W19662  17.730   8.363  12.887  0.2472  0.3755 -0.2270
 3769W        W19663  15.152   1.420   3.089 -0.0791 -0.2057  0.0841
 3770W        W19664   8.831  10.688   2.609  0.0172  0.0455 -0.2491
 3771W        W19665   1.548  13.151  11.968  0.0548  0.2231 -0.1081
 3772W        W19666  11.618  18.832  13.769 -0.2016  0.2375  0.0115
 3773W        W19667  17.746   2.459  14.180 -0.0364  0.2579  0.2263
 3774W        W19668   7.649   3.459   3.339  0.0073 -0.0536 -0.0370
 3775W        W19669   9.399   5.027   5.009 -0.2567 -0.3180 -0.1862
 3776W        W19670  13.119  18.530   1.692  0.3456 -0.0367  0.2215
 3777W        W19671   7.342   5.057  10.666  0.0128 -0.0489 -0.0484
 3778W        W19672   9.979   0.062  14.479 -0.1664  0.1019 -0.1348
 3779W        W19673   8.936   6.026   2.883  0.1737 -0.1726 -0.1269
 3780W        W19674  12.907   4.371  11.476 -0.2371 -0.1317  0.0092
 3781W        W19675  14.460   3.115   0.680 -0.4432 -0.0875 -0.0908
 3782W        W19676   8.723   0.086  13.199 -0.0257  0.5658 -0.0338
 3783W        W19677  12.184  19.115  10.696 -0.2023 -0.5851 -0.1919
 3784W        W19678  15.275  18.352   3.981  0.0145  0.1739  0.1384
 3785W        W19679  15.688   5.363  11.324 -0.0866  0.1670  0.0770
 3786W        W19680  18.816   6.283  10.261  0.0582 -0.0865 -0.0770
 3787W        W19681  14.136  18.778   0.505 -0.0613 -0.2368 -0.1682
 3788W        W19682   4.446   7.860   4.511 -0.2835  0.0131 -0.1664
 3789W        W19683   0.231   9.967   5.468 -0.2978 -0.0674 -0.3216
 3790W        W19684   7.433  11.969  14.353  0.0952  0.0608  0.2190
 3791W        W19685  14.186  16.822  10.685 -0.1316  0.0742  0.0921
 3792W        W19686  18.027  15.259  13.948  0.1444  0.0895  0.0028
 3793W        W19687   4.304   6.629  13.733  0.4433  0.2302  0.0388
 3794W        W19688   7.273  18.944   0.192  0.1807 -0.2526 -0.0573
 3795W        W19689  12.321   6.197  10.402 -0.1104 -0.0433  0.2101
 3796W        W19690  19.103  16.990   3.946  0.2703 -0.1155  0.0005
 3797W        W19691   6.826   6.049   2.255  0.2768  0.1245 -0.1203
 3798W        W19692   2.522  14.897   0.006 -0.2203 -0.0385  0.2530
 3799W        W19693   9.897   7.719   2.337 -0.0749  0.2140  0.0351
 3800W        W19694  15.999   3.647  14.091  0.0074  0.5951 -0.1165
 3801W        W19695  15.874  17.375  13.404 -0.1628 -0.0203  0.0893
 3802W        W19696   1.711   7.367   1.327  0.2315 -0.2894  0.2659
 3803W        W19697   6.295  15.313   2.876  0.1270 -0.0328  0.3327
 3804W        W19698  16.702   1.131  11.560 -0.1899  0.0907 -0.0884
 3805W        W19699   7.803   5.759   2.477  0.0229 -0.0532  0.0413
 3806W        W19700  13.254   7.507   3.748 -0.1420 -0.1621  0.5666
 3807W        W19701  10.954   8.504  13.800 -0.1748 -0.0391 -0.1060
 3808W        W19702  15.373  10.072   1.376  0.0153  0.0851  0.0749
 3809W        W19703   6.800  17.471   0.580 -0.3584 -0.1088  0.3336
 3810W        W19704   7.751   8.859   2.291 -0.4535  0.0724 -0.3083
 3811W        W19705   3.701  15.766   0.230 -0.2914  0.0709 -0.1864
 3812W        W19706   5.511   9.062   3.037 -0.4399  0.0222 -0.0158
 3813W        W19707  17.071  17.345  14.276  0.4388  0.2724 -0.3131
 3814W        W19708  15.943   3.594   2.694 -0.0531 -0.1251 -0.0399
 3815W        W19709  12.683  14.364  12.071  0.2262  0.0825  0.0720
 3816W        W19710  12.163   6.642   2.831 -0.0188  0.0968  0.2480
 3817W        W19711   4.022   7.388   0.109 -0.2316 -0.1134  0.1269
 3818W        W19712   5.163  12.008  13.401  0.2030  0.3542 -0.3662
 3819W        W19713   1.216   7.749  12.349  0.1443  0.0053 -0.1559
 3820W        W19714  13.259   9.778   1.806 -0.0623 -0.0183  0.3534
 3821W        W19715  12.536   1.440  14.196  0.1579  0.0977 -0.0209
 3822W        W19716   7.082   8.769   0.175  0.0365  0.3967  0.1692
 3823W        W19717  17.427  17.679  13.183  0.0214  0.0597 -0.0442
 3824W        W19718  11.868   9.268   2.729  0.0538  0.0339 -0.0937
 3825W        W19719   2.069  17.255   0.609 -0.1912  0.1354  0.2180
 3826W        W19720  12.131  14.809   2.941 -0.0782  0.0560 -0.0902
 3827W        W19721   0.333  11.636   1.969  0.0576 -0.2852  0.0214
 3828W        W19722  12.011  18.676  10.490 -0.5290  0.0164 -0.0020
 3829W        W19723   9.116   4.574  13.571  0.0232  0.1733  0.4394
 3830W        W19724  12.776   7.692   2.141  0.1456 -0.1320  0.0129
 3831W        W19725  10.892  12.473   1.215  0.0174 -0.4174  0.1544
 3832W        W19726   1.453  10.242   3.721 -0.1067 -0.0227  0.2458
 3833W        W19727  19.043  12.768  13.723 -0.2632 -0.0943 -0.0527
 3834W        W19728  17.647   7.818  11.304 -0.0373  0.0666 -0.3711
 3835W        W19729   5.173   7.932  11.957 -0.1619 -0.1143  0.2730
 3836W        W19730   0.294   4.179  13.826 -0.0645 -0.0174 -0.0546
 3837W        W19731  17.396   4.544   2.124 -0.2327 -0.0348  0.3798
 3838W        W19732   9.050   9.617  12.114 -0.1361 -0.0649  0.3486
 3839W        W19733   9.335   1.809  14.012  0.2098  0.3360  0.0395
 3840W        W19734   8.087  14.616  12.202  0.1840 -0.0848  0.3615
 3841W        W19735   8.908  14.260   5.804 -0.1314  0.0641  0.0289
 3842W        W19736   7.986  10.359   2.769  0.0727  0.1254  0.0393
 3843W        W19737   8.288  18.195   2.631 -0.1127 -0.1753 -0.0902
 3844W        W19738   3.938  18.030  13.625  0.0146  0.0326  0.1275
 3845W        W19739   6.492  15.507  13.705  0.1653 -0.1330  0.1714
 3846W        W19740   9.648  16.438  10.802 -0.0540  0.2694  0.1925
 3847W        W19741  10.861  16.250  13.687 -0.0848 -0.0211  0.2087
 3848W        W19742  12.691  16.457  11.763 -0.0013  0.1490 -0.0942
 3849W        W19743  18.887  15.043  13.421  0.1334  0.1630  0.1898
 3850W        W19744  17.976   7.465  13.280 -0.3792 -0.0340 -0.0055
 3851W        W19745  15.262   7.954   1.129 -0.1612 -0.0113  0.1697
 3852W        W19746  14.805  17.707   1.700 -0.0200  0.1410  0.1701
 3853W        W19747   8.620   5.050   0.962 -0.2085 -0.2581 -0.1215
 3854W        W19748   1.468   3.871   3.159  0.0431  0.0976 -0.0231
 3855W        W19749   2.100   4.908  12.752  0.4660 -0.1839  0.3673
 3856W        W19750   8.270   2.950   2.952  0.1029 -0.3126  0.2990
 3857W        W19751  10.502   0.047   2.021 -0.1493 -0.0632  0.1725
 3858W        W19752  10.887  15.759  13.567  0.0177  0.3427  0.0893
 3859W        W19753  15.741   7.047  12.745 -0.2208  0.0643 -0.4398
 3860W        W19754  12.818   0.817   0.326  0.1061  0.5017  0.3497
 3861W        W19755  10.197  11.114   9.701  0.0834  0.0529  0.3679
 3862W        W19756   9.158  16.179   1.807  0.1805 -0.0339  0.0630
 3863W        W19757   5.349  19.187  11.134 -0.0457 -0.0685  0.1058
 3864W        W19758  17.886  15.002   1.368  0.2807 -0.0628  0.1760
 3865W        W19759  16.425  17.343   0.471  0.3804  0.1319 -0.1009
 3866W        W19760  11.325  12.140  13.877  0.1335 -0.1419  0.1007
 3867W        W19761  16.357   6.490  11.791 -0.0363 -0.0420  0.0743
 3868W        W19762   5.321  14.834  13.306 -0.2930 -0.0328  0.2001
 3869W        W19763  16.802   5.364   5.131  0.1408  0.1403  0.2321
 3870W        W19764  12.423   7.322  10.516  0.0630 -0.4910  0.4995
 3871W        W19765   3.633   5.967  14.228  0.0531 -0.1540  0.1391
 3872W        W19766   2.664  18.963  12.051  0.1504 -0.1119  0.0176
 3873W        W19767  10.163   1.237   4.353  0.2751  0.0449  0.1854
 3874W        W19768  17.559   5.311  14.620 -0.2042  0.1477  0.1620
 3875W        W19769  11.618   4.994   1.329 -0.1987  0.1486 -0.0050
 3876W        W19770   7.334   0.492   4.652 -0.2734 -0.3017 -0.0673
 3877W        W19771  14.221   5.687   5.450 -0.1555 -0.1306 -0.1737
 3878W        W19772  14.164   9.922  14.456  0.0948  0.2376 -0.3064
 3879W        W19773  15.249   0.279   3.632 -0.4518  0.2066 -0.2646
 3880W        W19774   1.761  10.851   0.271 -0.1177 -0.2950 -0.2694
 3881W        W19775   6.477   0.138   1.187 -0.1837 -0.3292  0.3891
 3882W        W19776   7.425   9.552  11.909  0.1580  0.0866 -0.0131
 3883W        W19777  14.278  16.294   1.393  0.0709 -0.0508 -0.1050
 3884W        W19778  13.413   1.376  12.802 -0.0687 -0.1558 -0.1849
 3885W        W19779  18.580   1.911   4.397  0.0958  0.0618 -0.2619
 3886W        W19780  13.752  12.284  13.511 -0.2154 -0.0444  0.0312
 3887W        W19781  14.949   7.143   2.767 -0.2844  0.0831 -0.0589
 3888W        W19782   6.236  11.606   1.240 -0.2201 -0.3873 -0.0307
 3889W        W19783  11.912  15.020  10.359  0.2089  0.1042  0.0308
 3890W        W19784   3.980  10.753   0.531 -0.0514 -0.3189 -0.0245
 3891W        W19785  11.478  10.502   1.473  0.1633 -0.2011  0.0039
 3892W        W19786  12.540   5.296   5.312 -0.1439 -0.2831 -0.0401
 3893W        W19787  10.808   7.376  10.792 -0.0465  0.0454 -0.0088
 3894W        W19788  16.233  10.223  13.917  0.1221 -0.3626 -0.0234
 3895W        W19789  14.942  15.198   1.499  0.1638  0.2884  0.1232
 3896W        W19790   8.274  15.033   1.543 -0.2742  0.0464  0.0074
 3897W        W19791   1.546  14.327   2.369  0.2282 -0.0411 -0.1852
 3898W        W19792   8.428   1.509  13.767 -0.2351 -0.2241 -0.2533
 3899W        W19793  15.158   7.419   5.953  0.0957  0.2968 -0.4865
 3900W        W19794   6.467   7.552   1.560  0.0193  0.1636 -0.1421
 3901W        W19795   4.314   1.869   5.149  0.2064 -0.0021  0.0977
 3902W        W19796   1.272  16.047  13.916  0.2337  0.1156  0.2771
 3903W        W19797  10.737   5.141  13.783  0.1098  0.4117 -0.0517
 3904W        W19798   3.226   7.381  12.222  0.2219  0.0495  0.1312
 3905W        W19799  11.359   8.404  11.883 -0.1992  0.0389  0.0779
 3906W        W19800  17.970   5.908  14.293 -0.3472  0.0317 -0.1787
 3907W        W19801  17.765  14.514   4.543 -0.1848 -0.1156  0.2546
 3908W        W19802  10.558   8.314  13.442  0.2799 -0.0730 -0.2189
 3909W        W19803   9.662   7.428  10.357 -0.2315  0.0622 -0.0795
 3910W        W19804   9.356   3.192   2.300 -0.0998 -0.1245 -0.3024
 3911W        W19805  13.949   6.628  11.407  0.0355 -0.0837  0.2484
 3912W        W19806   1.782   2.173   2.910 -0.0647  0.0963 -0.3257
 3913W        W19807   0.249  11.353  11.308 -0.0390 -0.2632  0.1784
 3914W        W19808  16.526  18.964  15.184 -0.2026 -0.0796  0.5631
 3915W        W19809  14.109  11.328   4.504  0.0071  0.3736  0.1634
 3916W        W19810  11.299   8.972  13.625  0.1455 -0.1291 -0.1437
 3917W        W19811  14.017  19.103   0.890 -0.1438  0.0088 -0.0008
 3918W        W19812  16.570  11.577  13.136  0.0922 -0.1511 -0.2148
 3919W        W19813   5.631  12.713  12.318 -0.1579  0.0072 -0.0064
 3920W        W19814  11.380  16.765  14.354  0.0398 -0.0206 -0.0426
 3921W        W19815  10.388   9.711   1.215  0.2879  0.0192 -0.1445
 3922W        W19816  15.664  17.557  10.734  0.0459 -0.4991 -0.1671
 3923W        W19817  16.573   0.317   0.092  0.0168 -0.0941 -0.1461
 3924W        W19818   7.682  18.912  12.845  0.4513 -0.0898 -0.1650
 3925W        W19819   3.785   5.053  14.113 -0.1667 -0.0377 -0.1944
 3926W        W19820   1.763  15.650   4.816  0.1975  0.1578  0.0966
 3927W        W19821   0.555   4.903  11.631  0.3476  0.0861  0.1423
 3928W        W19822   9.022  11.167  13.629 -0.1416 -0.4764 -0.1568
 3929W        W19823   6.090   8.730   1.650  0.1962 -0.0447  0.1407
 3930W        W19824  11.453   5.408  11.122 -0.2604  0.0521 -0.2398
 3931W        W19825  11.605   0.454  12.322  0.1696 -0.0240 -0.0174
 3932W        W19826   3.261   1.661   0.907 -0.0316  0.2916  0.0836
 3933W        W19827  15.456   7.812   2.228  0.1669 -0.2085 -0.1141
 3934W        W19828   2.051  13.758  10.841 -0.1306  0.1553  0.2858
 3935W        W19829  16.772   9.477   1.866 -0.0233 -0.0480  0.2395
 3936W        W19830   7.241  17.435  10.041  0.0002 -0.1843 -0.0444
 3937W        W19831  10.315  17.425   1.679  0.2436 -0.1288  0.0902
 3938W        W19832   0.697   7.029   1.553 -0.1115 -0.2251  0.1925
 3939W        W19833  10.928   0.394  12.444  0.0602  0.2182 -0.1366
 3940W        W19834  13.463  18.883  14.517  0.1918  0.0460 -0.3278
 3941W        W19835   4.550  16.733   0.867  0.0629 -0.3015 -0.0460
 3942W        W19836  11.000   5.712   5.434 -0.0462  0.0176 -0.0133
 3943W        W19837  16.884  18.234  13.713 -0.0839 -0.0609 -0.1838
 3944W        W19838   2.669   7.452   0.636 -0.2439  0.3109  0.2572
 3945W        W19839   1.059   4.025   3.804 -0.0179 -0.1485 -0.3900
 3946W        W19840   2.160  12.957  10.554 -0.0003  0.0384  0.0607
 3947W        W19841   5.377   4.301   0.228 -0.1658 -0.1406  0.0394
 3948W        W19842   8.295   5.923  14.943 -0.1026  0.3349  0.2842
 3949W        W19843  17.900   5.441  14.225 -0.1239  0.2902 -0.0066
 3950W        W19844   1.822  14.415   3.618 -0.2401 -0.2113 -0.1186
 3951W        W19845   5.809   2.421  15.066 -0.0321 -0.1358  0.1012
 3952W        W19846  17.066  17.174   3.833  0.2534  0.1474  0.1468
 3953W        W19847   1.741   0.950   4.156  0.1496 -0.1272 -0.1886
 3954W        W19848  15.068   6.753  13.861  0.3371 -0.1476  0.1943
 3955W        W19849   5.924   8.277   3.803  0.0747  0.2675 -0.2435
 3956W        W19850   1.717  11.427   4.927 -0.1449 -0.0932 -0.1767
 3957W        W19851  14.261   5.447   2.207 -0.0712 -0.1047 -0.0453
 3958W        W19852  16.262   6.805  14.083 -0.1755 -0.2107 -0.2075
 3959W        W19853   0.442   4.124  14.807  0.2322  0.0746 -0.0397
 3960W        W19854   3.209  16.057  11.848 -0.2636 -0.0640 -0.1055
 3961W        W19855   6.951  13.668   4.889  0.3762 -0.3743 -0.1707
 3962W        W19856  10.300   9.062   2.066 -0.1295  0.0106 -0.2332
 3963W        W19857   3.011  16.405  13.655 -0.3249  0.0324  0.0364
 3964W        W19858   8.273   5.176  10.667 -0.1856  0.3728 -0.2443
 3965W        W19859   6.695   7.702   0.300  0.0933 -0.1423 -0.1841
 3966W        W19860   2.371   8.579  12.773  0.0098 -0.1351 -0.2144
 3967W        W19861  17.157   2.913   4.524  0.4321 -0.2166  0.1351
 3968W        W19862   8.216   6.489   4.201 -0.2533 -0.0000  0.0066
 3969W        W19863   3.987  18.427   0.451 -0.6045  0.0210 -0.0701
 3970W        W19864   0.715   0.276   1.609 -0.2556 -0.1431 -0.0461
 3971W        W19865   2.535   0.649  10.473  0.3353  0.1949  0.1162
 3972W        W19866  16.168   0.332   3.648 -0.4558 -0.2229  0.2044
 3973W        W19867   4.508   3.807   2.051  0.0168  0.1484  0.3206
 3974W        W19868   0.522   0.365  13.757  0.0423  0.0017  0.4710
 3975W        W19869  14.407   8.941   5.321  0.0202  0.0162  0.0977
 3976W        W19870   4.846   6.956  12.013  0.0328 -0.0565  0.1807
 3977W        W19871  17.986  10.446  13.284  0.2989 -0.3869 -0.1666
 3978W        W19872  18.934  18.279  14.603  0.0501  0.0895  0.0454
 3979W        W19873   4.802  11.086  10.424 -0.3139  0.0562  0.2450
 3980W        W19874   4.272  16.305   1.946  0.0755 -0.5300  0.0686
 3981W        W19875   6.067  12.945  14.069  0.2911 -0.1833 -0.0826
 3982W        W19876  12.311  14.611  14.686  0.1159  0.1522  0.2170
 3983W        W19877  15.462   9.389   0.627 -0.1665 -0.1908  0.0089
 3984W        W19878  18.907  10.590  13.205  0.2431  0.0254 -0.3135
 3985W        W19879  13.067   1.295   2.061 -0.0291 -0.2296 -0.2460
 3986W        W19880   8.933  12.184  11.548  0.0667 -0.0554  0.0609
 3987W        W19881  12.893   2.472   0.736  0.0621  0.0280  0.2623
 3988W        W19882  11.909  12.641  10.757 -0.0457 -0.0911  0.0857
 3989W        W19883  13.654   6.878  12.697 -0.1210 -0.0100 -0.1992
 3990W        W19884   8.874   5.430   3.107  0.0053 -0.0480 -0.0543
 3991W        W19885   2.370  13.474   3.886 -0.0736  0.0020  0.0712
 3992W        W19886   7.977  12.188   3.435  0.2865  0.0869 -0.1084
 3993W        W19887  18.020   9.935   2.053  0.1525  0.2819  0.1124
 3994W        W19888   5.634  15.896  12.176 -0.0222 -0.3254  0.1345
 3995W        W19889  13.473  10.229   0.858 -0.1352 -0.1198 -0.0525
 3996W        W19890  17.117  14.408  10.256 -0.3501 -0.1459 -0.0625
 3997W        W19891  12.657   6.939  13.394 -0.1207 -0.3443  0.0434
 3998W        W19892   6.162  18.491  13.694 -0.0818 -0.1338  0.4776
 3999W        W19893   4.060   6.033   3.780  0.1172  0.1178  0.0264
 4000W        W19894  11.024  13.510   4.177  0.0094  0.2561 -0.1027
 4001W        W19895  16.068  10.063   0.640  0.2279  0.2299 -0.2450
 4002W        W19896   7.923  14.985   2.290  0.3683 -0.0751 -0.2108
 4003W        W19897   2.226  12.678   2.740  0.1100 -0.2256 -0.2638
 4004W        W19898  15.237   4.323   2.736  0.1145 -0.1604  0.2351
 4005W        W19899   0.974   5.920   3.391  0.0754  0.0219 -0.0097
 4006W        W19900  14.678   8.520  13.675 -0.1262  0.1290  0.0284
 4007W        W19901   7.941  14.859   4.422  0.3068 -0.4290 -0.0530
 4008W        W19902   7.948  16.699   0.395 -0.7302 -0.4426 -0.0883
 4009W        W19903  16.836   3.650   2.565 -0.1645  0.4017  0.2697
 4010W        W19904   3.044  10.934   2.012  0.0135 -0.0209 -0.0474
 4011W        W19905   9.510  18.698   3.791 -0.1083 -0.1739 -0.2153
 4012W        W19906  19.071  15.012   1.420  0.2277 -0.1384 -0.0101
 4013W        W19907   6.513   5.269  15.156  0.5232 -0.4830  0.0708
 4014W        W19908   6.466   3.390   0.949  0.1165 -0.2113 -0.1916
 4015W        W19909   4.237  13.307   2.945 -0.0361 -0.2689 -0.1058
 4016W        W19910   9.736   0.865  14.930 -0.3636 -0.0392  0.1306
 4017W        W19911   9.444  13.502  10.448 -0.1451  0.1345 -0.2726
 4018W        W19912   9.776  16.025   3.777  0.0640 -0.0784 -0.0435
 4019W        W19913  14.947   6.156   3.879 -0.1629  0.1616 -0.0424
 4020W        W19914   7.821   4.908   3.477  0.1129 -0.0754  0.1484
 4021W        W19915  14.613  10.813  12.324 -0.0895  0.2320  0.3104
 4022W        W19916  16.775   4.348   5.283  0.1523 -0.1350 -0.0399
 4023W        W19917  18.173  16.816  10.116 -0.2798 -0.0473 -0.0012
 4024W        W19918  11.956   3.998   2.787  0.1004  0.0277 -0.1226
 4025W        W19919   6.170  12.839   0.987  0.0437 -0.5149 -0.0064
 4026W        W19920  13.350  16.249   2.860  0.0291  0.0625 -0.1901
 4027W        W19921   9.373  10.070   4.573 -0.3884  0.0009 -0.2343
 4028W        W19922   5.116  19.099  14.741  0.0440 -0.1262  0.2045
 4029W        W19923  14.787   9.706  13.148  0.5373 -0.4250  0.1654
 4030W        W19924   5.097   1.676  12.425  0.0806  0.2598 -0.0765
 4031W        W19925   2.144   3.503   2.703  0.0923 -0.1250 -0.1925
 4032W        W19926  19.151   9.252  11.602  0.0698 -0.1073 -0.0244
 4033W        W19927   1.300   3.139   0.650 -0.3057  0.0388  0.1105
 4034W        W19928   0.839   1.024  12.868 -0.3038 -0.1803  0.2455
 4035W        W19929  15.907   3.001  14.890  0.1589  0.0859  0.2526
 4036W        W19930   4.382   3.880  13.051  0.2554  0.2270  0.1418
 4037W        W19931  16.004  12.994   0.294 -0.0022 -0.0467  0.3707
 4038W        W19932  16.047  15.433   1.039  0.1538  0.1784 -0.0230
 4039W        W19933  18.067   0.041   4.791 -0.1061 -0.0228  0.3144
 4040W        W19934   6.958  17.349  12.747  0.1285  0.3774 -0.0618
 4041W        W19935   8.107  16.882  10.143 -0.3582  0.0216  0.1430
 4042W        W19936   2.159  12.428  12.799  0.0467 -0.1466  0.1638
 4043W        W19937   2.286   5.804  13.889  0.1649  0.0903 -0.1879
 4044W        W19938   8.371  12.616   4.348 -0.0358 -0.1483 -0.1146
 4045W        W19939   5.875  13.650  14.620 -0.1296  0.0312  0.0144
 4046W        W19940   2.447   3.024   1.266  0.0924  0.2664  0.2466
 4047W        W19941   7.551   7.664   3.751 -0.0308  0.0791  0.3413
 4048W        W19942   4.727   4.275  10.211  0.0567 -0.2061  0.0331
 4049W        W19943   4.221   6.005  10.795  0.0968 -0.0063  0.0827
 4050W        W19944   2.063   4.111  10.439  0.4247  0.3228  0.2293
 4051W        W19945   6.923  16.007   2.045  0.0620 -0.4547 -0.3675
 4052W        W19946   4.228  10.168  14.239 -0.0047  0.2322  0.0391
 4053W        W19947   6.690   4.992   1.883 -0.0812 -0.1494 -0.2521
 4054W        W19948  14.275   7.025  11.408  0.1376  0.0610 -0.0487
 4055W        W19949  17.825   5.021   0.460 -0.0317  0.1444 -0.4082
 4056W        W19950   5.548  18.216   4.434  0.0207 -0.1378 -0.3805
 4057W        W19951  12.635   7.712  14.414 -0.0397  0.1334 -0.1287
 4058W        W19952  17.141  15.020  12.923 -0.1323  0.2887 -0.0017
 4059W        W19953  12.386  18.042   2.997 -0.2270 -0.2939 -0.1316
 4060W        W19954   3.268  11.485   3.242  0.0099 -0.0296  0.2122
 4061W        W19955  17.086   8.532   1.618  0.2101  0.1670  0.0251
 4062W        W19956   6.796   8.252  11.231  0.1872 -0.3717 -0.0924
 4063W        W19957  15.570  12.696   0.111 -0.1335 -0.2847  0.0051
 4064W        W19958   2.100  16.232  14.855  0.0850  0.2214 -0.0774
 4065W        W19959  14.125   9.777   4.850  0.0903 -0.0462  0.0791
 4066W        W19960  12.419  13.719  11.458  0.4279  0.1903  0.0485
 4067W        W19961   7.892  16.403  12.345  0.2793  0.1993 -0.2902
 4068W        W19962  18.097  13.248  13.015  0.0119  0.5109  0.0419
 4069W        W19963  13.880  18.949  14.804 -0.4049 -0.1082  0.1030
 4070W        W19964   9.189  18.073   2.125  0.3634 -0.0429 -0.0414
 4071W        W19965   9.460  14.352   2.921  0.1514  0.1136  0.1140
 4072W        W19966  13.102  14.409  11.794 -0.3164  0.3355 -0.0887
 4073W        W19967  14.039   6.967   4.151 -0.4144  0.0391 -0.0535
 4074W        W19968   4.468  13.554   0.899 -0.0562 -0.4067 -0.3574
 4075W        W19969   2.570  16.161   2.362 -0.0707  0.1567 -0.2186
 4076W        W19970  18.273  10.945   1.515 -0.1137  0.4189  0.0035
 4077W        W19971  12.736   6.689   0.259 -0.0291 -0.0469 -0.2328
 4078W        W19972  19.065   1.189   1.634  0.0849 -0.0683  0.0048
 4079W        W19973   3.360   3.963  12.125 -0.2269  0.1056  0.1041
 4080W        W19974  11.927   8.055   5.084 -0.2045  0.2161 -0.1556
 4081W        W19975   6.768   6.594  14.478 -0.2634 -0.0248 -0.3372
 4082W        W19976   7.637   2.416   4.928  0.1438 -0.0067  0.2722
 4083W        W19977  14.839  16.432   1.569  0.1693  0.1811 -0.1176
 4084W        W19978  16.181   2.441   0.374 -0.0707  0.1686 -0.4243
 4085W        W19979  17.397   3.353  10.763 -0.0797 -0.2291 -0.0057
 4086W        W19980   0.766  10.784  12.092  0.1007 -0.1488  0.3225
 4087W        W19981  10.656   2.544  13.311 -0.4446  0.3967  0.1547
 4088W        W19982  18.894  13.957  11.082 -0.3081 -0.0598  0.0657
 4089W        W19983   0.253  14.820   5.062  0.2271 -0.1615 -0.4619
 4090W        W19984  18.373   1.334   2.265 -0.0110  0.5415 -0.0911
 4091W        W19985  12.836   9.598  12.391  0.0454 -0.0313  0.4466
 4092W        W19986  15.686   4.367   5.230  0.0101  0.1209 -0.2769
 4093W        W19987   0.212  13.679  14.099  0.0870 -0.1443 -0.0284
 4094W        W19988  15.302   7.900  12.695 -0.2954 -0.1942  0.3036
 4095W        W19989   2.569   5.781   0.863  0.0943  0.2989  0.0343
 4096W        W19990   9.010   4.617  14.836  0.2569  0.2957 -0.4515
 4097W        W19991   7.108  19.064   2.664  0.1667 -0.3323  0.2800
 4098W        W19992  15.267   6.904   0.262  0.3100 -0.2259 -0.0038
 4099W        W19993   3.367  18.048  11.323  0.0006  0.3360 -0.1409
 4100W        W19994   1.924   2.143   3.447 -0.0062  0.0377  0.3393
 4101W        W19995  11.904  16.678   2.253  0.0723  0.4492  0.3559
 4102W        W19996   1.911   4.659  11.483  0.1444 -0.4304  0.0624
 4103W        W19997   4.004   6.823   2.015  0.3169  0.1871  0.2252
 4104W        W19998   2.908  18.599   4.887 -0.1525 -0.0362 -0.0411
 4105W        W19999   7.573   5.368   9.592  0.2088  0.2125  0.1980
 4106W        W20000  15.972   4.946   9.997 -0.0718 -0.1900  0.2799
 4107W        W20001   3.562   5.394   4.366  0.1160  0.3978  0.3779
 4108W        W20002  13.939   8.376  13.838 -0.0007 -0.4017  0.2839
 4109W        W20003   9.978   0.104  11.298 -0.0518 -0.3316  0.1786
 4110W        W20004   0.661   6.577   1.691 -0.0428 -0.0553 -0.1074
 4111W        W20005   2.755   6.995  11.910 -0.0765 -0.2464 -0.0354
 4112W        W20006   4.042   8.054   4.908 -0.2798 -0.1285 -0.2319
 4113W        W20007  19.126   1.719   2.841 -0.0683 -0.1439  0.1729
 4114W        W20008   3.754   1.602  14.017  0.0563  0.2365  0.1289
 4115W        W20009   3.853   8.290   1.009 -0.1772 -0.0204  0.2327
 4116W        W20010  18.225   0.203   5.857  0.0220  0.1453 -0.2672
 4117W        W20011  13.380  14.987   4.578  0.1405  0.4234 -0.0409
 4118W        W20012   0.834  15.600   2.055  0.2146 -0.0930  0.1342
 4119W        W20013   8.215  14.458   2.972  0.2410  0.7007 -0.0676
 4120W        W20014   0.268   6.226  13.033  0.2394 -0.0527 -0.2110
 4121W        W20015   7.568   6.151  10.003 -0.0271 -0.2161 -0.0962
 4122W        W20016  17.943   5.918  13.154  0.0292 -0.2349 -0.0554
 4123W        W20017  16.384  18.031  13.576  0.0831  0.0376 -0.1845
 4124W        W20018   4.514   4.353  12.872 -0.0439  0.1455 -0.1601
 4125W        W20019   7.353  15.641   9.004 -0.0094 -0.1333 -0.0801
 4126W        W20020   2.087   5.287  15.142  0.2533 -0.0044  0.2340
 4127W        W20021  17.399   6.838   1.941  0.0875 -0.0063 -0.2252
 4128W        W20022  10.660   7.668   5.464 -0.1352  0.2941 -0.0506
 4129W        W20023   1.395  10.438  11.586  0.0568 -0.0298 -0.0619
 4130W        W20024   1.112  14.841   1.486  0.2271  0.2190 -0.0447
 4131W        W20025  14.690   0.238   2.481 -0.0841  0.1777 -0.1101
 4132W        W20026  16.433   3.614  14.316 -0.1231 -0.1549 -0.2503
 4133W        W20027   7.552   2.981   4.745  0.1065 -0.2090 -0.0378
 4134W        W20028   9.074  15.117   3.582 -0.0764  0.4519 -0.2654
 4135W        W20029   9.521  11.248  10.390  0.2824  0.1970  0.3492
 4136W        W20030  18.113  12.482   4.959 -0.2933 -0.1961 -0.2197
 4137W        W20031  12.451   6.064  12.976  0.0047 -0.1182 -0.1373
 4138W        W20032   0.352  13.884   4.794  0.1611  0.0038 -0.1409
 4139W        W20033   3.655  13.419  12.441 -0.2218  0.0654  0.1747
 4140W        W20034   0.383  11.830  15.099 -0.1421  0.1592  0.1462
 4141W        W20035  12.386  17.139  14.044 -0.1009  0.3513  0.3544
 4142W        W20036   2.794   4.127  12.158 -0.3091  0.0722 -0.1076
 4143W        W20037  17.450   9.789   2.782 -0.0201 -0.0522 -0.2420
 4144W        W20038  16.487  18.018   1.535 -0.0341  0.3066 -0.2597
 4145W        W20039  14.575   3.371   5.518 -0.0104 -0.0261  0.1449
 4146W        W20040   8.806  16.768   2.326  0.0430 -0.0703 -0.1266
 4147W        W20041   6.991   9.745  13.048  0.0463  0.2460  0.0013
 4148W        W20042   4.381  11.501   0.119  0.0259  0.2154  0.0661
 4149W        W20043   4.702   2.211   2.443 -0.1013  0.1912 -0.0410
 4150W        W20044   1.585  18.407   3.493  0.2501 -0.0349  0.1195
 4151W        W20045   8.526  18.044   1.771  0.1015  0.1088  0.0166
 4152W        W20046   0.098   9.691  10.650  0.0879  0.2141 -0.0064
 4153W        W20047   8.639  11.426   2.878 -0.0897  0.0091  0.1308
 4154W        W20048   1.954   3.303   1.369 -0.1775  0.1449  0.0819
 4155W        W20049  18.397   6.767   0.352 -0.0467 -0.0639  0.0846
 4156W        W20050  15.925  10.451  12.776  0.0820 -0.3676  0.3827
 4157W        W20051  15.181   2.225   1.672 -0.1137  0.4078 -0.0618
 4158W        W20052  17.369  18.016  14.852  0.0114  0.0205 -0.0886
 4159W        W20053  15.519  11.333   0.741 -0.0181 -0.2398  0.3855
 4160W        W20054  14.664   2.952   5.078 -0.1159  0.2528 -0.0329
 4161W        W20055   4.605   7.287  10.324 -0.2038  0.1661  0.2880
 4162W        W20056  11.792  17.317  14.222  0.2723 -0.0148 -0.0598
 4163W        W20057  14.766   3.985   2.651 -0.0179  0.1522  0.1502
 4164W        W20058  15.760   0.946   4.791  0.2338  0.0370  0.2621
 4165W        W20059  10.368  10.827  15.075 -0.4406 -0.0342 -0.1608
 4166W        W20060  13.655   3.283   3.399 -0.3563  0.5023  0.1029
 4167W        W20061   7.585   3.560   2.751  0.3903 -0.0409  0.0287
 4168W        W20062  13.747  17.676   2.400 -0.0037  0.2403  0.0813
 4169W        W20063  17.754  11.636  11.251  0.3891  0.2384  0.0881
 4170W        W20064   3.019  18.468   3.118  0.1019 -0.1685  0.0766
 4171W        W20065   3.062   7.981  13.295  0.0814 -0.1399 -0.1902
 4172W        W20066   1.490   0.445  14.049 -0.2135  0.1263 -0.0860
 4173W        W20067  11.189  15.903   2.110 -0.2376 -0.1897  0.1370
 4174W        W20068   5.831   9.595   3.838 -0.1940 -0.0253 -0.0519
 4175W        W20069   0.057  15.392  14.058 -0.2172 -0.1416  0.0545
 4176W        W20070  12.979   1.730  14.181 -0.1393 -0.3116  0.1651
 4177W        W20071   0.600   1.539  12.859 -0.1691  0.2367 -0.1720
 4178W        W20072   5.249  12.421  11.960 -0.0542 -0.0310  0.0738
 4179W        W20073   1.045  12.875   4.371 -0.1350 -0.2090  0.2995
 4180W        W20074  14.561  16.105  11.362 -0.1118 -0.3757  0.0291
 4181W        W20075   0.785   9.945  13.947  0.4261 -0.1230  0.0580
 4182W        W20076  14.441   1.256   2.258 -0.2927  0.1138  0.0495
 4183W        W20077  18.590  18.982   2.793  0.1992 -0.0749  0.1663
 4184W        W20078  17.085   4.240  11.037  0.0313 -0.1231 -0.1797
 4185W        W20079  12.311  12.386  11.639 -0.0888 -0.3029  0.0158
 4186W        W20080  15.690   1.144   5.285 -0.2343  0.2814 -0.4943
 4187W        W20081  16.099   3.763   3.975 -0.0741 -0.1454  0.0276
 4188W        W20082   2.206   1.182   1.835 -0.0777  0.0107 -0.0679
 4189W        W20083  18.745  17.206   2.422  0.1476  0.3078 -0.0191
 4190W        W20084  10.204   7.655  13.225  0.0537  0.2170 -0.0289
 4191W        W20085   6.833  15.080   5.089  0.0486 -0.2938 -0.0692
 4192W        W20086  15.583  16.618  15.073  0.4200 -0.0917 -0.1981
 4193W        W20087  15.955  18.302  12.845 -0.0663 -0.0105  0.4008
 4194W        W20088  17.428   2.244   2.144 -0.2376 -0.0757  0.1187
 4195W        W20089   5.448  10.345   4.967 -0.0393  0.0254 -0.2751
 4196W        W20090   1.105  12.701  14.211  0.3127  0.0620  0.2648
 4197W        W20091   6.276  18.104   9.772  0.1342  0.0621  0.0618
 4198W        W20092  14.209   5.192  10.962 -0.4650 -0.0841 -0.0439
 4199W        W20093  13.161   8.241  13.721  0.0604  0.1906 -0.1801
 4200W        W20094   3.688  12.600  10.587 -0.1610  0.3735  0.0741
 4201W        W20095  13.866   3.526   1.998  0.1937 -0.1661  0.3460
 4202W        W20096  10.384   3.499  13.711 -0.1078 -0.0706  0.3433
 4203W        W20097  13.452   1.890  11.918  0.2499  0.0549 -0.2988
 4204W        W20098  17.975  11.642  12.298 -0.0974 -0.2139  0.0239
 4205W        W20099   3.119   2.684   3.483  0.2465 -0.2115  0.0527
 4206W        W20100   1.169  15.416   3.663 -0.0436  0.0235 -0.1139
 4207W        W20101  11.471   9.333   5.744  0.1675 -0.3077 -0.1909
 4208W        W20102  12.368   0.251  12.814 -0.1820 -0.1766  0.1599
 4209W        W20103   1.247   4.264   1.798  0.0535  0.1116 -0.0293
 4210W        W20104   5.835  14.398  15.046  0.0666 -0.0930  0.0331
 4211W        W20105   8.119  12.245  12.402 -0.2771 -0.0851  0.1704
 4212W        W20106  10.482  14.385   1.177  0.1561  0.0173  0.0345
 4213W        W20107   5.036   2.777  14.386 -0.1488  0.0482 -0.1841
 4214W        W20108   7.783   4.460   3.255 -0.1155  0.1346  0.2016
 4215W        W20109   0.916  12.656   1.219 -0.3146  0.1136 -0.0397
 4216W        W20110   2.875   8.103  11.718  0.0543 -0.0833 -0.0305
 4217W        W20111  15.219   7.013   0.937  0.2032  0.2147  0.1843
 4218W        W20112  19.050   2.692   3.315  0.3174  0.0686 -0.2630
 4219W        W20113  11.063  15.137  10.454 -0.2285 -0.0463  0.0579
 4220W        W20114   4.787   7.960  14.329  0.3829 -0.1249 -0.2891
 4221W        W20115   2.607   2.310   4.756 -0.1098 -0.0532  0.2891
 4222W        W20116   6.132   4.312   0.900  0.1907 -0.0603  0.4889
 4223W        W20117   5.450  13.767  12.534 -0.0144 -0.1287 -0.0092
 4224W        W20118  14.950  17.483   3.581  0.4055  0.1149  0.2102
 4225W        W20119   7.885  18.889  10.330 -0.2146  0.1594  0.0155
 4226W        W20120  16.887   8.351  13.735 -0.0262  0.3171  0.2233
 4227W        W20121  15.305  15.918   2.104 -0.2434 -0.0263  0.0463
 4228W        W20122  13.863   0.329  12.650  0.3026  0.2655 -0.1142
 4229W        W20123  11.022   0.587  14.042 -0.2963 -0.0075 -0.0035
 4230W        W20124  12.388  14.893   4.300 -0.1374  0.3661 -0.0442
 4231W        W20125   9.418  14.459   1.130 -0.1656  0.0682 -0.1043
 4232W        W20126  11.335  11.524  13.233  0.0386  0.1758 -0.1364
 4233W        W20127   6.884   7.212   3.799  0.2854  0.1694 -0.0692
 4234W        W20128  11.640   0.275   3.136 -0.2681  0.2266  0.1143
 4235W        W20129   0.314   3.452   3.169 -0.2853 -0.3504 -0.0721
 4236W        W20130  18.487   9.925   1.849 -0.1123  0.2405  0.1393
 4237W        W20131  17.266  15.508  12.338 -0.0961 -0.1555  0.0287
 4238W        W20132   4.055  18.269   2.536  0.1626  0.0781 -0.0620
 4239W        W20133   4.109   4.626  10.673 -0.0669 -0.0184 -0.0662
 4240W        W20134   0.034   0.565  14.111 -0.0471 -0.1396  0.0455
 4241W        W20135  11.367   6.178   3.022  0.0991  0.2624 -0.2017
 4242W        W20136  11.120  12.345   4.375 -0.0160 -0.1252  0.1316
 4243W        W20137  11.145  14.966   1.002 -0.1629  0.1717 -0.0761
 4244W        W20138  17.039  17.765   1.786 -0.2811  0.1804 -0.0705
 4245W        W20139  17.272  16.126   5.114  0.0512  0.1329  0.0080
 4246W        W20140   6.999  10.356  11.440 -0.3397  0.1695  0.1980
 4247W        W20141   6.452   5.925   0.838  0.2489 -0.2049 -0.1318
 4248W        W20142  18.887  18.927   0.206 -0.0485 -0.0167  0.0013
 4249W        W20143  18.569   4.563  14.186  0.0406 -0.1681  0.2528
 4250W        W20144  18.807  11.605  12.804 -0.0250 -0.3439 -0.2570
 4251W        W20145  16.427  14.040  14.277  0.0374  0.3389  0.4150
 4252W        W20146  13.256  14.041  13.629 -0.0845 -0.3548  0.0058
 4253W        W20147  18.295   1.558   4.300 -0.1192  0.1915 -0.2840
 4254W        W20148  13.987   0.310  14.554  0.3496  0.1206 -0.0721
 4255W        W20149  15.124   3.903   4.606 -0.0607 -0.1114  0.1649
 4256W        W20150   3.085   2.368   1.269  0.1539 -0.0649  0.1326
 4257W        W20151   0.900  10.394  15.183  0.0492 -0.3321 -0.0318
 4258W        W20152  12.546   6.002  12.020 -0.1521  0.6051 -0.0486
 4259W        W20153   3.577   0.256   1.002  0.1799  0.0441  0.1631
 4260W        W20154   6.401  10.676   4.559  0.1482 -0.2099  0.2709
 4261W        W20155  13.414   2.066   1.908  0.3942  0.0399  0.0398
 4262W        W20156   7.431  15.323   1.865  0.0332 -0.1752  0.2700
 4263W        W20157  11.611   3.818  12.952  0.0361 -0.2614 -0.4330
 4264W        W20158  15.011  12.947   0.067 -0.0025 -0.0333 -0.0016
 4265W        W20159  10.088   9.812   2.534 -0.1799  0.3271  0.3170
 4266W        W20160  16.432  12.923   5.331 -0.2575 -0.2164  0.0015
 4267W        W20161  18.834   5.580  12.564  0.0747 -0.0890 -0.1724
 4268W        W20162   6.819   5.922  12.392  0.1119  0.1596 -0.1603
 4269W        W20163  10.407   1.372  11.383 -0.0469  0.1616 -0.0412
 4270W        W20164  19.063  17.365   0.979  0.1935 -0.3591 -0.1711
 4271W        W20165  11.299  12.765  12.473 -0.2746 -0.0673  0.1140
 4272W        W20166   4.000   0.642   2.584  0.0935  0.0206 -0.2402
 4273W        W20167   3.243  14.816  12.752  0.0335  0.2489  0.0545
 4274W        W20168   8.232   1.949   5.450  0.2197  0.0115  0.2354
 4275W        W20169   7.270   3.718  10.241 -0.1179  0.0881  0.0501
 4276W        W20170  17.125  18.741  14.185 -0.1009 -0.2197  0.2345
 4277W        W20171   6.547  11.458  11.842 -0.0701  0.0154  0.2218
 4278W        W20172  14.626   2.334  14.477  0.0089 -0.0295 -0.0147
 4279W        W20173   6.814  18.615  12.325 -0.0823 -0.0768 -0.1228
 4280W        W20174  17.828   2.882   0.622  0.3016 -0.0979  0.1753
 4281W        W20175  17.015   7.686   4.525  0.4877 -0.1796  0.0885
 4282W        W20176   8.682   6.200   1.943  0.0365  0.3406  0.0273
 4283W        W20177  13.795   3.473  11.289  0.2361  0.0274 -0.1314
 4284W        W20178  18.727   4.990  11.417  0.0766  0.0414  0.2394
 4285W        W20179  11.046  15.479   0.013 -0.2148  0.2198  0.1931
 4286W        W20180   0.070   2.597  14.403 -0.1677 -0.0979  0.0713
 4287W        W20181  16.981  12.601  10.588 -0.2096 -0.1337 -0.1291
 4288W        W20182  17.214  18.232  13.123  0.3314 -0.0740 -0.1277
 4289W        W20183   2.385  11.252   1.951 -0.1255 -0.1282 -0.2120
 4290W        W20184   5.274   7.693   1.811  0.4422 -0.3293 -0.1897
 4291W        W20185   1.467  11.888   4.787 -0.2313  0.1932 -0.0357
 4292W        W20186   9.566  10.379   0.441 -0.1404  0.0611  0.1067
 4293W        W20187  16.830   2.643   4.900  0.0372  0.1269 -0.3063
 4294W        W20188   5.445   7.493   1.380 -0.1134  0.0089  0.1478
 4295W        W20189  14.109   7.206   1.648  0.0732 -0.1083 -0.3445
 4296W        W20190   9.070  10.277  14.705  0.0036 -0.2406 -0.0932
 4297W        W20191  12.264   8.088   3.267  0.3487 -0.0308 -0.0985
 4298W        W20192   0.504  19.078   0.252 -0.0997 -0.1400  0.0925
 4299W        W20193  11.975  13.439  11.517  0.1903  0.0896  0.1658
 4300W        W20194   2.510   0.696   0.207  0.2635  0.4719  0.3542
 4301W        W20195   3.079  16.785   4.664 -0.2709 -0.2958 -0.3015
 4302W        W20196  17.149   0.404   3.399 -0.0095  0.3101 -0.1755
 4303W        W20197   7.723  10.353  14.515  0.2015 -0.0762 -0.1497
 4304W        W20198   3.888   6.665   0.382  0.0573  0.0647 -0.1426
 4305W        W20199  15.858   7.005   2.405 -0.0120 -0.1533 -0.3236
 4306W        W20200  18.807  11.529  13.297 -0.0616  0.1847 -0.0680
 4307W        W20201   2.079  17.596  14.393  0.0681 -0.1941  0.1711
 4308W        W20202  14.088  13.752  13.225 -0.2033  0.1576  0.1897
 4309W        W20203   1.008  17.727   0.301 -0.7394  0.0072 -0.0697
 4310W        W20204  16.233   8.672  12.030  0.0553 -0.3638 -0.1702
 4311W        W20205   8.909   9.631   2.966 -0.1719  0.1159 -0.1383
 4312W        W20206  14.621  14.692  14.466  0.1587 -0.0393  0.0606
 4313W        W20207  18.842  11.782   1.277 -0.0170 -0.1163  0.1461
 4314W        W20208   8.830   1.474   2.058 -0.0740 -0.1564  0.0674
 4315W        W20209   7.276   8.456  12.448  0.3501  0.2289  0.2657
 4316W        W20210   4.049  18.021   1.218 -0.0534 -0.0005 -0.0193
 4317W        W20211  17.093   3.084  14.628  0.1739 -0.1132 -0.1880
 4318W        W20212  15.907   8.203   5.256  0.1787  0.1103 -0.2192
 4319W        W20213   3.884  18.986   0.438  0.2435 -0.0697  0.1747
 4320W        W20214   7.789   8.957  15.116  0.2927 -0.4692  0.1218
 4321W        W20215  17.693   6.865  11.995  0.0953 -0.0368 -0.1675
 4322W        W20216   5.455  14.407  14.064  0.2046  0.0024 -0.1482
 4323W        W20217   2.463   7.663   9.912  0.1983  0.1382  0.1039
 4324W        W20218   4.261  15.946  13.509 -0.0132  0.4417 -0.1362
 4325W        W20219  12.350  10.655   2.797  0.2981 -0.1407  0.1677
 4326W        W20220  13.592   4.912   0.572  0.0352 -0.0471  0.2511
 4327W        W20221   2.177  12.020   0.247 -0.0317  0.0363  0.1094
 4328W        W20222   3.266  13.507  12.756 -0.1058 -0.1158 -0.1934
 4329W        W20223   2.163   1.659   3.593 -0.4448 -0.0534  0.3095
 4330W        W20224   8.276  14.630  13.120 -0.2771 -0.2189  0.3337
 4331W        W20225   1.717   3.394  12.791 -0.2455 -0.1058  0.4180
 4332W        W20226  17.847   2.446   5.589 -0.0851 -0.0528  0.1746
 4333W        W20227   7.585  15.671  12.789 -0.0840  0.0379  0.2033
 4334W        W20228  14.032  11.551   2.145 -0.1249  0.0882  0.0508
 4335W        W20229  18.359   1.806   1.502  0.2625 -0.0426 -0.2347
 4336W        W20230  10.183  15.317  12.219  0.0115  0.2697  0.2154
 4337W        W20231   7.035  17.735  12.370  0.2425  0.0815 -0.1004
 4338W        W20232  19.178   3.546  14.357  0.2389  0.0507 -0.2430
 4339W        W20233  18.579   9.496   5.258  0.0036  0.1258  0.0234
 4340W        W20234  11.383   8.808   5.010  0.0802  0.0721  0.1351
 4341W        W20235  16.988  11.168  11.890 -0.1902  0.0285 -0.2920
 4342W        W20236   2.818   1.999   2.912  0.2327 -0.2199  0.2495
 4343W        W20237   1.489   7.929  14.949 -0.0619 -0.0465 -0.0785
 4344W        W20238   7.305  17.539  13.820 -0.0152 -0.1578 -0.1145
 4345W        W20239  11.923   2.321   4.068 -0.1934 -0.0507 -0.2525
 4346W        W20240   1.060   1.081  10.480 -0.0838  0.0786  0.2114
 4347W        W20241  12.822   1.605   1.746 -0.1316 -0.0868  0.2202
 4348W        W20242   7.658   8.052   4.024  0.2516  0.0326 -0.1354
 4349W        W20243   5.880   9.989   2.100 -0.3830 -0.3933  0.2837
 4350W        W20244  12.751   9.760   1.819  0.0481 -0.1466 -0.2089
 4351W        W20245  10.172  13.757  14.674 -0.0366 -0.2732 -0.0596
 4352W        W20246  17.895   9.500   2.259  0.4480  0.1558 -0.0347
 4353W        W20247   2.474   8.116  11.243  0.2551 -0.1644  0.2419
 4354W        W20248  13.699   2.245  12.906 -0.1195 -0.1539 -0.0286
 4355W        W20249  12.865  18.560   3.052  0.1329  0.1574  0.3260
 4356W        W20250  16.907  14.453   4.171 -0.1548  0.1901 -0.0733
 4357W        W20251   1.363   2.321   5.185 -0.2576  0.1428  0.1625
 4358W        W20252  18.391   8.352  13.435  0.2087 -0.3900 -0.2024
 4359W        W20253   9.428  11.336   3.825  0.2091  0.0443 -0.2063
 4360W        W20254   8.622   5.730   2.116  0.1073  0.2024 -0.5510
 4361W        W20255   4.760  18.093   5.471  0.4748 -0.3075 -0.1106
 4362W        W20256  14.219  14.623   3.752 -0.0065 -0.4166 -0.4461
 4363W        W20257   8.862   3.187   2.432  0.1148 -0.0447  0.0211
 4364W        W20258   4.292   8.945  10.965  0.0015  0.0692 -0.0996
 4365W        W20259   9.108  17.685  15.160 -0.0888 -0.1642 -0.1573
 4366W        W20260   8.272  14.944  12.726 -0.1476 -0.2943 -0.0421
 4367W        W20261   0.351  15.937  11.535  0.0179 -0.3199  0.2088
 4368W        W20262  18.518   4.836  14.925  0.0892  0.1250  0.0596
 4369W        W20263   0.547   9.778   3.875 -0.0150 -0.3930 -0.2198
 4370W        W20264   7.090  17.063   3.234 -0.1597  0.0251 -0.0759
 4371W        W20265   4.129  13.705   3.339  0.0714 -0.1373  0.2429
 4372W        W20266  13.662  10.261   3.136 -0.4021  0.0611  0.0828
 4373W        W20267   1.389  15.602   0.064  0.0752 -0.0724  0.0693
 4374W        W20268   5.754   3.345   1.831  0.1414 -0.0914 -0.0512
 4375W        W20269  15.656  17.108   5.551  0.0113  0.0742 -0.3293
 4376W        W20270  17.883   3.396  10.869  0.1223 -0.1799 -0.3367
 4377W        W20271  10.157   0.840  12.222 -0.0853 -0.1389 -0.0926
 4378W        W20272  10.915  15.467  12.697 -0.0201 -0.1312 -0.1371
 4379W        W20273  12.816  17.681  12.453  0.1285 -0.1151  0.2400
 4380W        W20274  12.819   5.478   3.236 -0.0943  0.3240 -0.1569
 4381W        W20275   4.385   2.761   3.368  0.0908 -0.0213  0.0788
 4382W        W20276  16.683   1.857  12.767 -0.0158  0.0180 -0.1504
 4383W        W20277  15.658   0.827   0.582  0.0819  0.0350  0.2691
 4384W        W20278  17.608   1.642  14.731 -0.2887 -0.0364 -0.0225
 4385W        W20279   8.074   7.565   1.928  0.0629 -0.0325 -0.1606
 4386W        W20280   8.381   2.367  13.116 -0.0419 -0.1426  0.0602
 4387W        W20281   6.270  17.247   2.667 -0.2375 -0.0095 -0.1844
 4388W        W20282  10.222   7.393   3.849  0.2434 -0.2992  0.3241
 4389W        W20283   6.670   9.887  12.650 -0.1392  0.0635  0.1363
 4390W        W20284   7.567  16.847   0.674  0.0896  0.0194  0.0766
 4391W        W20285   9.273   1.488   4.716 -0.0009  0.0565 -0.2234
 4392W        W20286   7.944   0.129  11.228 -0.0468 -0.1170  0.1764
 4393W        W20287   8.925   8.300   0.488 -0.0549 -0.2452  0.0441
 4394W        W20288  14.607  14.046   1.257  0.2128 -0.2937  0.1619
 4395W        W20289  15.353  14.270   1.710 -0.2399 -0.0075  0.0064
 4396W        W20290   6.383  11.166  12.861  0.1815  0.2968  0.0657
 4397W        W20291   4.785   0.383  14.038  0.1665  0.0491 -0.2002
 4398W        W20292  10.513   6.011   0.009  0.0900 -0.2197  0.1933
 4399W        W20293  13.970   1.862   0.552  0.1150 -0.3763 -0.1729
 4400W        W20294  11.130   9.569  10.894 -0.0712 -0.1123  0.0385
 4401W        W20295   8.494   9.101  13.224  0.0278  0.1812 -0.0820
 4402W        W20296  16.213   0.156   0.533 -0.2022 -0.1301  0.1725
 4403W        W20297   8.900   7.908   2.751  0.1075  0.1025 -0.1829
 4404W        W20298  13.969   0.125   2.371  0.0724  0.2550  0.2173
 4405W        W20299   5.564  18.548   0.990 -0.3721  0.3351  0.2110
 4406W        W20300   1.074  10.477  12.428  0.0822  0.2459  0.4558
 4407W        W20301  12.911   8.353  12.282 -0.1892 -0.1254 -0.0770
 4408W        W20302  11.433   3.119  12.311  0.0264  0.0423  0.0413
 4409W        W20303   5.660   1.461   3.625 -0.0610 -0.0102 -0.0051
 4410W        W20304   8.023   1.159  15.100 -0.0399  0.5189  0.2432
 4411W        W20305   6.769  10.796   1.074 -0.0908  0.0570 -0.0772
 4412W        W20306   4.740   1.482  14.119 -0.1508  0.0941 -0.0768
 4413W        W20307  17.899  14.115   1.586 -0.1132  0.2555 -0.3970
 4414W        W20308   8.670   2.029   1.145 -0.4005 -0.1858 -0.1600
 4415W        W20309  10.362   3.038  13.475  0.1105 -0.3770 -0.1513
 4416W        W20310  14.726   2.254   3.000  0.1066 -0.1263 -0.1583
 4417W        W20311   0.479  10.189   3.520 -0.0169 -0.0684  0.2759
 4418W        W20312  12.176   4.520   6.000 -0.0241  0.5226 -0.0936
 4419W        W20313   1.121   3.738  11.595  0.0048 -0.5284 -0.1455
 4420W        W20314   0.285   4.289  10.646 -0.1310  0.1651  0.2524
 4421W        W20315  16.410  10.917   0.024  0.2459  0.0074 -0.3862
 4422W        W20316  10.492  14.017   4.214  0.5216 -0.0885 -0.3875
 4423W        W20317  16.051  10.584   9.634  0.0011  0.1834  0.1338
 4424W        W20318   8.682   8.648  14.636 -0.0107  0.0483 -0.2639
 4425W        W20319  17.372  17.372  14.673  0.0176 -0.2914  0.1283
 4426W        W20320  18.647  15.207  12.879 -0.2016 -0.0890  0.1654
 4427W        W20321   8.506   0.621   4.120 -0.3311  0.0132 -0.1477
 4428W        W20322  12.607   4.462   0.668  0.3113  0.1319 -0.0831
 4429W        W20323   9.261   7.350  14.843  0.2290 -0.0314 -0.0243
 4430W        W20324  14.653   5.292   3.349 -0.1519  0.0970 -0.0604
 4431W        W20325   7.693   4.876   1.147 -0.1847 -0.3161 -0.0286
 4432W        W20326   5.250  16.618  12.325  0.1022 -0.3008  0.3340
 4433W        W20327  16.090  10.536  12.108 -0.0337 -0.4330  0.1605
 4434W        W20328  15.434   2.380  10.467 -0.0675  0.0378  0.3417
 4435W        W20329   1.679  14.228  14.264 -0.1166  0.2805 -0.0620
 4436W        W20330   1.623  13.289   5.435 -0.0148 -0.1633  0.0855
 4437W        W20331   5.094   3.623   5.023 -0.0502 -0.0546  0.1147
 4438W        W20332   6.599   8.369  10.512 -0.1507 -0.1195 -0.0161
 4439W        W20333   9.345   7.505  13.349  0.1589 -0.0374  0.1717
 4440W        W20334   3.044   4.127   3.604 -0.1440  0.0004  0.0036
 4441W        W20335  15.553   5.597   4.089  0.0514 -0.0494 -0.2091
 4442W        W20336   7.700  12.792   1.586 -0.1857 -0.2236  0.3344
 4443W        W20337  10.645   3.958   5.460 -0.1382  0.2478 -0.0884
 4444W        W20338  16.305   9.442  15.123  0.1310 -0.0082  0.0096
 4445W        W20339  19.090  13.106   5.187  0.1182  0.0431  0.1956
 4446W        W20340   4.334  14.731  13.415  0.2514 -0.1563 -0.0872
 4447W        W20341   0.966  17.143   5.986  0.0008 -0.2314  0.0812
 4448W        W20342   0.264   5.137   5.386  0.1035 -0.0516 -0.1921
 4449W        W20343   7.655   6.664   1.339  0.0248 -0.1502  0.1883
 4450W        W20344  10.991  17.985   3.031  0.0123  0.2226  0.3458
 4451W        W20345  12.440  16.289   1.484 -0.2368 -0.1758  0.1339
 4452W        W20346  12.476  13.736  14.168  0.0973  0.5419 -0.2811
 4453W        W20347  18.711   9.621  10.611  0.2940  0.0264  0.0026
 4454W        W20348  15.225  17.624   4.861 -0.0133 -0.0455 -0.0471
 4455W        W20349  11.746   5.412   1.632 -0.3174 -0.2594  0.2535
 4456W        W20350   3.934  16.399  14.662  0.1189  0.0499 -0.1676
 4457W        W20351  15.246  15.412  11.338 -0.4120  0.1562  0.0485
 4458W        W20352   9.556   2.952  13.607 -0.1741 -0.2410  0.0896
 4459W        W20353   3.968  12.883  13.074 -0.2241  0.1986  0.0343
 4460W        W20354   3.420  16.048   0.630 -0.1041 -0.2705 -0.0725
 4461W        W20355  12.224   6.960   1.303 -0.1155 -0.0261 -0.3175
 4462W        W20356  11.563  12.934   0.541 -0.1457 -0.0080  0.1519
 4463W        W20357  11.266   4.111  12.289  0.2216  0.1926  0.1649
 4464W        W20358  16.825  15.355   0.028 -0.0984 -0.0366  0.3320
 4465W        W20359  13.377  15.838   0.398 -0.3331 -0.1523  0.3017
 4466W        W20360  10.713   8.832  14.341 -0.0084  0.1800 -0.2871
 4467W        W20361  18.815  11.879   2.763  0.0601 -0.3533 -0.3499
 4468W        W20362   7.210   5.753   9.421 -0.1373  0.0548 -0.3660
 4469W        W20363  13.102  14.192  13.218 -0.0943  0.2550 -0.1604
 4470W        W20364   5.840   3.873   3.928  0.1002  0.0398  0.0504
 4471W        W20365  12.332   0.574  10.913  0.1901 -0.0644  0.0171
 4472W        W20366  13.947   2.131  13.282  0.3414 -0.0666  0.0072
 4473W        W20367  11.680  17.335   4.177 -0.0459  0.0902  0.1841
 4474W        W20368   2.501  10.355   5.761 -0.4032 -0.4601  0.2407
 4475W        W20369  10.673   3.145  11.471 -0.1204  0.0286 -0.0574
 4476W        W20370   0.556   9.636  14.972  0.4617  0.0087 -0.1039
 4477W        W20371   4.284   0.876  13.714 -0.1509  0.2953  0.0644
 4478W        W20372   8.084  11.551  11.547  0.2726 -0.2471  0.0653
 4479W        W20373  16.277  12.540   3.730  0.0945 -0.0023  0.1363
 4480W        W20374  17.512  14.882  15.067  0.0342 -0.0388  0.3504
 4481W        W20375   4.622  12.375  15.068  0.1370 -0.0356 -0.0650
 4482W        W20376   0.279   8.997   2.367  0.0012  0.1871 -0.1869
 4483W        W20377   1.579  11.833   5.340  0.1770 -0.1779 -0.0744
 4484W        W20378  12.544  16.979  10.261 -0.1746  0.0431 -0.0978
 4485W        W20379   5.163   2.439  13.819  0.3739  0.0593 -0.0526
 4486W        W20380   6.229   9.214  11.607 -0.0046  0.1857 -0.0420
 4487W        W20381  12.042   7.947  11.105  0.1142 -0.1834 -0.0483
 4488W        W20382  17.893  14.024  12.278  0.2027 -0.0391  0.1264
 4489W        W20383   1.698   8.613   4.597 -0.1750 -0.0820 -0.1163
 4490W        W20384  19.152  14.714   2.170 -0.1109 -0.1550 -0.1630
 4491W        W20385   3.227   6.610   2.709  0.3237  0.3558 -0.1624
 4492W        W20386  18.439   8.055  11.574 -0.1049 -0.0651 -0.0078
 4493W        W20387  10.464  13.456   4.333 -0.0211 -0.1216  0.0182
 4494W        W20388  10.204  18.858  11.109  0.0580 -0.0520  0.2521
 4495W        W20389   7.697   6.711   0.182  0.0127 -0.1290  0.1218
 4496W        W20390  10.104   8.474   4.141 -0.1107  0.1724 -0.1348
 4497W        W20391   8.117   6.778  14.619  0.0427 -0.1038  0.0151
 4498W        W20392  13.116   9.158  12.521  0.0303  0.0462 -0.2359
 4499W        W20393   8.122  16.155   3.676 -0.1985 -0.0952  0.0115
 4500W        W20394   3.786  12.955   0.799  0.2754  0.0808 -0.1337
 4501W        W20395   5.991  17.712  10.992 -0.0345  0.1330  0.0108
 4502W        W20396  12.548   3.442   1.250 -0.0140  0.1828 -0.0866
 4503W        W20397   6.112  14.379  11.891  0.3364  0.2949 -0.0514
 4504W        W20398   4.533  12.857  13.947 -0.0424 -0.3894  0.0365
 4505W        W20399   4.076  14.334  12.717  0.0833 -0.2685 -0.2325
 4506W        W20400  17.999  15.747   1.744  0.2239  0.2866  0.0502
 4507W        W20401   3.313  11.823  13.165 -0.0425 -0.3679 -0.1211
 4508W        W20402   0.003  10.118   4.986 -0.2582 -0.2136 -0.0841
 4509W        W20403   9.348   4.274   5.703  0.0106 -0.0960  0.1394
 4510W        W20404   7.672  13.568   4.224  0.3645  0.0783  0.0217
 4511W        W20405   1.153  19.015  14.198  0.0871 -0.0111  0.0505
 4512W        W20406   9.968  16.003   1.814  0.2678 -0.0338 -0.1350
 4513W        W20407  12.335   5.040   3.764  0.3113  0.2277 -0.3151
 4514W        W20408   4.243   3.287  13.688 -0.1120  0.1260 -0.4175
 4515W        W20409  14.373  13.475   2.689  0.4166 -0.0145  0.1607
 4516W        W20410  13.027   0.013  14.550  0.0159  0.2509  0.2422
 4517W        W20411  13.627  11.178   4.283  0.0650  0.1765 -0.3197
 4518W        W20412   1.094  18.992   5.522  0.0067  0.1511  0.0864
 4519W        W20413  12.182   9.311   0.904  0.0693 -0.2516 -0.1195
 4520W        W20414   7.178  10.712  13.236 -0.0824 -0.2548 -0.2882
 4521W        W20415  10.936  15.655   2.686  0.1016  0.1504 -0.2426
 4522W        W20416   7.498  16.724  14.590 -0.0318 -0.0176 -0.3257
 4523W        W20417   4.697  11.931   5.118  0.1790  0.1487 -0.1339
 4524W        W20418  11.545  12.462   0.238 -0.0858  0.0233  0.3509
 4525W        W20419   9.306   2.710   2.522 -0.1061 -0.0490  0.4946
 4526W        W20420   0.166  10.726   1.176  0.0163  0.0424 -0.0501
 4527W        W20421   6.281   2.199  13.219 -0.1216 -0.2383 -0.0438
 4528W        W20422  16.039   6.402  14.328 -0.0250  0.1919 -0.4021
 4529W        W20423  10.544  18.079  15.165 -0.0271 -0.2117  0.2820
 4530W        W20424   7.332   1.005  12.438  0.1230  0.1078  0.1248
 4531W        W20425  13.791   1.143  13.427  0.1329  0.1642  0.0476
 4532W        W20426  15.843  15.471  13.004 -0.1708  0.1815 -0.1140
 4533W        W20427   4.681  13.547   3.170  0.3861  0.2087 -0.3156
 4534W        W20428   2.940   0.208  10.304  0.0909  0.2608 -0.1921
 4535W        W20429   9.940  16.184   4.481  0.2687  0.0629  0.2592
 4536W        W20430   4.497   9.249  14.683 -0.0743 -0.0292  0.0962
 4537W        W20431   7.294  17.592  14.946  0.1590 -0.3919 -0.2102
 4538W        W20432   2.727   5.064  11.188 -0.1729 -0.0822  0.0580
 4539W        W20433  10.043   0.829  10.224 -0.2999  0.2823 -0.0959
 4540W        W20434   4.999  18.051  12.062  0.0635 -0.3273 -0.3131
 4541W        W20435  10.338  16.758   4.262  0.0195 -0.0477 -0.2125
 4542W        W20436   2.922   2.496   9.043  0.0019  0.1858 -0.0092
 4543W        W20437  12.384   3.611  11.633 -0.2717 -0.2668  0.1766
 4544W        W20438   9.459  15.195  10.121 -0.5559  0.0515  0.1008
 4545W        W20439   8.149  16.857  13.835  0.2362 -0.1372  0.1924
 4546W        W20440  18.845  13.473  13.307 -0.2051  0.3514 -0.1592
 4547W        W20441  16.741  12.716   1.118  0.0012 -0.0069 -0.1398
 4548W        W20442  17.066   9.676  12.793  0.3515  0.1706 -0.1407
 4549W        W20443   6.372  18.481  14.188 -0.0738  0.0577  0.0320
 4550W        W20444   0.179  15.188   1.864 -0.1477 -0.1490  0.0529
 4551W        W20445  10.679  18.894   3.895  0.0726  0.0619  0.3946
 4552W        W20446   0.380  14.472   2.515  0.3415  0.0369  0.1778
 4553W        W20447  15.553   3.196  11.838 -0.3232 -0.2022 -0.2727
 4554W        W20448  16.128  14.831  13.332  0.1364  0.0987 -0.0102
 4555W        W20449   9.493   1.954  10.575  0.2656 -0.1410  0.1257
 4556W        W20450   3.183   8.680   3.943 -0.2309  0.5702 -0.0731
 4557W        W20451   1.486  17.536   1.201  0.1187 -0.0223 -0.0500
 4558W        W20452   1.169  13.595  13.083  0.2008  0.3942 -0.0143
 4559W        W20453  17.603  12.059  11.574  0.1113  0.0592  0.3754
 4560W        W20454  17.604   6.033  10.949 -0.0136  0.1009 -0.1004
 4561W        W20455  12.989  16.612  13.612  0.2338  0.0403  0.4411
 4562W        W20456  10.199   1.239   0.870 -0.0260 -0.1039  0.4019
 4563W        W20457   7.591  15.723  11.085  0.0990 -0.0543  0.2982
 4564W        W20458   8.072   5.128  12.644  0.2553 -0.2673  0.1578
 4565W        W20459   0.228   7.888   5.477  0.0390  0.1503  0.0263
 4566W        W20460   1.846  12.012   0.708  0.0961  0.3544 -0.0374
 4567W        W20461   0.713  13.764  14.027  0.2178  0.0341 -0.1367
 4568W        W20462   8.288   2.330  14.459 -0.1000 -0.0478 -0.0154
 4569W        W20463   4.342  14.754   4.305  0.0219 -0.1657  0.3196
 4570W        W20464   4.716  18.817  10.649 -0.2080  0.1643  0.0547
 4571W        W20465   4.961   8.295   3.558  0.2019  0.0157 -0.1666
 4572W        W20466  11.850   5.732  11.362  0.3843  0.1762  0.2355
 4573W        W20467   8.382   2.971  11.936 -0.0136 -0.1340  0.0168
 4574W        W20468   4.927  11.651  14.133 -0.0985 -0.2389 -0.0655
 4575W        W20469  11.678   8.901  14.321  0.3358 -0.2495 -0.1450
 4576W        W20470   8.301   8.584   5.078 -0.0160  0.1013 -0.0525
 4577W        W20471  10.127  14.287   4.523  0.1527 -0.0049  0.1933
 4578W        W20472   6.572  13.209  11.754 -0.0485  0.0137  0.0688
 4579W        W20473   6.945   7.253   0.460 -0.0110 -0.2069  0.0016
 4580W        W20474   8.976  18.004  13.460 -0.1305  0.0366 -0.1499
 4581W        W20475  16.856  17.652   1.319 -0.0344 -0.0935  0.2600
 4582W        W20476   6.925  10.834   4.602 -0.0367  0.2211  0.2771
 4583W        W20477  15.551   6.506  12.791 -0.0781  0.0217 -0.2046
 4584W        W20478  15.838  15.230  11.573 -0.1589  0.0115  0.3301
 4585W        W20479  18.518   0.818  12.847  0.0947 -0.3501  0.0865
 4586W        W20480  18.128   4.304   4.233  0.2690  0.0196  0.2838
 4587W        W20481   7.107  13.001   4.187 -0.0227  0.1395  0.0221
 4588W        W20482   8.671  12.436   3.099  0.1318  0.5273 -0.1627
 4589W        W20483   5.772   9.827  11.109 -0.2289 -0.0556  0.1555
 4590W        W20484  12.921   5.211   3.706  0.1743 -0.2508 -0.1378
 4591W        W20485   9.467  13.049   0.516 -0.2558 -0.2923 -0.2734
 4592W        W20486  12.216   8.923  11.107  0.1508  0.1968  0.0800
 4593W        W20487   4.233   7.137   0.547 -0.4565  0.0800 -0.0804
 4594W        W20488  12.236  12.697  11.106 -0.2817 -0.3083 -0.2261
 4595W        W20489  16.748  12.773   1.769 -0.1311  0.1452 -0.1077
 4596W        W20490   2.470   2.834   5.021  0.2784 -0.1905 -0.0246
 4597W        W20491  10.769   4.618  13.774 -0.1483  0.0034 -0.0811
 4598W        W20492   5.653   3.524  10.409  0.3254  0.0589  0.1229
 4599W        W20493  14.772   8.723  14.994 -0.2638 -0.1228 -0.1291
 4600W        W20494   1.807  14.576   2.778  0.0691  0.0389  0.2415
 4601W        W20495  12.261  13.004  13.410 -0.2598 -0.0038 -0.0069
 4602W        W20496   8.784  16.353   0.847  0.1474 -0.1468 -0.0127
 4603W        W20497   3.842   8.158  13.976 -0.0252  0.0442 -0.0832
 4604W        W20498   2.964  15.898  11.468  0.0284  0.1313  0.0582
 4605W        W20499  12.447  17.731   0.852  0.1263  0.1627  0.3257
 4606W        W20500   4.624   8.797  14.550  0.0437  0.0656 -0.0098
 4607W        W20501  12.052   4.382  14.737  0.2215 -0.0582 -0.0966
 4608W        W20502   2.298   6.491  10.958 -0.2813 -0.2614  0.1601
 4609W        W20503   3.641   7.671  12.700 -0.1375 -0.0978 -0.0691
 4610W        W20504  15.407   3.759  11.563  0.0893 -0.1046  0.1835
 4611W        W20505  10.847  11.165  14.316 -0.1186  0.1106 -0.1517
 4612W        W20506  14.199  15.300  10.485  0.1245 -0.1635 -0.3257
 4613W        W20507  15.362  13.827   4.051 -0.0959 -0.0476 -0.1799
 4614W        W20508   8.162   1.724   2.699  0.2743 -0.1499  0.2780
 4615W        W20509   0.569   3.194  11.294 -0.2819  0.0516 -0.3055
 4616W        W20510   4.299   8.801   1.784  0.0819 -0.1726  0.1581
 4617W        W20511  17.309  12.599  14.156 -0.1917 -0.0969  0.0520
 4618W        W20512   4.262  13.769   1.688  0.1236 -0.2202 -0.0543
 4619W        W20513  12.735  14.605  11.455 -0.0094  0.0087  0.1201
 4620W        W20514   0.320   1.853   0.612 -0.2730 -0.1442  0.1386
 4621W        W20515  13.959   9.608   2.728 -0.0182 -0.0396  0.1137
 4622W        W20516  10.769  11.397   2.202 -0.1198 -0.0116 -0.2057
 4623W        W20517  12.060  13.481  13.515  0.0960  0.0828 -0.2062
 4624W        W20518  11.874  10.133   1.955  0.0510  0.1016  0.0051
 4625W        W20519  17.505   0.045  11.555  0.2876 -0.0404 -0.0683
 4626W        W20520  16.191   1.333   4.026  0.1215 -0.1280 -0.6370
 4627W        W20521  15.911   0.739  11.302 -0.0622  0.1607  0.2247
 4628W        W20522  13.337  19.164  14.169 -0.0527 -0.0877  0.1331
 4629W        W20523   6.492   3.474  12.533  0.0034 -0.2410 -0.3200
 4630W        W20524   9.362  14.379  14.633 -0.3808 -0.1775  0.1417
 4631W        W20525  11.065  17.509   1.239 -0.0660  0.3231  0.3630
 4632W        W20526   1.527   1.844  12.049  0.0537  0.3109  0.0986
 4633W        W20527   5.506  16.504   1.001  0.1203  0.2049 -0.0923
 4634W        W20528  12.646   5.380   4.107 -0.1529 -0.3443  0.0331
 4635W        W20529  14.346   7.631   4.628  0.0167 -0.1749 -0.0516
 4636W        W20530  13.472  14.548  14.400  0.1852 -0.0832  0.3557
 4637W        W20531   0.763  14.664   5.095  0.2881 -0.0482 -0.0714
 4638W        W20532  11.403  10.689   0.963 -0.2773  0.0216 -0.1386
 4639W        W20533   2.312   4.587   3.957  0.1751 -0.0465  0.5236
 4640W        W20534  14.177   8.390   3.253 -0.2181 -0.0869  0.0305
 4641W        W20535   4.747  13.301   9.866 -0.2794 -0.2366 -0.1689
 4642W        W20536   8.780   4.920   1.909  0.0950  0.0990 -0.0064
 4643W        W20537   8.708  17.596   1.348  0.0113 -0.4166  0.0699
 4644W        W20538   5.713   0.245  12.586  0.0149 -0.1240 -0.3361
 4645W        W20539   0.240   1.553   3.190  0.0450 -0.0786 -0.0771
 4646W        W20540   7.195   1.968  13.598 -0.2007 -0.0775  0.0447
 4647W        W20541  11.123  16.580   0.061  0.1277 -0.2242 -0.1363
 4648W        W20542  18.189   4.478  12.777  0.1873  0.1097 -0.2665
 4649W        W20543   3.198   0.844   5.438 -0.0879 -0.1591 -0.3734
 4650W        W20544  18.212   0.071   2.564  0.0712 -0.0820  0.1141
 4651W        W20545   7.521   9.430   3.469 -0.0037 -0.0470 -0.1870
 4652W        W20546   5.354   1.899  11.665 -0.1232  0.0411  0.3893
 4653W        W20547  11.440  14.623  14.449 -0.6978  0.3998  0.0406
 4654W        W20548  11.792  17.551  13.352  0.2122  0.0572 -0.0812
 4655W        W20549   5.611  15.396  12.715  0.1560  0.2242  0.1308
 4656W        W20550  13.322   5.326   0.458  0.0825  0.0260 -0.1533
 4657W        W20551  12.251  14.683   2.011 -0.0410  0.0509 -0.3289
 4658W        W20552   0.227   0.216  14.456 -0.2456 -0.3595  0.2525
 4659W        W20553   2.008   9.851  10.969  0.1078  0.1806 -0.0990
 4660W        W20554  15.269   1.955  13.658 -0.0589  0.2740  0.1575
 4661W        W20555   4.373   0.569   4.897  0.2130 -0.3120  0.1113
 4662W        W20556   9.224  17.252   0.743 -0.0901 -0.1077 -0.1675
 4663W        W20557  15.788  19.078   3.904 -0.0637 -0.4180  0.1262
 4664W        W20558   0.351  14.662   3.368 -0.2923 -0.0372  0.0025
 4665W        W20559   9.081   6.405  14.874 -0.2705 -0.2096  0.1953
 4666W        W20560  13.661   1.289   1.391  0.4452  0.2018 -0.0543
 4667W        W20561  18.221  14.693  11.611 -0.1981  0.2398 -0.1475
 4668W        W20562   0.682   2.377  13.799  0.4808 -0.0416 -0.4815
 4669W        W20563   1.249  14.993   5.081  0.2832  0.0364  0.1369
 4670W        W20564   5.106   4.604  14.622 -0.0394 -0.4876 -0.2482
 4671W        W20565  10.026  13.035   1.427 -0.3184  0.0156 -0.2800
 4672W        W20566   8.200  14.950   2.971 -0.0804  0.1609 -0.1260
 4673W        W20567   2.042  13.340  11.856  0.0096 -0.0376 -0.0586
 4674W        W20568  18.307  15.948  13.027  0.0453  0.3137 -0.4192
 4675W        W20569   4.556   2.223  11.147 -0.2418 -0.1163 -0.2835
 4676W        W20570   2.130   5.895   4.394  0.1633  0.0146 -0.1339
 4677W        W20571  17.630   4.644   5.526 -0.0441  0.0265  0.0350
 4678W        W20572  15.638   1.159   2.289  0.0844  0.0074 -0.1029
 4679W        W20573  13.698  15.394  13.771 -0.0363 -0.0986 -0.2492
 4680W        W20574   8.159  14.096   0.031 -0.0398 -0.0847  0.3616
 4681W        W20575   5.694  13.458   4.480  0.0110  0.0285  0.4212
 4682W        W20576   1.173  13.431   0.014 -0.1513 -0.1778 -0.2574
 4683W        W20577   5.107   3.493  12.005  0.2552 -0.5207  0.1296
 4684W        W20578  14.490  18.205   4.596 -0.0486 -0.1099 -0.0458
 4685W        W20579  11.852  16.986  14.652  0.0818  0.1392  0.0480
 4686W        W20580  15.359   4.197  13.107 -0.0613 -0.1069 -0.0159
 4687W        W20581   3.218   1.301  14.120 -0.2001  0.0066  0.0378
 4688W        W20582  10.215  13.248   0.953 -0.3817 -0.0434 -0.1425
 4689W        W20583   1.709   2.782   4.636 -0.1401 -0.1305  0.1041
 4690W        W20584   0.992  15.544   4.666  0.0290  0.2857 -0.3049
 4691W        W20585  18.503   9.999   0.898 -0.0687  0.1224  0.0643
 4692W        W20586   8.802   3.261   0.001 -0.2985 -0.0009  0.2510
 4693W        W20587   8.983  11.659  11.546 -0.1932 -0.0903 -0.0981
 4694W        W20588   0.861  15.701  13.758  0.2130 -0.3196  0.1298
 4695W        W20589   3.328   7.019  10.776 -0.3304 -0.3533  0.0010
 4696W        W20590  14.834   1.965   1.002  0.3646  0.0226  0.1582
 4697W        W20591  18.561   2.437   3.016 -0.0058 -0.2385 -0.1210
 4698W        W20592  15.428  15.996   2.779 -0.3613  0.0385 -0.3089
 4699W        W20593   7.397  17.189  10.736 -0.1568  0.1620 -0.0366
 4700W        W20594  11.236   2.855   1.468 -0.2986 -0.0670  0.1321
 4701W        W20595  18.042  15.705   5.088  0.1388 -0.0980  0.6383
 4702W        W20596  17.227  11.679  13.471 -0.0889 -0.2616 -0.2657
 4703W        W20597  12.265  13.600  12.676 -0.2500 -0.2647 -0.0309
 4704W        W20598  13.116  12.904   0.424 -0.0117  0.2863 -0.3192
 4705W        W20599  14.517   2.611   3.677  0.3444  0.0858 -0.0342
 4706W        W20600   8.157  14.516   4.749 -0.2965 -0.1048 -0.0074
 4707W        W20601   1.038  10.442   3.493  0.1980 -0.0408 -0.1566
 4708W        W20602   3.454   8.035   2.475  0.1484 -0.2136  0.1187
 4709W        W20603  17.145  17.522   9.612  0.0541  0.0379 -0.1299
 4710W        W20604   4.521  11.289  10.814  0.0424 -0.1259  0.2755
 4711W        W20605  11.427  10.917   0.321  0.0092  0.2377 -0.0506
 4712W        W20606  18.510  10.486   1.155  0.1108  0.1186 -0.1753
 4713W        W20607   1.682   7.085   0.458  0.0084  0.1603 -0.0083
 4714W        W20608   6.033   1.771   2.661  0.3636  0.0996  0.3770
 4715W        W20609   7.178   8.137   4.187  0.0072 -0.0331  0.1899
 4716W        W20610   6.022  11.428  11.864 -0.1001  0.3223  0.2130
 4717W        W20611  18.863  18.508   3.677 -0.2733  0.1366 -0.0814
 4718W        W20612   1.158   6.035   1.761 -0.0397 -0.0311  0.2200
 4719W        W20613  16.363  18.804   1.890  0.2485  0.0878 -0.2041
 4720W        W20614   1.918  11.166  11.490 -0.4655  0.0407 -0.1644
 4721W        W20615   5.975  11.548   4.742  0.1257  0.1647 -0.1636
 4722W        W20616  12.992   7.147   4.109 -0.2204  0.0288  0.1510
 4723W        W20617  12.547  19.047  12.520 -0.1476 -0.1776 -0.0401
 4724W        W20618  13.445  12.732  12.310 -0.2335 -0.0273  0.0892
 4725W        W20619  10.764   9.530  14.140  0.4092  0.0488 -0.2083
 4726W        W20620  12.298   8.445  13.945 -0.0280 -0.0400  0.1414
 4727W        W20621   5.239   1.139  10.637  0.1868 -0.1381  0.5175
 4728W        W20622  11.017   5.663   1.013  0.4379  0.0386  0.2920
 4729W        W20623  11.829  13.963  10.667  0.5051 -0.3578  0.0807
 4730W        W20624  15.981   2.570   3.228  0.1193  0.1446  0.2944
 4731W        W20625   3.706  15.298  14.652  0.1364 -0.1579  0.4057
 4732W        W20626  15.379  13.739  13.343 -0.2222  0.1104 -0.0944
 4733W        W20627   4.804  16.703   9.887 -0.2159 -0.0074  0.1697
 4734W        W20628   9.920   8.131   2.757  0.1134  0.0687  0.0196
 4735W        W20629  14.580   9.488  11.274  0.1457 -0.3092 -0.0122
 4736W        W20630   2.135  10.470  10.853  0.2585 -0.2803 -0.1597
 4737W        W20631  16.036   3.065   2.762  0.0000 -0.0452 -0.0425
 4738W        W20632   6.122  13.259   0.210 -0.0486 -0.0084 -0.1323
 4739W        W20633  12.954  12.610   0.863 -0.0012  0.2635  0.1000
 4740W        W20634   4.051   7.079   4.667  0.4034 -0.0971  0.0633
 4741W        W20635   6.482  17.148   2.245 -0.1401  0.3742 -0.0139
 4742W        W20636  16.304   7.551   3.586  0.1468  0.0626  0.0102
 4743W        W20637  11.672   0.347   4.683 -0.1776  0.4232 -0.2767
 4744W        W20638  10.991  13.305   0.058 -0.1250 -0.3119 -0.1246
 4745W        W20639  18.245   4.055  13.057 -0.2007  0.1003 -0.0507
 4746W        W20640   0.789  17.708   5.147  0.1081 -0.2076  0.4192
 4747W        W20641  18.173   4.970  13.019  0.3728  0.2130  0.0826
 4748W        W20642   4.214  16.001   1.573  0.1634  0.1137  0.3519
 4749W        W20643   9.371   1.644   0.704  0.3094  0.0411 -0.4287
 4750W        W20644   0.711  12.787   2.103  0.1157 -0.0091 -0.1107
 4751W        W20645  18.346  10.532   0.667  0.2232 -0.1267  0.1299
 4752W        W20646   6.993   5.488   9.794  0.3557  0.1102  0.0129
 4753W        W20647  11.682  16.139  11.011  0.2075 -0.0081  0.0724
 4754W        W20648  12.333  11.958   2.101  0.2745 -0.3338 -0.1453
 4755W        W20649   1.727  15.987  13.563  0.0780 -0.0889 -0.0058
 4756W        W20650   3.842   4.100  14.241  0.1484  0.0857 -0.1504
 4757W        W20651  14.167  12.245   2.142 -0.6181 -0.0165  0.2196
 4758W        W20652   1.092   7.165   2.943  0.1030  0.0192  0.1677
 4759W        W20653  11.460   5.368   3.524 -0.3540  0.2349  0.1037
 4760W        W20654   8.596   5.881   4.628  0.0741 -0.1572  0.0885
 4761W        W20655  16.086   9.983   2.227  0.0622 -0.0665  0.1772
 4762W        W20656   7.160   8.544   2.547 -0.1110  0.0830  0.0730
 4763W        W20657   5.042   2.568  12.436  0.1937  0.0015 -0.0352
 4764W        W20658   1.335   2.801   3.653 -0.1472  0.0520  0.1582
 4765W        W20659  16.215   2.752   4.163  0.0894  0.0557  0.0528
 4766W        W20660   5.362   3.936  11.830 -0.2359 -0.1399  0.2402
 4767W        W20661   8.028   6.760  12.463 -0.0403  0.5158 -0.0619
 4768W        W20662  18.985   6.457   3.823  0.1501 -0.2920  0.1328
 4769W        W20663  15.834   1.167  14.531  0.0982  0.0904  0.1570
 4770W        W20664   1.964  15.157   2.484  0.1270  0.2334 -0.1444
 4771W        W20665   7.378   5.348  10.177 -0.1800 -0.0401  0.1664
 4772W        W20666  12.631  14.306  13.300  0.3272  0.0717  0.0823
 4773W        W20667  16.354   6.321   2.702 -0.1568 -0.1085  0.0321
 4774W        W20668  13.334   7.657   4.278 -0.0509  0.2523 -0.0143
 4775W        W20669  11.725   4.473   4.500 -0.1401  0.2387 -0.0092
 4776W        W20670   5.294   8.671  13.306  0.1766  0.1785  0.2968
 4777W        W20671  14.082  12.706  13.365  0.3340 -0.1804  0.1145
 4778W        W20672  17.312   1.131   0.742  0.0369 -0.0896  0.2382
 4779W        W20673   0.704   8.449  11.260 -0.1936 -0.1719  0.1214
 4780W        W20674  11.269   3.679   4.922 -0.0643  0.1883 -0.2336
 4781W        W20675  17.542   9.178   2.458  0.1977  0.0511 -0.0503
 4782W        W20676  15.364  11.272  10.971  0.1472  0.0904 -0.0849
 4783W        W20677  11.916  14.320  14.444  0.0297 -0.3385 -0.0695
 4784W        W20678   4.217  16.377   1.187  0.3954 -0.1625 -0.1432
 4785W        W20679   6.160   9.225  13.261 -0.0965 -0.1026  0.0139
 4786W        W20680   7.277   5.976  12.818 -0.0491  0.2801  0.1862
 4787W        W20681  14.364  13.372   0.417  0.1192 -0.0967  0.0639
 4788W        W20682   8.561   7.134   2.789  0.1092 -0.3101 -0.3071
 4789W        W20683   0.544  14.337  13.507  0.0025 -0.0235 -0.0804
 4790W        W20684  11.746   5.282   2.692 -0.0596 -0.0430  0.0013
 4791W        W20685  15.333   9.362   3.099  0.0716  0.1019 -0.0910
 4792W        W20686   8.782   8.640  12.390  0.0745 -0.1419 -0.1504
 4793W        W20687   5.301  11.401   3.950  0.1055 -0.2636  0.1895
 4794W        W20688  11.272   5.181  13.695  0.3672  0.0204 -0.2051
 4795W        W20689  13.556   0.845   5.056  0.1470 -0.3538  0.1830
 4796W        W20690   4.699   6.348  11.299 -0.1988 -0.2298 -0.1950
 4797W        W20691   1.205  10.780   1.390  0.2716 -0.0631 -0.3425
 4798W        W20692   1.961   6.198  13.003  0.2060 -0.1081 -0.2386
 4799W        W20693   9.516  16.104   0.406  0.1727 -0.3004 -0.1977
 4800W        W20694  13.741  16.782   0.490  0.2511 -0.1090  0.2671
 4801W        W20695   1.428   6.241  13.362 -0.0802  0.0153  0.1891
 4802W        W20696   7.264   5.589  10.777  0.1000  0.1826  0.0610
 4803W        W20697  12.139  15.290   2.897  0.0759 -0.2541  0.1662
 4804W        W20698   5.718   5.083   0.384 -0.1687  0.0476 -0.0213
 4805W        W20699   9.500   0.448   4.860  0.2485  0.1061  0.0098
 4806W        W20700   6.398   4.653  14.899  0.1035  0.0525 -0.1402
 4807W        W20701  14.774   3.766   0.437  0.1153  0.2122  0.2551
 4808W        W20702  13.923  16.670  13.353 -0.0744  0.4532  0.1877
 4809W        W20703   6.670   7.320  13.937  0.0344 -0.0516 -0.0119
 4810W        W20704  16.422   8.609  14.937  0.0189  0.1597 -0.0775
 4811W        W20705   8.575   3.426  12.200 -0.0907 -0.1751  0.3428
 4812W        W20706   2.644  11.928  14.247  0.0801  0.1442 -0.1957
 4813W        W20707  11.038  17.675   2.599 -0.1985 -0.1782  0.0212
 4814W        W20708  14.254  13.716   1.676  0.2659 -0.0265  0.1568
 4815W        W20709   6.452  18.231   4.696  0.0773 -0.1631  0.1602
 4816W        W20710   9.357   3.590   3.101  0.2588 -0.3389 -0.0189
 4817W        W20711   8.820   9.585   3.587 -0.4416 -0.0600 -0.3654
 4818W        W20712  13.593  10.705  13.450 -0.1287  0.1124 -0.4269
 4819W        W20713  18.737   1.533   1.974 -0.0863 -0.0833 -0.2746
 4820W        W20714   2.204   8.986  13.439 -0.1809 -0.0649  0.0291
 4821W        W20715   1.976   9.336   2.918  0.1040  0.2440  0.2903
 4822W        W20716  18.487   3.142   5.066 -0.0122  0.0893  0.1107
 4823W        W20717  14.912   4.565  14.331 -0.2993 -0.0901  0.1893
 4824W        W20718   0.485  14.005  12.683  0.1783 -0.0686 -0.1469
 4825W        W20719   3.841   4.126  11.301 -0.1904  0.3341  0.2092
 4826W        W20720  13.994  18.650  10.898  0.1250  0.1432 -0.2413
 4827W        W20721   1.227  16.277   2.381 -0.1872  0.1728  0.4750
 4828W        W20722   5.833   3.920   1.173  0.1156 -0.1767 -0.0923
 4829W        W20723   4.769  18.546   3.489  0.0151 -0.2229 -0.2190
 4830W        W20724   6.032   3.753   1.589  0.0420 -0.1358 -0.5756
 4831W        W20725  13.991   2.667  14.257  0.6167  0.1457  0.1542
 4832W        W20726   3.007   8.682   1.917  0.0987 -0.4231 -0.2307
 4833W        W20727   5.317   9.913   1.572 -0.1686  0.0982 -0.2050
 4834W        W20728   3.299   7.061   1.004  0.0659  0.2764 -0.0999
 4835W        W20729   8.388   7.731  14.783  0.0089 -0.0810  0.0847
 4836W        W20730  15.117   3.468  12.820 -0.3261 -0.1977 -0.0358
 4837W        W20731   2.184   3.331  14.187  0.1767 -0.0268  0.0392
 4838W        W20732   7.732  13.034   5.071  0.1929 -0.0388 -0.0590
 4839W        W20733   2.650  12.876   1.650  0.1754  0.3993 -0.0933
 4840W        W20734   0.306   6.308   0.865 -0.3766  0.1303  0.1007
 4841W        W20735   8.127  11.850  11.068 -0.2278 -0.0365  0.0754
 4842W        W20736  17.841   3.718   5.565  0.2264  0.1024  0.4141
 4843W        W20737   0.479   4.600   4.338 -0.0003 -0.1081 -0.2114
 4844W        W20738   5.082  11.216   4.589 -0.1633  0.2234  0.1206
 4845W        W20739   5.227  10.379  12.498  0.1288  0.1152  0.0884
 4846W        W20740  14.683  18.841  14.070 -0.1106  0.3625 -0.1465
 4847W        W20741   9.037  17.949   1.535 -0.1884 -0.0464 -0.1260
 4848W        W20742   7.676   9.769   0.474 -0.3339 -0.0545  0.4777
 4849W        W20743  11.344   6.647   3.394  0.0288 -0.1200  0.0164
 4850W        W20744   3.585  17.694  14.432  0.0135  0.0032 -0.2967
 4851W        W20745  14.164  13.296   1.366  0.2233  0.2735 -0.2024
 4852W        W20746   9.430  16.050   4.627 -0.2624 -0.1500  0.2226
 4853W        W20747  16.347  14.428   3.274  0.0795  0.0170 -0.0074
 4854W        W20748  15.810  14.642   2.153  0.0533 -0.0476 -0.1257
 4855W        W20749  13.634   2.715  14.958 -0.1200 -0.2559 -0.0255
 4856W        W20750   5.688   0.476  11.201 -0.0771  0.2602  0.0730
 4857W        W20751   0.461  17.571   1.116 -0.0210 -0.1405 -0.0266
 4858W        W20752   1.571   2.614   2.812 -0.0356 -0.3449 -0.2907
 4859W        W20753  17.342  10.672  14.712  0.0453 -0.0128  0.2165
 4860W        W20754   5.411  12.171   4.378 -0.0165  0.2308  0.0948
 4861W        W20755  15.752  11.293   5.171 -0.2060  0.1560 -0.1781
 4862W        W20756   6.194   0.328   0.745 -0.3091 -0.1056  0.3253
 4863W        W20757   1.544   3.341  14.239  0.0506 -0.4150  0.5040
 4864W        W20758  16.761   2.877  11.082  0.2516  0.1491  0.1412
 4865W        W20759  16.510  15.804  13.212 -0.1718  0.1089  0.2732
 4866W        W20760  17.544   5.603  11.831 -0.0653 -0.1244  0.3387
 4867W        W20761   5.479  13.336  13.780  0.0045  0.0051  0.1794
 4868W        W20762   6.961  17.316  13.316  0.0087 -0.0905  0.2013
 4869W        W20763  15.472   2.136   4.221  0.3053 -0.0736 -0.5108
 4870W        W20764  16.357  11.255   4.685 -0.2198 -0.0270  0.0475
 4871W        W20765  13.911  12.001   3.893  0.0659 -0.0214  0.0872
 4872W        W20766  14.498  12.430   2.499 -0.2699  0.0914  0.0377
 4873W        W20767  10.783  14.836  10.784  0.0243  0.1174 -0.1757
 4874W        W20768  18.246   4.202   3.512 -0.0301  0.1407 -0.1497
 4875W        W20769  10.560  14.399  13.208  0.4255  0.1849  0.2353
 4876W        W20770   4.965  17.266  11.856 -0.0689 -0.0330 -0.2061
 4877W        W20771  12.196   3.248  12.881  0.1589 -0.1313  0.0818
 4878W        W20772   3.472   1.229  13.644  0.0079  0.0326  0.0111
 4879W        W20773  13.019   6.644  13.669  0.0232 -0.0714 -0.2547
 4880W        W20774   9.209   0.016   1.520 -0.0188 -0.0204  0.0575
 4881W        W20775  14.055   9.702   1.848  0.2602 -0.2961 -0.0395
 4882W        W20776   1.406   8.233  11.557 -0.0529 -0.2720 -0.0761
 4883W        W20777   3.417   1.934   4.230 -0.1034  0.1503 -0.1571
 4884W        W20778   5.561  14.816   9.778  0.0732 -0.0963 -0.0582
 4885W        W20779  13.910   0.457   5.302  0.1439 -0.3620  0.2837
 4886W        W20780   1.439  11.111  10.935 -0.2375 -0.1821 -0.0492
 4887W        W20781  15.045  17.798  12.192  0.2046 -0.2141 -0.0628
 4888W        W20782   8.728  13.891   4.328  0.1058  0.2803  0.3087
 4889W        W20783  19.153   3.756  12.032 -0.0185  0.0836 -0.2580
 4890W        W20784   5.204  15.778   0.668  0.1818  0.2592 -0.2299
 4891W        W20785  18.851  12.859  11.769 -0.1012  0.0278 -0.1616
 4892W        W20786  12.693  16.952  14.668 -0.2467 -0.4486  0.6067
 4893W        W20787   5.464  15.841  10.273 -0.3410  0.2778 -0.3428
 4894W        W20788  13.814  19.128  12.935  0.1770  0.2170 -0.1689
 4895W        W20789   1.191   2.933   4.818  0.1907 -0.2401  0.0957
 4896W        W20790   8.028  12.069  11.543  0.1272 -0.0177 -0.0292
 4897W        W20791  10.286  10.979  11.489 -0.0655 -0.0700  0.1598
 4898W        W20792   8.217  18.382  13.293 -0.0802 -0.0215  0.2571
 4899W        W20793   1.516  12.395  14.144  0.1343 -0.0708  0.1214
 4900W        W20794   9.868  18.670   0.609 -0.0976 -0.0552  0.1699
 4901W        W20795   4.499   7.830  12.427 -0.1535 -0.0296  0.0688
 4902W        W20796   9.083   8.387   3.486  0.0041  0.1360  0.1637
 4903W        W20797   1.671  14.247  15.056  0.0939  0.0034 -0.0386
 4904W        W20798  16.989  16.911   3.091  0.2887 -0.0477  0.2155
 4905W        W20799  14.599  15.646  12.930 -0.1815 -0.1612  0.1449
 4906W        W20800  13.603   3.359  14.918  0.0608 -0.1436 -0.1423
 4907W        W20801   5.826   5.312   1.955 -0.0282  0.0919  0.0805
 4908W        W20802   5.227  17.274  11.043 -0.2084 -0.4432  0.2001
 4909W        W20803   5.202  10.027  11.950  0.2288 -0.1252 -0.1085
 4910W        W20804  18.750   3.209   4.452 -0.0739  0.2272  0.0353
 4911W        W20805   4.000  16.471  11.552 -0.2309 -0.0593  0.2508
 4912W        W20806   6.226  10.532  10.857 -0.3308 -0.0897 -0.1301
 4913W        W20807  14.632   5.278   5.044  0.1733 -0.4325  0.4279
 4914W        W20808   8.238  16.656  15.159 -0.0501  0.0854 -0.0971
 4915W        W20809   9.593  11.996   3.398 -0.0398 -0.0540 -0.1621
 4916W        W20810   5.521  17.050   0.820 -0.0677 -0.0539 -0.1068
 4917W        W20811   9.931   4.955  13.664  0.1925  0.1004 -0.1100
 4918W        W20812  14.009  15.327  11.144  0.3508 -0.2723 -0.1321
 4919W        W20813  14.967  18.009  12.646 -0.1742  0.2522  0.0302
 4920W        W20814  18.715   5.039   1.885  0.0725 -0.1030  0.0684
 4921W        W20815  10.046   3.434  15.078  0.0762  0.1375  0.0728
 4922W        W20816   6.638  15.757   2.367 -0.3958 -0.0256  0.2092
 4923W        W20817   1.565  16.601   4.927  0.0032 -0.0488  0.0822
 4924W        W20818  12.700  10.760   2.086 -0.3031 -0.0045  0.1301
 4925W        W20819  11.593  13.453  11.828  0.0166  0.1982  0.2144
 4926W        W20820  17.891   6.965   1.670  0.0980 -0.2027 -0.0517
 4927W        W20821   7.585  10.582  11.776  0.0871 -0.4292  0.0669
 4928W        W20822  10.167  15.550   2.869  0.0481  0.0100 -0.1643
 4929W        W20823   1.973   1.776   3.085  0.1370 -0.0722 -0.0628
 4930W        W20824   8.579  19.009   0.426 -0.1548 -0.1119 -0.0454
 4931W        W20825   1.384  17.858  13.177 -0.2696 -0.0799 -0.0117
 4932W        W20826   0.732  15.796   1.617 -0.2442 -0.1508 -0.0005
 4933W        W20827   9.794   2.703   1.782 -0.2138  0.1188  0.0748
 4934W        W20828  15.829  17.401   3.231 -0.1054 -0.6635  0.1039
 4935W        W20829   7.029  10.821  14.256 -0.0831 -0.0067 -0.2070
 4936W        W20830  12.349   5.797  14.475  0.0386  0.1203 -0.3571
 4937W        W20831  17.958   0.522  11.359  0.3523  0.2222 -0.5073
 4938W        W20832   6.063  13.953  14.950 -0.4789  0.2053 -0.0357
 4939W        W20833   4.055  18.819   5.585  0.1023 -0.0906 -0.0753
 4940W        W20834   0.476   7.509   5.190  0.3047 -0.0715 -0.0469
 4941W        W20835   7.925   1.572  11.724  0.1726  0.1305 -0.0227
 4942W        W20836  18.877   7.400  12.271  0.2151  0.1806  0.0134
 4943W        W20837   5.915   8.788  10.820 -0.0708 -0.4403 -0.0178
 4944W        W20838   0.130   3.134  11.944  0.0652 -0.0646  0.1686
 4945W        W20839   1.266   5.449  12.917 -0.0960 -0.2531 -0.0525
 4946W        W20840   0.271  16.044   3.638  0.0352 -0.0296 -0.2472
 4947W        W20841  11.437   8.144  10.848 -0.2001 -0.0780 -0.2317
 4948W        W20842   9.077   5.950   2.369 -0.2153  0.0146 -0.3642
 4949W        W20843  11.867   4.346   3.142 -0.2740  0.1157 -0.3723
 4950W        W20844  12.877  15.470   0.977 -0.1877 -0.4394 -0.1046
 4951W        W20845  15.178   2.680   1.570  0.1578 -0.0741 -0.0154
 4952W        W20846  11.079  13.497   3.650  0.3091 -0.0417 -0.0262
 4953W        W20847  12.144   0.727   0.372  0.0102 -0.0570  0.2299
 4954W        W20848   3.631   0.406   1.882 -0.0530  0.2597 -0.0054
 4955W        W20849   0.720   5.739   0.400 -0.0601 -0.1222  0.0641
 4956W        W20850   4.618  15.759  11.995  0.3232 -0.3239  0.3016
 4957W        W20851  18.313   9.291   1.319  0.0926 -0.0706  0.4086
 4958W        W20852  18.994  15.378  10.435  0.0042 -0.1815 -0.3638
 4959W        W20853   9.559   6.264   3.496  0.2350 -0.2203 -0.3405
 4960W        W20854   6.260   5.512   1.076 -0.2273 -0.1078 -0.3274
 4961W        W20855  11.562  14.130   2.233  0.1966  0.1514 -0.5079
 4962W        W20856   3.639  17.812  10.254 -0.0480  0.3741 -0.1196
 4963W        W20857   0.889  19.187   1.105 -0.2519 -0.1933  0.0483
 4964W        W20858  14.135  13.493  11.201  0.2699 -0.2574  0.0087
 4965W        W20859  11.088  14.603  14.017  0.0002  0.1041 -0.1994
 4966W        W20860   4.259   6.536  13.183  0.1093  0.5092  0.0238
 4967W        W20861  10.383   4.949  14.511 -0.1190 -0.3292  0.0795
 4968W        W20862   2.422   1.727  14.427 -0.1031  0.2121  0.0175
 4969W        W20863   3.426   7.504  13.216 -0.2451 -0.2152 -0.0506
 4970W        W20864   2.490   0.327  11.382 -0.3574 -0.0579 -0.1628
 4971W        W20865  12.155  10.174  12.281  0.0799 -0.1054  0.0346
 4972W        W20866   7.153   8.783   5.360  0.2000 -0.0276 -0.0354
 4973W        W20867  10.918   4.950  12.205 -0.3170 -0.1078 -0.1526
 4974W        W20868  18.211   6.249  10.832  0.0435 -0.1182 -0.0627
 4975W        W20869   0.096   2.151   0.130  0.1951 -0.0414 -0.1274
 4976W        W20870   3.045  16.390  11.560  0.2996 -0.0923  0.0513
 4977W        W20871  18.048  13.855   4.427 -0.5047  0.1578  0.0466
 4978W        W20872   9.392  10.058   9.641 -0.2146  0.0701 -0.0274
 4979W        W20873  10.054  18.512   1.080 -0.1278  0.0407  0.0661
 4980W        W20874  10.406   8.927   3.407  0.0324  0.0580  0.0623
 4981W        W20875  18.097   4.812  15.165  0.1487 -0.0073 -0.1725
 4982W        W20876  17.569  18.662   0.821 -0.1212 -0.2062 -0.2343
 4983W        W20877   9.292  14.557   5.677  0.0273 -0.0052 -0.0215
 4984W        W20878   3.243   1.840   1.406 -0.2972  0.1152 -0.4354
 4985W        W20879   2.544   3.906  13.497 -0.1161 -0.2083 -0.3455
 4986W        W20880   9.102   3.430  14.413 -0.1206  0.0984 -0.2404
 4987W        W20881   5.542   3.684   1.495 -0.1760 -0.1691 -0.1065
 4988W        W20882   1.086   5.080  10.737  0.2307  0.3180  0.0295
 4989W        W20883  19.046   7.645  10.568 -0.1734  0.0104  0.0638
 4990W        W20884   3.439  14.753   0.041 -0.1644  0.0776 -0.0160
 4991W        W20885   5.646   0.624  14.197  0.0066  0.0213 -0.1547
 4992W        W20886   5.552  13.643   9.946  0.3590  0.0924 -0.2280
 4993W        W20887   5.414   9.891  10.779  0.0441 -0.1363  0.1427
 4994W        W20888  16.427  18.512  13.783 -0.1456  0.1296 -0.5032
 4995W        W20889  17.775  12.491  11.438 -0.3929  0.1127 -0.2702
 4996W        W20890  15.844   2.297   3.955 -0.3478 -0.2606  0.1319
 4997W        W20891   8.300   4.334   0.802 -0.2132 -0.1811 -0.0769
 4998W        W20892  18.695  14.925   2.322 -0.4149 -0.1574 -0.1302
 4999W        W20893  10.621  10.744   3.071 -0.0297 -0.1426 -0.3110
 5000W        W20894   5.264  15.756   1.300 -0.2708 -0.1470 -0.1204
 5001W        W20895   6.202   7.783  14.035 -0.2481  0.3171 -0.3808
 5002W        W20896  16.942   2.990   0.713 -0.2194  0.0612 -0.0720
 5003W        W20897   0.910   3.296   3.597  0.1016  0.0028 -0.3485
 5004W        W20898  11.577  15.286  11.115  0.1841 -0.1689  0.0506
 5005W        W20899  18.008  17.288   1.488  0.0476 -0.6036 -0.0068
 5006W        W20900  16.769   5.825  12.099 -0.0352 -0.0860 -0.0972
 5007W        W20901   2.398   7.941   4.500  0.1524 -0.1320 -0.4710
 5008W        W20902   4.229  12.840  12.639  0.2197  0.0597 -0.0054
 5009W        W20903  13.306  17.403  13.919 -0.1199 -0.0890 -0.2295
 5010W        W20904   0.224   7.757   3.773  0.0602 -0.1616 -0.2520
 5011W        W20905   0.498   5.854  13.398  0.0379  0.4718 -0.1159
 5012W        W20906   4.940   2.780  10.376 -0.0712  0.2023 -0.0628
 5013W        W20907  18.058   8.931  11.709  0.0527 -0.1014 -0.3009
 5014W        W20908   2.898   9.867   3.683  0.0501  0.2392  0.3050
 5015W        W20909   3.432  11.003  14.293 -0.2121  0.0497 -0.2294
 5016W        W20910  17.120  17.555   3.023 -0.2398 -0.1523 -0.1659
 5017W        W20911  14.028   6.232   4.071  0.2821 -0.0419 -0.0776
 5018W        W20912   9.852   3.600   4.939  0.0513 -0.2664  0.1577
 5019W        W20913   0.755  12.581  11.698  0.1584  0.1832 -0.0290
 5020W        W20914  10.776   4.822   1.385 -0.3851 -0.2142 -0.0722
 5021W        W20915   0.569  10.309  12.459  0.0360  0.0272  0.1021
 5022W        W20916   6.480  17.127  13.489 -0.4034 -0.0215 -0.0620
 5023W        W20917  14.638   8.654   4.841  0.4502 -0.2673  0.3093
 5024W        W20918  17.809  15.925  12.874  0.1922 -0.3742 -0.1317
 5025W        W20919   3.849   1.455  15.125 -0.2012  0.1157  0.2099
 5026W        W20920   7.650   2.348  13.576  0.1631 -0.0779  0.0138
 5027W        W20921  10.825   5.325   1.337 -0.2347 -0.0836  0.1632
 5028W        W20922   7.880   9.711  11.052  0.3422  0.1783  0.0264
 5029W        W20923  11.922   7.778   3.603 -0.0056  0.1360 -0.0264
 5030W        W20924  14.735   3.663   5.894 -0.0277 -0.0021  0.0735
 5031W        W20925  13.965   2.671   5.461 -0.4082 -0.2634 -0.0493
 5032W        W20926  16.807   6.305   3.625 -0.2246 -0.1784 -0.1723
 5033W        W20927  10.459   8.338   4.815  0.1424 -0.3754  0.0910
 5034W        W20928  18.663   2.175   4.007 -0.0452  0.1383 -0.4803
 5035W        W20929   7.901  10.928  12.113 -0.1888  0.3287 -0.0377
 5036W        W20930   1.839  18.209  13.253  0.2491  0.0296  0.4261
 5037W        W20931   6.592  11.738  12.741  0.0380  0.0687 -0.1417
 5038W        W20932   1.698  14.332  10.969 -0.2818  0.2501 -0.2164
 5039W        W20933   8.327   5.599  13.576  0.3777 -0.3749 -0.3228
 5040W        W20934   7.583   5.806  10.442 -0.1691 -0.1608  0.1732
 5041W        W20935  15.828  11.441   3.375  0.0687  0.0405 -0.1802
 5042W        W20936   6.198  13.124   3.903  0.2874 -0.0819  0.0885
 5043W        W20937  16.150  17.099  14.445 -0.0263  0.1061  0.2411
 5044W        W20938   7.744  12.936  10.790 -0.1197 -0.0213 -0.1211
 5045W        W20939   3.683   5.637   2.300  0.0051  0.0089 -0.3332
 5046W        W20940   9.529  14.241  11.646  0.0776 -0.1026  0.1387
 5047W        W20941   4.033   8.415  10.840 -0.1486 -0.0904 -0.3198
 5048W        W20942  17.442  14.361  13.259  0.2120  0.2000 -0.2154
 5049W        W20943  18.675  18.006  14.297 -0.0035  0.0758  0.1469
 5050W        W20944   5.435   2.844  11.462  0.1528 -0.0811 -0.0979
 5051W        W20945   4.596   5.370   2.047 -0.3032 -0.1636 -0.0596
 5052W        W20946   9.139  16.540   0.500 -0.4112 -0.0002  0.0523
 5053W        W20947   8.812  13.518  13.452  0.3088  0.0039 -0.3043
 5054W        W20948  15.804  11.543   1.199 -0.1141  0.1904  0.1890
 5055W        W20949  16.150  14.634   1.852 -0.1206 -0.2447  0.1898
 5056W        W20950  18.567   5.731   3.347 -0.1642  0.2078 -0.2360
 5057W        W20951   3.538  13.697  11.738 -0.0899 -0.2081 -0.1530
 5058W        W20952  14.957  13.968  13.546 -0.0095 -0.1039 -0.0252
 5059W        W20953   1.546   6.876   1.253  0.3160  0.0990  0.2812
 5060W        W20954  13.511  10.336  12.538 -0.1363 -0.2904  0.2014
 5061W        W20955   5.810   4.723  15.138  0.1674  0.1078 -0.1387
 5062W        W20956  19.054   5.357  12.140  0.0446 -0.2723 -0.0830
 5063W        W20957   5.338   5.629  13.387  0.1179 -0.0808  0.0598
 5064W        W20958   1.183  11.459   3.660  0.0143 -0.0364 -0.0407
 5065W        W20959  16.503   9.010   5.598  0.1768  0.0252  0.1093
 5066W        W20960   0.478  11.501  13.685  0.2023 -0.0205  0.0764
 5067W        W20961   0.753  18.447   2.684  0.2930 -0.1618  0.0605
 5068W        W20962  12.263   6.714  13.153 -0.0914 -0.1294 -0.1598
 5069W        W20963  10.606   2.379  14.383  0.0956 -0.1038 -0.1906
 5070W        W20964  18.935  17.487   1.893  0.1755  0.2000 -0.2576
 5071W        W20965   9.813  13.952   4.778  0.0047  0.1240  0.0270
 5072W        W20966   0.367   5.519   2.950  0.0261 -0.3798 -0.0141
 5073W        W20967   3.186  14.348   1.916  0.1814 -0.0690 -0.0660
 5074W        W20968  17.995   1.890   4.779 -0.3030 -0.1174 -0.0032
 5075W        W20969   5.306   4.686   0.505 -0.0047  0.1234 -0.0017
 5076W        W20970   7.684  12.515   3.675 -0.1608  0.1831 -0.0949
 5077W        W20971   4.055  14.170  14.580  0.0609  0.0789 -0.3593
 5078W        W20972  14.594   1.373  12.452  0.0544 -0.2682  0.1332
 5079W        W20973  18.095   6.105   3.901 -0.0798 -0.1229  0.3313
 5080W        W20974  11.562   6.207  14.033  0.0608  0.1422  0.2342
 5081W        W20975  13.342  15.167  11.137 -0.0278 -0.1692  0.0690
 5082W        W20976  17.917  18.713   5.050 -0.0517 -0.0116  0.0753
 5083W        W20977  16.764   0.182   2.651 -0.0896  0.0639 -0.1889
 5084W        W20978  12.204  15.818   1.456  0.1568  0.2763  0.2254
 5085W        W20979   7.369  13.511   1.622  0.2169 -0.0012  0.1636
 5086W        W20980  10.725   9.994  10.970 -0.0561  0.1741  0.1535
 5087W        W20981   5.827   8.859   2.078 -0.0506 -0.3947 -0.1100
 5088W        W20982  14.609   1.626   5.164 -0.0837  0.1342 -0.3217
 5089W        W20983   8.954   8.206   1.396 -0.0833  0.2366  0.2072
 5090W        W20984   2.785  17.975   1.541  0.1219  0.1541 -0.4156
 5091W        W20985   8.441  15.988  12.015  0.0653  0.1413 -0.0282
 5092W        W20986  16.396  18.257   2.990  0.3350  0.0633  0.1730
 5093W        W20987   3.880  14.576   3.750  0.4771  0.0561 -0.1754
 5094W        W20988  18.325  18.887   1.538 -0.2745  0.3510  0.1656
 5095W        W20989   5.244  10.363   3.778  0.2182 -0.0385 -0.2507
 5096W        W20990  17.136   7.458   0.230 -0.0556 -0.1438 -0.0962
 5097W        W20991   2.275  15.089   2.034 -0.0338 -0.1808  0.0080
 5098W        W20992  18.675  11.066   9.660  0.1343  0.1685  0.2559
 5099W        W20993  11.568   3.449  13.909  0.1733 -0.0596 -0.0311
 5100W        W20994  18.872  17.286   5.661  0.3121  0.1340  0.0250
 5101W        W20995  14.946   9.603   0.288  0.0653 -0.2589 -0.0919
 5102W        W20996  10.767   9.847  13.711  0.0804 -0.1946 -0.1311
 5103W        W20997   7.784   5.579  12.810 -0.0604  0.2485 -0.0395
 5104W        W20998   4.351  19.096  12.836 -0.0461  0.0067 -0.0483
 5105W        W20999  12.959   6.527  14.579  0.1686  0.2084 -0.1893
 5106W        W21000   4.625  13.133   2.752 -0.1439  0.1527 -0.3249
 5107W        W21001  16.600   8.072  13.298  0.0901 -0.3538 -0.1848
 5108W        W21002  11.428   1.009   4.146  0.0232 -0.0654  0.0226
 5109W        W21003  12.474   3.234  12.345 -0.1198  0.0290 -0.2744
 5110W        W21004   6.172   5.700  14.153  0.2968  0.0540  0.0237
 5111W        W21005  14.811   0.459  12.974  0.4194  0.1650 -0.2215
 5112W        W21006  10.111   6.999  11.968  0.2011  0.0077  0.1778
 5113W        W21007   1.890  12.650   2.321  0.0332 -0.4472 -0.0025
 5114W        W21008   8.195   4.781   2.650 -0.1555 -0.0273  0.2330
 5115W        W21009  13.190   4.519  13.668  0.2393 -0.1151 -0.1788
 5116W        W21010  16.087  11.461   0.549 -0.1369 -0.1640  0.3228
 5117W        W21011  13.293  14.782  14.826 -0.4044  0.0778 -0.0464
 5118W        W21012   8.340   9.978   1.637 -0.0172  0.1993  0.1441
 5119W        W21013  17.763   5.848   0.586  0.1551  0.0007  0.0230
 5120W        W21014  13.205  17.335   2.770 -0.0561  0.0502  0.1581
 5121W        W21015   5.188  16.167  12.525  0.1422  0.4071  0.2468
 5122W        W21016   7.666  10.104   4.295  0.5040  0.0881  0.1570
 5123W        W21017   5.270   8.071  10.940  0.0985 -0.1206  0.2356
 5124W        W21018   7.327  12.305   3.402 -0.1759  0.0018  0.1759
 5125W        W21019  13.041   5.332   5.343 -0.0681 -0.1686  0.1505
 5126W        W21020  15.344   3.744   1.338 -0.0778 -0.0513 -0.0884
 5127W        W21021  12.166   3.147  10.717 -0.0899  0.1238 -0.1977
 5128W        W21022   8.252   6.112  12.428  0.0382  0.2898 -0.1436
 5129W        W21023   5.862  10.589   4.732 -0.0782 -0.2420  0.0103
 5130W        W21024  13.942   1.828  11.944 -0.0158 -0.2229 -0.0038
 5131W        W21025   6.144   5.941  11.740 -0.0631 -0.1800 -0.0097
 5132W        W21026  12.783   2.788   4.303  0.0211  0.0387 -0.0652
 5133W        W21027   3.816   1.409  13.095  0.0651  0.1560 -0.1077
 5134W        W21028   9.958  13.580   3.133  0.1000  0.0103  0.4023
 5135W        W21029   8.738   9.258  10.690  0.1638 -0.3338 -0.3694
 5136W        W21030   3.931   3.001   4.408 -0.2491  0.4400 -0.3341
 5137W        W21031  18.613  17.082  12.917  0.4342  0.3758 -0.1299
 5138W        W21032   2.594   1.833   4.488  0.0130 -0.0743  0.0808
 5139W        W21033   6.846   1.520  14.376  0.0150  0.0668  0.2551
 5140W        W21034  13.347   2.712   1.949  0.0096 -0.1836  0.1019
 5141W        W21035   1.351   2.540   5.665 -0.1592 -0.1268  0.1208
 5142W        W21036  18.577   6.210   4.805  0.0900  0.5124  0.3563
 5143W        W21037  15.487  18.862   4.753 -0.1763 -0.3239 -0.1573
 5144W        W21038   7.965   1.505  13.425  0.2185  0.0600 -0.1267
 5145W        W21039  15.488   2.104   3.580  0.0908 -0.0503 -0.0182
 5146W        W21040  17.238  11.571  14.339  0.1589  0.0112  0.0297
 5147W        W21041  10.405  16.415   4.695  0.0997 -0.4139  0.0488
 5148W        W21042  15.177  12.752   2.070 -0.1953 -0.1890 -0.1106
 5149W        W21043   6.021  10.239  11.270  0.0213  0.0236  0.0097
 5150W        W21044  11.212   4.688  13.129 -0.1145  0.0733  0.3020
 5151W        W21045   5.994   7.394   3.682 -0.0845 -0.0412 -0.2727
 5152W        W21046  16.845   8.812   1.272 -0.4221 -0.2564  0.3849
 5153W        W21047  14.564  18.105   5.125  0.1291  0.0359 -0.1330
 5154W        W21048  14.222  18.546  14.148  0.2102 -0.1505  0.0452
 5155W        W21049   3.410   8.162  11.455 -0.2304  0.0542  0.0664
 5156W        W21050  14.303   5.607   1.648  0.0958 -0.3697  0.1675
 5157W        W21051   8.472   2.081  11.080 -0.0231 -0.0635 -0.0048
 5158W        W21052  10.156  12.987  14.042  0.2195  0.2401  0.1989
 5159W        W21053   9.870  19.132   0.814 -0.0210  0.1145  0.2413
 5160W        W21054  14.093  12.131  15.177  0.1873 -0.1462  0.1321
 5161W        W21055  18.825  16.776   4.409  0.0606  0.1599  0.0226
 5162W        W21056   3.240   8.160   1.627 -0.1765  0.1686 -0.1694
 5163W        W21057   5.382   2.182  12.393  0.3525 -0.1721  0.0601
 5164W        W21058  13.989   2.810   3.817  0.1110  0.1142 -0.0878
 5165W        W21059   0.232  13.118   4.282  0.0590  0.1658  0.0786
 5166W        W21060   3.707  12.157   4.555 -0.2536 -0.4423 -0.0425
 5167W        W21061  16.455  18.713  12.923 -0.0775  0.1164  0.1555
 5168W        W21062   2.114   3.995  14.605  0.0317 -0.1282  0.1588
 5169W        W21063  10.795   1.392   2.209  0.0549 -0.0700  0.1913
 5170W        W21064   8.664  15.364   1.768 -0.0856  0.0840 -0.0838
 5171W        W21065  16.169  17.647   5.112 -0.2257 -0.1383  0.0422
 5172W        W21066   3.893   3.997   2.704  0.1623  0.0331 -0.0274
 5173W        W21067   0.831   6.732   2.129  0.1891 -0.2451  0.2616
 5174W        W21068  13.025   1.912   2.136 -0.3212 -0.0477 -0.2544
 5175W        W21069  10.520   0.723  13.217 -0.1454 -0.4971 -0.1552
 5176W        W21070   6.764   4.312   0.763 -0.1264  0.0830 -0.1304
 5177W        W21071  11.175   7.544  11.433 -0.2177  0.2161  0.1714
 5178W        W21072  12.450   4.129  11.523  0.1534 -0.3781 -0.2016
 5179W        W21073   7.817   0.936   0.380 -0.2781 -0.3112 -0.1665
 5180W        W21074  17.594  16.646   0.794  0.0083  0.1863 -0.0179
 5181W        W21075  15.379  15.955   4.952 -0.0451 -0.0680 -0.0544
 5182W        W21076  16.914   7.014  11.433 -0.0327 -0.1162  0.1989
 5183W        W21077   8.722   8.832  10.282 -0.0694 -0.2054  0.1161
 5184W        W21078   1.769   4.187   0.870  0.0725  0.0650 -0.0138
 5185W        W21079  14.918  10.945  10.869 -0.1240 -0.0440 -0.0270
 5186W        W21080   1.298  14.507  14.344 -0.1450 -0.2664  0.0668
 5187W        W21081  14.108  12.211   4.888 -0.1608 -0.3527 -0.1339
 5188W        W21082   2.674   7.231  12.817 -0.0599 -0.1885  0.1065
 5189W        W21083  13.823   1.845   2.101  0.0271  0.2119 -0.0435
 5190W        W21084  10.511   6.857   0.406 -0.0758 -0.1888  0.2089
 5191W        W21085   0.452   4.897   1.855 -0.0429 -0.1868 -0.2785
 5192W        W21086   7.752  15.514  12.370  0.1247  0.0661 -0.0432
 5193W        W21087  10.848   7.103  11.510  0.0670 -0.2696 -0.0040
 5194W        W21088   2.120   5.430   4.058 -0.1325 -0.1081 -0.0764
 5195W        W21089  11.688  13.843   3.089  0.2241 -0.0014 -0.2677
 5196W        W21090   5.261   7.536  13.661  0.0384  0.1331  0.2897
 5197W        W21091   3.392   2.400  12.018  0.0146 -0.2061  0.3796
 5198W        W21092  13.021   6.020  12.144 -0.1870  0.0401  0.1403
 5199W        W21093   6.893  11.058   2.553  0.0033  0.2213 -0.1870
 5200W        W21094   6.032  16.921  13.681 -0.0197 -0.0127 -0.0191
 5201W        W21095  13.440   4.429   1.682 -0.1934  0.0243 -0.1753
 5202W        W21096   3.829  14.965   2.870  0.1734  0.2185  0.2654
 5203W        W21097   7.492   8.350  14.328 -0.0823 -0.1868  0.1853
 5204W        W21098   6.252  11.391   3.141 -0.3725 -0.0792 -0.0238
 5205W        W21099   7.023  11.844  14.596 -0.2813  0.3621 -0.1193
 5206W        W21100   8.821  10.074  13.331  0.1645 -0.1482  0.1455
 5207W        W21101  18.364   0.850   1.390 -0.0881  0.0064  0.0248
 5208W        W21102  16.266   0.810  11.658  0.1303 -0.0754 -0.1654
 5209W        W21103   5.723   2.357   1.977  0.0072  0.0609  0.0830
 5210W        W21104  19.009  15.009   4.875 -0.1129 -0.0476 -0.1685
 5211W        W21105   5.915  11.350  15.053  0.0575 -0.1731 -0.0294
 5212W        W21106  12.057   3.041   2.622 -0.0327  0.2265  0.0565
 5213W        W21107  17.312   7.871  10.499 -0.1022  0.0527 -0.0395
 5214W        W21108  12.696   6.680   2.319  0.3491 -0.0613 -0.1919
 5215W        W21109   9.003   1.014   4.678  0.0257  0.0063 -0.0767
 5216W        W21110  10.483  16.455  10.332  0.1146 -0.2335 -0.1080
 5217W        W21111   0.352   2.524   1.479  0.0039  0.0023  0.2906
 5218W        W21112  10.115   4.324   3.475 -0.0837  0.2118  0.2691
 5219W        W21113   5.102  11.348   1.500 -0.0406 -0.0982  0.0943
 5220W        W21114   1.606   3.808  11.516  0.1720 -0.1451 -0.1323
 5221W        W21115   9.987   9.995   3.796  0.3035  0.0421 -0.0005
 5222W        W21116  17.234   0.365  15.075  0.1766 -0.0045  0.0255
 5223W        W21117   2.263  18.184   2.759  0.0367 -0.0968 -0.0099
 5224W        W21118   2.701   2.666  13.834 -0.0348  0.0092  0.1702
 5225W        W21119  11.814  19.180  12.520 -0.3204 -0.1430 -0.0431
 5226W        W21120   5.201  17.426  12.708  0.0040 -0.1937  0.1705
 5227W        W21121  11.788  15.386  13.323 -0.2020  0.4207  0.2491
 5228W        W21122  16.120   6.889   0.856 -0.1238 -0.0781 -0.0019
 5229W        W21123   8.610  18.329   1.129 -0.0021 -0.1240  0.0795
 5230W        W21124  18.615   2.633  14.541 -0.1829 -0.1071 -0.1185
 5231W        W21125   6.910   0.686   2.934 -0.0521  0.3550  0.0797
 5232W        W21126  11.279   1.187   2.201  0.3215  0.3637 -0.5496
 5233W        W21127  13.166  18.116   4.706 -0.0204 -0.0962  0.0021
 5234W        W21128  10.980  15.163   3.877 -0.2878  0.0647  0.2912
 5235W        W21129   1.286  15.789   4.060  0.0144 -0.0376 -0.0145
 5236W        W21130  16.953  12.809  13.825 -0.0901  0.0386 -0.3277
 5237W        W21131  13.376  16.394   0.221 -0.4072  0.3722  0.0885
 5238W        W21132  15.261   0.373   2.378 -0.4756 -0.0328  0.1809
 5239W        W21133  13.458   6.509  11.418  0.2205 -0.1406 -0.2815
 5240W        W21134   7.629   9.246  10.633  0.2680 -0.0872 -0.2750
 5241W        W21135  18.845   6.110  14.758  0.3432 -0.0658  0.0706
 5242W        W21136   2.523   9.231  10.767  0.1292  0.0562 -0.3721
 5243W        W21137  17.837  10.428   0.311  0.0322  0.1030 -0.1863
 5244W        W21138  17.871  15.202   3.022  0.1985  0.0327  0.2071
 5245W        W21139  13.421   3.149  13.130  0.2246  0.0432  0.1584
 5246W        W21140   9.159   8.985  11.243  0.3985 -0.0095 -0.2614
 5247W        W21141  15.472   9.486  11.329  0.1922  0.1371 -0.0719
 5248W        W21142  14.866  13.381   4.543  0.4697  0.0651  0.0231
 5249W        W21143  14.918  18.730   3.959  0.0349 -0.0212  0.0297
 5250W        W21144  11.941  14.612   2.484 -0.2624  0.5933  0.0945
 5251W        W21145  18.513  17.686   4.673  0.0769 -0.2159  0.0106
 5252W        W21146  13.374   0.033   3.237 -0.0744 -0.2393 -0.2318
 5253W        W21147  16.479  10.376   3.126 -0.3229  0.0934  0.1331
 5254W        W21148   6.013  13.904   5.288  0.0882 -0.0474  0.1548
 5255W        W21149  11.105  11.709   0.698 -0.0401  0.0648  0.2489
 5256W        W21150   1.263   7.519   9.585 -0.2655 -0.0308  0.1363
 5257W        W21151   2.524   2.268  11.367 -0.2829 -0.0096 -0.1783
 5258W        W21152  10.437   7.812   1.555  0.1249 -0.0140 -0.0759
 5259W        W21153  11.912  13.434  13.043  0.4066  0.3072  0.1869
 5260W        W21154  15.034   5.814   2.650 -0.1767 -0.2461 -0.3387
 5261W        W21155  13.178   8.031   2.007  0.1777  0.0293  0.1908
 5262W        W21156   8.209  11.636  14.869 -0.0767 -0.3587  0.1602
 5263W        W21157   9.425   8.149  12.026  0.0375  0.2362  0.0764
 5264W        W21158  13.481   5.686  13.098  0.2285  0.0886  0.3823
 5265W        W21159   4.084   9.241   0.300 -0.1420  0.0465  0.1835
 5266W        W21160   2.354  17.456  11.060 -0.2397 -0.0592  0.1665
 5267W        W21161   5.207   3.290  11.544  0.3687 -0.2995  0.0916
 5268W        W21162   2.085  14.710   4.682  0.0434  0.4137  0.1124
 5269W        W21163   6.218   9.452   0.394 -0.2492 -0.1570  0.1161
 5270W        W21164  15.948   2.450   0.881 -0.2176  0.1711 -0.0300
 5271W        W21165  14.099   0.080  15.122 -0.0612 -0.0457 -0.3722
 5272W        W21166   0.504   0.603  14.280  0.1030 -0.0290 -0.0993
 5273W        W21167  13.350  11.001   5.245 -0.3846  0.0843 -0.0792
 5274W        W21168   6.405  10.466   3.974  0.1936  0.1954 -0.0282
 5275W        W21169  13.478   7.897  11.792 -0.0475 -0.0149 -0.0884
 5276W        W21170  17.847   4.709  11.512  0.0161 -0.2710 -0.0216
 5277W        W21171   0.831   2.799  13.181 -0.0912  0.0340  0.0687
 5278W        W21172  17.465  10.267  12.992 -0.1964 -0.2376  0.0875
 5279W        W21173   3.176   6.359  12.406  0.2358  0.0597  0.0729
 5280W        W21174  18.774   5.633   2.803 -0.1189 -0.1037 -0.0505
 5281W        W21175   3.519  14.572  13.120  0.0824 -0.1281  0.1670
 5282W        W21176  13.878  13.673  14.771  0.2369  0.2762 -0.1605
 5283W        W21177   9.562   8.249   4.349  0.2025  0.1002 -0.0818
 5284W        W21178  11.905  13.047  12.008 -0.0040  0.0693 -0.0570
 5285W        W21179   1.611  17.395  11.324  0.0352 -0.0273 -0.4425
 5286W        W21180  13.040  11.434   3.824 -0.0701 -0.1138  0.1750
 5287W        W21181  14.836  16.610   4.998 -0.1483 -0.0508  0.0895
 5288W        W21182   2.067   8.361  12.461 -0.2157  0.2300 -0.1261
 5289W        W21183   9.760   5.562  13.009  0.3069  0.3041 -0.0184
 5290W        W21184   7.412  11.024  14.950  0.2445 -0.3097  0.0281
 5291W        W21185  10.457  12.330   1.868 -0.0842 -0.2149 -0.0672
 5292W        W21186   8.415  18.860  13.207 -0.1844  0.0268 -0.1515
 5293W        W21187   0.115   6.802   1.803  0.3567 -0.0679  0.2066
 5294W        W21188   0.625  14.460   1.499 -0.1205  0.1219 -0.2565
 5295W        W21189  13.522  14.184   9.791  0.0158 -0.0622 -0.0393
 5296W        W21190  10.867   4.872   2.635  0.0178  0.1245  0.2213
 5297W        W21191  12.478   7.131  11.045  0.2691 -0.1105  0.1189
 5298W        W21192   3.963  11.523   2.146 -0.0991  0.0331 -0.0808
 5299W        W21193  12.060   0.899  14.692 -0.0277 -0.1063  0.2272
 5300W        W21194   8.296  14.030   2.120  0.0556 -0.1092  0.0756
 5301W        W21195   2.515  15.966   1.362 -0.0025  0.1867 -0.1913
 5302W        W21196  12.351  17.095  13.177 -0.0028 -0.1653  0.3214
 5303W        W21197  18.807  12.282   0.214 -0.0897 -0.0194  0.4444
 5304W        W21198  16.238   5.342  12.193 -0.0740 -0.0636  0.1249
 5305W        W21199  11.571   0.197  14.630 -0.1457  0.0280  0.2370
 5306W        W21200  10.800  12.515   5.503  0.0933  0.2263 -0.2568
 5307W        W21201   8.905   3.893  11.081  0.0945 -0.2785  0.1774
 5308W        W21202   7.626  14.182  14.424 -0.1302  0.2466 -0.3122
 5309W        W21203  13.494  18.420  14.391 -0.0966 -0.0380  0.4958
 5310W        W21204   9.364   8.950  13.059  0.1116  0.1374  0.1167
 5311W        W21205  13.561  10.041   4.308 -0.3721  0.0081 -0.3697
 5312W        W21206   2.838  15.692  14.736 -0.1854 -0.0092  0.1494
 5313W        W21207   3.065  16.548  10.486 -0.0724 -0.3673  0.0364
 5314W        W21208   2.290   0.305  14.653  0.1658  0.1523  0.0288
 5315W        W21209   8.163  12.259   1.116  0.0422  0.2704 -0.0328
 5316W        W21210   8.223   6.323   0.797 -0.0560  0.0376  0.1500
 5317W        W21211   4.451   6.328   3.624 -0.3616 -0.1156 -0.0638
 5318W        W21212  16.203   6.347  13.176  0.1016 -0.1944  0.1291
 5319W        W21213  12.187   2.720   5.080 -0.0996 -0.2487  0.2242
 5320W        W21214   5.712   6.458  14.522 -0.2896 -0.3028  0.0126
 5321W        W21215  14.890  15.507  11.741  0.4412  0.2055  0.0929
 5322W        W21216   8.085  15.466  11.153 -0.5785  0.0563  0.1447
 5323W        W21217  18.575   8.772  10.987 -0.1727 -0.0413  0.1379
 5324W        W21218   9.330  13.719  10.038  0.3135  0.0948  0.1240
 5325W        W21219  18.468  12.781  12.120 -0.0352  0.1086  0.1127
 5326W        W21220   1.912  12.743  13.117 -0.0193  0.2047  0.0904
 5327W        W21221   1.710   2.837  11.050 -0.2738 -0.1592  0.0856
 5328W        W21222   0.319  12.941  13.645 -0.0525  0.1330  0.2994
 5329W        W21223  16.657  10.809   9.475  0.2899  0.2750 -0.2521
 5330W        W21224   9.432   1.458  11.809 -0.1183 -0.0917 -0.1170
 5331W        W21225  10.867   0.086  12.828 -0.4250  0.1252 -0.1476
 5332W        W21226   7.986   5.627  14.708  0.2789  0.1041  0.1084
 5333W        W21227   6.288  15.439  10.110 -0.0496 -0.0281 -0.1312
 5334W        W21228  16.046   4.465  11.367  0.0613  0.2306  0.0860
 5335W        W21229  14.843  16.226  14.610  0.2165 -0.0008  0.1735
 5336W        W21230  17.778   1.944  14.278  0.0866 -0.0294 -0.1907
 5337W        W21231   7.270   2.042   0.648 -0.4204 -0.0741 -0.1936
 5338W        W21232  10.615   9.747   4.715  0.1660  0.0347  0.3709
 5339W        W21233  13.934   2.080  11.010  0.1709  0.1441  0.2471
 5340W        W21234  11.045  13.332  14.226  0.1835 -0.1231 -0.3800
 5341W        W21235   8.762  11.625  10.309  0.0721 -0.3984 -0.3050
 5342W        W21236  17.369  17.596   0.031  0.0482 -0.1419 -0.2112
 5343W        W21237   2.504   3.929   2.622  0.1109 -0.0817 -0.2615
 5344W        W21238   1.648   9.115   2.501 -0.0423 -0.0012 -0.2307
 5345W        W21239   0.913  19.022   4.698  0.0340 -0.1569  0.0414
 5346W        W21240   5.511   9.266  14.157  0.0800  0.0720  0.0721
 5347W        W21241   8.227  10.739   9.483 -0.1018 -0.3317  0.1780
 5348W        W21242  16.759   4.483   4.492  0.1067 -0.2378 -0.2113
 5349W        W21243   9.974  12.601   0.025 -0.0213 -0.0331  0.0682
 5350W        W21244  13.948  17.523   4.949 -0.1249  0.0847  0.1598
 5351W        W21245   1.370  11.324  14.631  0.1823  0.1578  0.0464
 5352W        W21246   4.776   6.051   2.675  0.1333  0.0019  0.1990
 5353W        W21247   1.788   5.588   3.726  0.3452  0.2131  0.1444
 5354W        W21248  18.565  18.129  12.733  0.3268  0.3603 -0.2277
 5355W        W21249   0.340  14.303   3.810  0.1929  0.0333  0.0132
 5356W        W21250  16.959   3.477  11.993 -0.1988  0.2562 -0.1545
 5357W        W21251   8.558   0.706   0.816 -0.1031 -0.1050 -0.1402
 5358W        W21252   5.106   3.109   4.762  0.1774 -0.2235  0.0145
 5359W        W21253  13.060  10.334  11.750  0.0239 -0.3292  0.2953
 5360W        W21254  16.972   4.810  12.287 -0.4884 -0.0309  0.0211
 5361W        W21255  17.748  15.876  11.673  0.1685 -0.3729  0.1749
 5362W        W21256   0.558   8.806  12.356  0.0109  0.2020 -0.0646
 5363W        W21257   6.380   3.845  12.830 -0.1126  0.0539 -0.4352
 5364W        W21258  15.806  10.746   1.773 -0.0367 -0.1192 -0.0236
 5365W        W21259   9.413  17.990  11.922  0.3574  0.0881 -0.2096
 5366W        W21260   6.136  11.556   2.194  0.1842 -0.1691 -0.0181
 5367W        W21261   6.483   2.907   0.423  0.0665  0.0721 -0.2445
 5368W        W21262   9.162   4.717  12.924  0.2921 -0.1098 -0.2644
 5369W        W21263   3.925  10.589  14.083  0.0794 -0.1005 -0.1392
 5370W        W21264  17.577  11.639   1.593 -0.1104  0.1576  0.0623
 5371W        W21265  15.484  14.840   3.304 -0.3098 -0.2064 -0.0104
 5372W        W21266   0.248   2.535   3.599  0.1335  0.0392 -0.0063
 5373W        W21267  14.318   2.668   0.558 -0.0889 -0.1847 -0.0053
 5374W        W21268   3.928  15.361   0.825 -0.0174 -0.1360 -0.1645
 5375W        W21269   7.129   7.857  13.136 -0.3857 -0.4782  0.1632
 5376W        W21270  15.974  10.456   1.374  0.0061 -0.0711 -0.0473
 5377W        W21271  17.669   5.263   1.295 -0.0326  0.2705  0.2536
 5378W        W21272  14.908   6.078   4.832 -0.0312  0.0136 -0.2239
 5379W        W21273   8.827   0.708  11.618  0.2028  0.1284 -0.3948
 5380W        W21274   8.901  16.226   5.512  0.0585  0.1446  0.3319
 5381W        W21275  12.411   2.752  15.092  0.1107  0.2490 -0.1397
 5382W        W21276  18.855   2.466  10.896 -0.1239 -0.2932  0.1051
 5383W        W21277  15.027   5.330  13.965  0.0385  0.0934  0.4091
 5384W        W21278   4.000  10.705  12.611 -0.1089 -0.2947  0.1466
 5385W        W21279   6.233   9.822  12.965 -0.0839  0.3806  0.1876
 5386W        W21280  13.346  15.794   2.159  0.3834 -0.0137 -0.0077
 5387W        W21281  12.285  10.562   0.677 -0.0147 -0.1037 -0.0132
 5388W        W21282   2.620   7.008   2.105  0.1244  0.0040  0.0798
 5389W        W21283  16.677   8.628  10.506 -0.1435  0.2606 -0.1771
 5390W        W21284   7.769  17.618   0.176  0.1444  0.0681  0.1021
 5391W        W21285   4.693  10.522   3.512  0.1179  0.1201 -0.1480
 5392W        W21286   2.388   9.156  12.092  0.0782 -0.0819 -0.0340
 5393W        W21287   6.277  12.185  13.626  0.0805 -0.0008  0.0935
 5394W        W21288  18.442  15.528  10.625  0.4174  0.1636  0.0085
 5395W        W21289  11.534   0.748   1.355 -0.0334  0.0228  0.0908
 5396W        W21290  17.059   7.504  14.867  0.0798 -0.1926 -0.0849
 5397W        W21291   0.744  13.886   4.456 -0.0911  0.4464  0.0467
 5398W        W21292  12.207   2.303  11.266  0.0910 -0.2871 -0.3823
 5399W        W21293   4.845  14.243  11.011 -0.1396  0.0376  0.0796
 5400W        W21294  17.055  18.672   3.486 -0.0334  0.3524  0.3127
 5401W        W21295   8.218  11.286  13.504 -0.1475  0.0933  0.1736
 5402W        W21296   5.739   7.083   4.035  0.0835  0.0594 -0.0623
 5403W        W21297   1.763  13.372   0.589  0.1939  0.0453  0.3206
 5404W        W21298  17.286   4.523  13.147  0.1338  0.1917 -0.1612
 5405W        W21299   6.366  19.035  12.155 -0.0854  0.4068  0.0532
 5406W        W21300   1.628  14.182   5.295 -0.0444 -0.2440  0.0762
 5407W        W21301   7.450  13.506  15.176  0.2128  0.0694  0.2810
 5408W        W21302   8.238   4.652   3.669  0.1719  0.2172 -0.1271
 5409W        W21303   0.652  16.560   4.355 -0.1209 -0.0987  0.1881
 5410W        W21304  14.617   4.760   4.210  0.2682  0.0333 -0.2160
 5411W        W21305  15.747   8.608   1.110  0.1162 -0.1665  0.2116
 5412W        W21306  10.817  16.235   0.339 -0.2460 -0.1162  0.1227
 5413W        W21307   4.118  12.785  14.337  0.1141 -0.1039  0.0674
 5414W        W21308   2.448  11.104   1.371  0.1191 -0.3278 -0.2482
 5415W        W21309  12.567  12.866   1.489 -0.1455  0.1734  0.1742
 5416W        W21310   3.351  14.760   2.834 -0.4233 -0.0169 -0.1109
 5417W        W21311  15.419  12.512   4.315  0.0022  0.0976  0.1243
 5418W        W21312  12.998   0.537   5.267  0.4115 -0.2744  0.0875
 5419W        W21313  10.870   3.830  12.334 -0.3350  0.2239  0.0280
 5420W        W21314  19.000   1.218   0.173  0.2291  0.0819 -0.0530
 5421W        W21315   1.188  11.830   4.177 -0.0248  0.0361 -0.0203
 5422W        W21316   4.169   9.885  12.008  0.3172  0.0323 -0.2312
 5423W        W21317  19.033   5.355  11.153 -0.1452 -0.1127 -0.1789
 5424W        W21318  15.532  19.042   2.139  0.0163 -0.0299 -0.2341
 5425W        W21319   1.183  15.614  11.402  0.0452  0.1941 -0.1317
 5426W        W21320   1.740  15.049  13.603 -0.1366  0.0042  0.1706
 5427W        W21321   9.127  10.592   0.630 -0.1168 -0.1493 -0.1012
 5428W        W21322  10.628   7.833  14.527  0.0791 -0.3788  0.1418
 5429W        W21323   1.706  10.566   0.648  0.1925 -0.1667  0.0595
 5430W        W21324   9.521  11.627  13.096 -0.0606  0.3302 -0.0105
 5431W        W21325   8.446   7.468   4.484 -0.1234  0.0268 -0.3590
 5432W        W21326   7.045   0.452   3.352 -0.0315  0.0328 -0.4963
 5433W        W21327   7.232   1.371   2.908 -0.1848  0.0327 -0.0017
 5434W        W21328   7.751   6.200   2.153  0.0126 -0.2823  0.0303
 5435W        W21329  16.001  12.953   2.482  0.1042  0.1180  0.1271
 5436W        W21330  16.941   2.164   4.685  0.0058 -0.1827 -0.4489
 5437W        W21331  13.189  10.611   4.290 -0.2442 -0.5461 -0.2705
 5438W        W21332  11.432   7.029  14.452  0.0251  0.2736 -0.2799
 5439W        W21333  18.733  19.112   1.140 -0.0021  0.1875 -0.2643
 5440W        W21334   7.923   4.685   0.102 -0.0605 -0.2176 -0.1471
 5441W        W21335  18.008   8.270   3.614  0.0677  0.2606  0.0540
 5442W        W21336  15.714   2.733  13.795 -0.2392  0.2382 -0.3092
 5443W        W21337   5.846   0.509  14.655 -0.1117 -0.1154 -0.0262
 5444W        W21338   7.620   3.001   3.550 -0.0192 -0.0049 -0.0013
 5445W        W21339  10.372  14.452  10.941  0.0431  0.2685  0.1332
 5446W        W21340   0.774   2.589  14.932  0.1764 -0.0018 -0.0293
 5447W        W21341  10.318  17.110   3.357  0.2541 -0.2607  0.0296
 5448W        W21342  13.941   5.788  12.308  0.2553  0.2746 -0.2023
 5449W        W21343  16.789  13.333  12.289  0.3737  0.0897 -0.0490
 5450W        W21344   3.198   8.976   1.548  0.1857  0.1027  0.1155
 5451W        W21345  10.289  14.463   2.244 -0.0721 -0.2529 -0.0846
 5452W        W21346   8.974   9.074  14.738 -0.0550 -0.0369 -0.2059
 5453W        W21347   6.054   3.201   2.233 -0.0140  0.0743  0.3042
 5454W        W21348  16.343   0.872  12.989  0.2127 -0.1805  0.0689
 5455W        W21349  17.214   5.237  12.140  0.1197  0.0757 -0.0560
 5456W        W21350   2.329  10.863  10.630 -0.0510 -0.0635  0.1475
 5457W        W21351  14.377   1.674   0.844 -0.0019 -0.0518  0.1348
 5458W        W21352   5.986   3.663   2.127  0.1748 -0.2566 -0.0065
 5459W        W21353   4.362   3.924  12.055 -0.1205  0.1555  0.2971
 5460W        W21354   5.416   1.525  12.850  0.0535  0.0267  0.0036
 5461W        W21355   5.282   0.985   5.173  0.0001  0.0253 -0.1135
 5462W        W21356  18.211   9.593  13.018  0.4430 -0.0032  0.1882
 5463W        W21357   4.701   6.922  10.742 -0.2535 -0.0929 -0.0887
 5464W        W21358  15.951   8.234  12.051 -0.1741 -0.1040  0.0277
 5465W        W21359   1.603   7.872   1.923  0.2053  0.1416  0.1696
 5466W        W21360  12.394  12.722  14.620 -0.3296 -0.1193 -0.0232
 5467W        W21361   4.851   2.660   3.230 -0.0567 -0.1064  0.1031
 5468W        W21362   5.253  15.677  12.515  0.0394 -0.1508  0.0161
 5469W        W21363   0.184  19.156  11.913  0.0714  0.1682  0.0213
 5470W        W21364  17.277   5.423   3.117 -0.1713  0.0725 -0.2373
 5471W        W21365   5.663  18.749   4.274 -0.0646 -0.0963 -0.1130
 5472W        W21366   0.003  12.302   3.094  0.0055 -0.1567  0.2038
 5473W        W21367   5.013  18.382   1.666  0.1391  0.2330  0.2794
 5474W        W21368  18.669  18.736  14.495  0.2624  0.1595 -0.1391
 5475W        W21369   8.905  10.016   1.329 -0.1958 -0.1947  0.1446
 5476W        W21370   8.432  13.217   4.154 -0.2800 -0.0349  0.1528
 5477W        W21371   8.666  10.911  11.338  0.1667 -0.1304 -0.1058
 5478W        W21372  15.647   4.561   4.526  0.1227  0.0790  0.0879
 5479W        W21373   6.854  18.106   1.939  0.0553 -0.1604 -0.0559
 5480W        W21374   9.267   4.947   2.321  0.1872 -0.0700  0.0512
 5481W        W21375  16.881   8.970  13.800 -0.1665  0.0735  0.2502
 5482W        W21376   9.768   7.231   2.639 -0.2333  0.1825 -0.3891
 5483W        W21377  17.423   4.199   0.071  0.2597 -0.1515 -0.2527
 5484W        W21378  10.955  16.825  12.236  0.2046  0.1497 -0.0969
 5485W        W21379   1.021   2.448  13.514  0.2119 -0.2724  0.1103
 5486W        W21380   0.884  10.506   4.371 -0.1571  0.1132 -0.3724
 5487W        W21381  17.777  18.152   1.130  0.1838  0.1938  0.0293
 5488W        W21382   4.150   7.633  10.144 -0.0618  0.3055  0.1251
 5489W        W21383   0.213  12.811   0.804 -0.0161  0.1121  0.2495
 5490W        W21384   1.938   1.681   1.713  0.0363 -0.0833  0.0899
 5491W        W21385   1.542   2.789   5.241 -0.3378  0.0953 -0.1963
 5492W        W21386  17.150   9.777   9.470  0.0156  0.0075  0.2806
 5493W        W21387   5.844  10.227  10.773  0.1974 -0.0985  0.0839
 5494W        W21388  15.618  17.812  11.659 -0.1489 -0.4994 -0.1865
 5495W        W21389   4.037  17.339   2.783  0.1868  0.3684  0.0075
 5496W        W21390   6.617   0.772  14.758  0.1266  0.0388 -0.0170
 5497W        W21391  10.883  12.774  10.719  0.3526  0.1416 -0.0473
 5498W        W21392   4.282   7.351   3.219 -0.1642  0.1530 -0.1786
 5499W        W21393  17.928   2.655   1.647 -0.1305  0.0888 -0.1756
 5500W        W21394  12.395   5.520  14.044  0.1017  0.0973 -0.2191
 5501W        W21395  11.897  18.122   3.909  0.1003  0.2344  0.0707
 5502W        W21396  10.396  10.184   4.665 -0.0489 -0.0706  0.0223
 5503W        W21397  12.417   7.348   0.929 -0.4270  0.2775  0.1816
 5504W        W21398   9.352   0.915   3.978  0.0698 -0.2786  0.1287
 5505W        W21399   5.529   1.411   3.188 -0.1366  0.0833  0.1945
 5506W        W21400   0.566  14.492   4.202  0.1310 -0.3226  0.0485
 5507W        W21401   8.480  13.164  14.276  0.0374  0.2493 -0.1487
 5508W        W21402   3.936   5.659   9.241  0.0390  0.1153 -0.0114
 5509W        W21403   3.323  19.126  11.648  0.0556 -0.2698 -0.0383
 5510W        W21404   0.417  10.023  11.819 -0.4056 -0.1159 -0.0407
 5511W        W21405   1.190   8.697  14.224  0.0406 -0.1337  0.2752
 5512W        W21406  14.769  17.114  12.866 -0.1239 -0.1441 -0.3907
 5513W        W21407  13.102  17.102  14.928  0.0906  0.3506  0.1995
 5514W        W21408   8.564  17.153  12.374 -0.1822 -0.3562  0.0171
 5515W        W21409  11.091  18.396  12.081  0.0684  0.1165  0.0230
 5516W        W21410  13.281   7.440  15.123 -0.3698 -0.0776  0.2099
 5517W        W21411  11.190  16.037   5.709  0.0886  0.0034 -0.2191
 5518W        W21412  17.805   7.533   2.369  0.2003  0.0349  0.0666
 5519W        W21413   7.409  16.661  10.995 -0.3068  0.0514 -0.0008
 5520W        W21414   8.432   8.935   2.302  0.1384  0.2211  0.0488
 5521W        W21415  12.117   7.552  11.919 -0.1563 -0.2266 -0.0003
 5522W        W21416  10.380   4.624   1.616  0.1698 -0.1125  0.2134
 5523W        W21417  18.224  12.880   1.995  0.3040  0.2366  0.0909
 5524W        W21418   6.299   0.692  10.356  0.2935  0.4936  0.2349
 5525W        W21419  11.769  12.164  10.828  0.0032 -0.1856 -0.0584
 5526W        W21420   3.596  18.715   4.174  0.0442  0.4846 -0.1329
 5527W        W21421   3.874   0.109  14.452  0.0203 -0.0693  0.1474
 5528W        W21422   0.725   8.846  12.938  0.2463  0.1050 -0.4189
 5529W        W21423  17.551  12.820  13.516 -0.2513  0.2145  0.1165
 5530W        W21424   6.188   5.169  14.367 -0.1724  0.1331 -0.0859
 5531W        W21425   0.467  12.083   0.997 -0.0876 -0.1166  0.1730
 5532W        W21426   1.711  18.534   0.175 -0.0697  0.2176  0.1198
 5533W        W21427  18.778  10.872   1.376  0.0827 -0.3833  0.1311
 5534W        W21428   5.735  15.899   5.067 -0.1245 -0.0379  0.0702
 5535W        W21429   8.960  10.216   2.714 -0.0384 -0.0256 -0.0774
 5536W        W21430   7.966  16.354  14.848 -0.1267 -0.3737  0.0697
 5537W        W21431  17.589   8.147  12.029  0.0973  0.0086  0.1163
 5538W        W21432   0.993  11.172   5.004 -0.3469 -0.4228  0.1869
 5539W        W21433   0.418   4.503  11.376  0.2774 -0.0069 -0.0540
 5540W        W21434  13.929  17.198  14.603  0.3258  0.1896 -0.0302
 5541W        W21435   9.071   3.648  14.922 -0.0494 -0.0352  0.0155
 5542W        W21436  17.957  17.675   3.905 -0.0554 -0.2084  0.0404
 5543W        W21437  18.677  14.130   5.025  0.2622  0.0600  0.0815
 5544W        W21438   2.601  17.575   3.257  0.3364 -0.1123 -0.4032
 5545W        W21439  18.847   9.345   3.271  0.0060  0.2145  0.0910
 5546W        W21440   3.079  13.537  14.314 -0.0706 -0.1330  0.2397
 5547W        W21441   6.097   5.291   4.298  0.2194  0.2373  0.0796
 5548W        W21442   3.066   8.351  14.875  0.0450 -0.1337 -0.3441
 5549W        W21443  14.772   1.720  13.542 -0.0860  0.4639 -0.4804
 5550W        W21444   4.401   0.431   0.585 -0.1305 -0.0779  0.0027
 5551W        W21445   2.778  10.984  10.944 -0.0591 -0.0269 -0.3421
 5552W        W21446  13.726   3.101   5.174  0.2091 -0.1784  0.0756
 5553W        W21447   1.374  18.458   0.518  0.1215 -0.1849  0.0833
 5554W        W21448  17.445   2.759   5.811  0.1028  0.3193  0.0915
 5555W        W21449   2.950   9.404  12.450 -0.0923 -0.3481 -0.0278
 5556W        W21450  12.082   5.924  12.675 -0.1834  0.1588 -0.0111
 5557W        W21451   7.616  17.892  11.151  0.1002 -0.2266 -0.0440
 5558W        W21452  13.697   3.551   5.924  0.4398 -0.1454 -0.2587
 5559W        W21453  10.199  11.805  14.782 -0.3435  0.1492 -0.0300
 5560W        W21454   0.171   7.827   1.495  0.2907 -0.4184 -0.1451
 5561W        W21455   5.304  11.390   2.243  0.2183 -0.2857  0.2301
 5562W        W21456   4.636  16.194   3.750 -0.2822 -0.0063 -0.0606
 5563W        W21457  16.753  10.057   2.356 -0.1136 -0.2115  0.0677
 5564W        W21458   9.540  14.445  15.146  0.1504 -0.0312 -0.1781
 5565W        W21459   8.971   8.049   4.123 -0.1667  0.2834 -0.0556
 5566W        W21460   5.932  12.269   5.956 -0.1007 -0.0344 -0.1938
 5567W        W21461  13.402   0.811  13.318  0.2573 -0.2560  0.0356
 5568W        W21462   4.837   5.486  13.448  0.1604  0.0080 -0.1209
 5569W        W21463   8.138  11.839  12.006  0.0840 -0.0780  0.1263
 5570W        W21464  14.003   6.674   1.705  0.2887  0.0632  0.0539
 5571W        W21465   0.698   1.589   3.438 -0.1524 -0.4421 -0.1793
 5572W        W21466   4.543   7.028   4.917 -0.0039 -0.1452 -0.2627
 5573W        W21467   5.580   1.913  14.802 -0.0916 -0.2258  0.0048
 5574W        W21468  16.660  14.941   2.508 -0.1421 -0.2529 -0.1344
 5575W        W21469   1.782   4.650   4.570 -0.3010 -0.0313 -0.0142
 5576W        W21470   3.077   6.904  12.412 -0.0497  0.0484  0.0028
 5577W        W21471  14.984   1.048   0.027  0.1748  0.3523 -0.3903
 5578W        W21472   4.048  15.987  15.129  0.1103 -0.0672 -0.2189
 5579W        W21473  14.414  14.019   4.118  0.2751 -0.2752 -0.0307
 5580W        W21474   9.597   5.071  12.930 -0.0695  0.3465  0.1031
 5581W        W21475  17.462   1.009   4.298 -0.0482  0.0074  0.0232
 5582W        W21476   1.891   5.699  12.609 -0.4319  0.0049  0.0956
 5583W        W21477  16.211   6.523   0.374  0.0417 -0.4315  0.4368
 5584W        W21478  15.516  10.324  12.132  0.2872  0.2433 -0.0295
 5585W        W21479   6.848  14.001  11.442 -0.1050 -0.0981 -0.1366
 5586W        W21480  12.984   5.187   1.951 -0.2529 -0.3472  0.0206
 5587W        W21481   3.725   9.776  12.342 -0.1686 -0.1850 -0.2250
 5588W        W21482   2.189   0.706   4.015  0.2500  0.2465  0.1203
 5589W        W21483   2.848   2.394  11.795 -0.0450 -0.0125  0.2254
 5590W        W21484   5.247   6.027   1.729 -0.4583  0.1806  0.4132
 5591W        W21485  18.133  11.210   3.613  0.1656 -0.1658  0.0701
 5592W        W21486   4.099  18.873   2.734  0.1176  0.2163  0.1282
 5593W        W21487  11.463   5.651  12.849 -0.0019 -0.1392 -0.0398
 5594W        W21488  12.935   4.174   3.770  0.0199  0.0623  0.4668
 5595W        W21489  10.136   4.482  12.319 -0.0346 -0.4255 -0.0447
 5596W        W21490  18.282   7.912   3.909 -0.1283 -0.0376 -0.1940
 5597W        W21491  15.106   0.066  13.339 -0.2657 -0.0573 -0.0309
 5598W        W21492   2.306   7.401   4.466 -0.1741 -0.3498 -0.0727
 5599W        W21493  16.446   5.462   3.586 -0.1846 -0.2154  0.3082
 5600W        W21494   3.427   2.264   3.393 -0.0662 -0.1208  0.4939
 5601W        W21495  14.891   9.784   4.977  0.1814 -0.0176 -0.1025
 5602W        W21496   7.249  12.766  11.609 -0.0198  0.1130  0.0256
 5603W        W21497  12.622  17.283  12.767  0.2602  0.3977 -0.3191
 5604W        W21498   5.574  14.565   1.442  0.1783 -0.3161 -0.1364
 5605W        W21499  17.271  14.209   2.903 -0.0670 -0.0225 -0.0297
 5606W        W21500  17.577   9.707  15.068 -0.0285  0.0255 -0.0988
 5607W        W21501   3.280  13.001  12.327  0.2783  0.0634 -0.0753
 5608W        W21502   3.565   1.874   2.188  0.0533 -0.2297 -0.1907
 5609W        W21503   0.591   7.799  13.173 -0.1130 -0.1753  0.0137
 5610W        W21504   5.658   2.519  14.086  0.0746  0.2943 -0.3917
 5611W        W21505   3.184   5.285  11.805 -0.1567  0.0960  0.1588
 5612W        W21506  15.352   2.149  12.363  0.0176 -0.2186  0.0709
 5613W        W21507  13.105   1.216   4.351  0.2714 -0.0876 -0.0030
 5614W        W21508   0.843  15.961   2.847 -0.2362 -0.2800 -0.3880
 5615W        W21509  11.689   6.833  14.078 -0.1741  0.3115  0.0862
 5616W        W21510  13.693   1.422  11.933 -0.4192 -0.1259 -0.2662
 5617W        W21511  10.758  18.589   0.213 -0.3840  0.0721 -0.0898
 5618W        W21512   4.200   1.003   1.321 -0.0063 -0.0677 -0.0652
 5619W        W21513  14.262  17.827   2.239  0.1104  0.1248 -0.3993
 5620W        W21514  10.398   4.838   5.204  0.0023 -0.1509  0.3690
 5621W        W21515   1.906   0.526  12.658 -0.1463 -0.1632  0.0564
 5622W        W21516   8.198  14.794  11.031  0.1450  0.0370 -0.2825
 5623W        W21517   2.581   6.955  13.230  0.0153 -0.3068 -0.1013
 5624W        W21518  13.724   6.185   1.918  0.0157  0.2961 -0.1961
 5625W        W21519  11.578  11.654   0.608 -0.1587 -0.0562  0.1864
 5626W        W21520   0.555  14.383  10.997 -0.0613 -0.3462 -0.0160
 5627W        W21521   1.999  10.054   3.301  0.4393  0.0079  0.1500
 5628W        W21522  15.810   0.544  11.881  0.3008  0.1183 -0.2384
 5629W        W21523   1.383   7.513  13.385 -0.1739 -0.1861 -0.3982
 5630W        W21524  18.208   2.224  11.637  0.1706 -0.2036 -0.2651
 5631W        W21525  11.875   6.505   3.870  0.0046  0.0143  0.1911
 5632W        W21526  12.137  17.770   1.892  0.1473 -0.2835 -0.3362
 5633W        W21527   9.830  12.009   4.133  0.1488 -0.3810  0.1117
 5634W        W21528   2.032  11.001   4.630 -0.0796  0.1998  0.2864
 5635W        W21529   1.930  13.055   2.704  0.1226 -0.1284  0.0603
 5636W        W21530   0.681   0.937   4.789 -0.3590  0.3466 -0.2984
 5637W        W21531  11.220  18.903  12.739  0.2066  0.4912  0.0697
 5638W        W21532  13.623   8.491  11.225  0.0582 -0.1415  0.2847
 5639W        W21533   9.565  12.970  11.892 -0.0480  0.3458  0.2155
 5640W        W21534   2.987   0.258   0.237 -0.0119  0.2051  0.1952
 5641W        W21535   9.247   3.205  14.913 -0.1061 -0.2553 -0.0180
 5642W        W21536   2.681  12.762  13.780 -0.2117  0.1328 -0.2666
 5643W        W21537  11.028  10.219   9.337 -0.0851  0.1804  0.0524
 5644W        W21538   8.284   5.923   2.670 -0.3478 -0.0233 -0.1414
 5645W        W21539   1.970   5.044  14.718 -0.2413  0.1633  0.0948
 5646W        W21540   3.476  11.109  13.201 -0.0167  0.0588 -0.1210
 5647W        W21541   8.107   0.884  13.166 -0.0796  0.0804  0.5357
 5648W        W21542   5.561  13.479   2.771  0.0426  0.0473  0.0314
 5649W        W21543   4.532   8.351  11.650 -0.1120  0.1418  0.0919
 5650W        W21544  14.750  10.536   2.757  0.2577  0.0358  0.3096
 5651W        W21545  14.833   1.427  14.892  0.1206 -0.4249 -0.0694
 5652W        W21546  10.360  14.867  15.102 -0.1369 -0.1242 -0.3637
 5653W        W21547  10.703  10.052   0.994  0.3054  0.2198 -0.1959
 5654W        W21548   3.533   0.867  12.078  0.2025 -0.3806  0.1141
 5655W        W21549  16.416   4.489   3.495 -0.0667  0.2247 -0.1106
 5656W        W21550   4.227  11.439   3.134 -0.1206 -0.2668  0.2070
 5657W        W21551  13.096  18.671   2.607 -0.0529 -0.0052  0.2370
 5658W        W21552   2.835   5.584   2.636  0.3571 -0.0059 -0.1935
 5659W        W21553   3.752  10.700   2.434 -0.3434  0.0414  0.1069
 5660W        W21554  15.227  15.369   0.963 -0.4448 -0.0820 -0.1811
 5661W        W21555   4.963  13.172  13.843  0.1024  0.1338  0.0250
 5662W        W21556  18.464   0.887   4.590  0.0365  0.1297 -0.1601
 5663W        W21557  14.764   5.942   1.455 -0.0150 -0.2320  0.0077
 5664W        W21558   4.571   6.335   2.276 -0.1417 -0.1450  0.1239
 5665W        W21559   0.114   2.056   1.347 -0.0561 -0.2379 -0.0946
 5666W        W21560   0.748   2.240   1.609  0.4729 -0.2119 -0.1444
 5667W        W21561  17.775  15.704  15.072 -0.1691  0.2804  0.0834
 5668W        W21562   6.794   3.416   2.157 -0.2175  0.2295 -0.2071
 5669W        W21563   1.767   6.984   1.752  0.0890 -0.1137 -0.0591
 5670W        W21564   8.122   2.092   2.268  0.3979 -0.0107  0.2929
 5671W        W21565   7.084   4.920  13.752 -0.0172 -0.0331 -0.1881
 5672W        W21566   2.588   5.038   0.086 -0.1281  0.2522 -0.2063
 5673W        W21567  15.322  16.961  12.812 -0.0373  0.0409  0.2026
 5674W        W21568  10.937   3.941  13.440 -0.0361 -0.0977 -0.0180
 5675W        W21569  17.591  17.531  13.692  0.1861 -0.2546 -0.1455
 5676W        W21570   8.215   4.704   4.215  0.2183 -0.2601  0.0415
 5677W        W21571  10.579  12.274  12.037 -0.4006 -0.2806  0.0474
 5678W        W21572   8.137  18.330   1.470 -0.1320  0.0382  0.0303
 5679W        W21573   4.229  12.183  12.418  0.0243  0.1163  0.0115
 5680W        W21574  17.279   0.364   1.870  0.1784  0.1178 -0.5958
 5681W        W21575  12.263   8.488   1.379  0.3468 -0.0136 -0.0027
 5682W        W21576   6.778  13.611   5.895  0.0880  0.2223  0.1016
 5683W        W21577  17.147  16.288   4.204  0.0173 -0.2281 -0.1738
 5684W        W21578   1.416   1.763  13.531 -0.1975 -0.0019 -0.2676
 5685W        W21579  14.782  18.161   1.241  0.0457 -0.1335  0.0380
 5686W        W21580  11.596   6.393  11.228 -0.0653 -0.1373 -0.0808
 5687W        W21581   3.450   0.836  14.797  0.1493 -0.4212  0.0897
 5688W        W21582   4.895   0.251  13.516  0.0581  0.0144 -0.2839
 5689W        W21583   7.428   5.407  13.652  0.4705  0.2283  0.2144
 5690W        W21584  15.863   9.577  12.344 -0.0137  0.5262 -0.0579
 5691W        W21585  19.123  12.671  14.294 -0.1014 -0.3330 -0.0357
 5692W        W21586  14.921   6.825  14.759  0.2470  0.2167 -0.0638
 5693W        W21587  17.852  12.009   4.262  0.0514  0.0167  0.0120
 5694W        W21588  16.383  13.153   2.168 -0.0194 -0.2004  0.0220
 5695W        W21589   9.533   4.936   2.961  0.0474 -0.3307 -0.3802
 5696W        W21590  17.396  13.983   1.495 -0.2019  0.2621  0.1429
 5697W        W21591  13.535  16.530   4.853 -0.1946 -0.3025 -0.0787
 5698W        W21592  13.924  18.716   1.229  0.1394 -0.0942 -0.1146
 5699W        W21593   9.161  13.013  10.927 -0.2913  0.1310 -0.2945
 5700W        W21594  15.054  10.097  14.394 -0.1409  0.1293  0.1217
 5701W        W21595  13.229   5.453   2.503  0.0775  0.0878 -0.0981
 5702W        W21596   0.601  17.314  13.360  0.0995  0.1359  0.0585
 5703W        W21597   6.421  16.096   0.937  0.0622  0.1538 -0.1966
 5704W        W21598   8.881  13.583   1.188 -0.2700  0.1229 -0.2842
 5705W        W21599  17.838   5.132   5.311 -0.1300  0.2478 -0.0138
 5706W        W21600   8.484   2.781  14.415 -0.0163 -0.2753 -0.1155
 5707W        W21601  10.338  16.006   5.016 -0.3024 -0.1022  0.0587
 5708W        W21602   7.596   9.894  12.379  0.1867 -0.2880  0.2527
 5709W        W21603  10.272   6.198   4.133  0.0398 -0.0664 -0.0127
 5710W        W21604  19.176   1.372  11.823  0.2607  0.0685  0.2031
 5711W        W21605  14.269   3.091  14.140  0.1268 -0.3034 -0.0602
 5712W        W21606   3.393  13.950  14.063 -0.1853 -0.0836  0.3550
 5713W        W21607  17.037  17.564   5.075  0.3547 -0.0468 -0.3872
 5714W        W21608  14.980   1.841   2.832  0.1003 -0.1984 -0.2030
 5715W        W21609   8.101   0.507   1.876  0.4075  0.1955  0.1918
 5716W        W21610  14.252   0.731  11.165 -0.3135  0.1366 -0.4280
 5717W        W21611  18.645   1.821  11.987  0.0510 -0.1004 -0.1267
 5718W        W21612  13.661   7.003   4.972  0.5336  0.1347 -0.1536
 5719W        W21613  12.079  16.122  11.389 -0.3962 -0.2272  0.0922
 5720W        W21614   6.714   1.991   0.493  0.1185 -0.3730  0.5529
 5721W        W21615  14.244  11.771  11.694 -0.2379 -0.3489  0.1726
 5722W        W21616   7.257   1.010  13.537 -0.1554 -0.3321  0.1281
 5723W        W21617  12.263  18.127   1.612  0.0333 -0.0736  0.1855
 5724W        W21618   0.686   9.641   5.455  0.0530 -0.2544 -0.0240
 5725W        W21619   8.072   6.173   3.823 -0.0771 -0.1426 -0.0212
 5726W        W21620   5.367  17.334   2.601  0.0480  0.0286  0.1479
 5727W        W21621  10.133  12.975  11.814 -0.2360  0.3094  0.1004
 5728W        W21622  15.563   3.872   4.162 -0.2646 -0.1103 -0.1467
 5729W        W21623   5.427   3.875   4.777 -0.0211 -0.3051  0.0241
 5730W        W21624   7.878   8.222   9.387 -0.0106 -0.0311 -0.0896
 5731W        W21625   9.824  15.523   2.028 -0.3113  0.0426  0.2541
 5732W        W21626  12.859  13.957  14.455 -0.1244 -0.1058 -0.1425
 5733W        W21627   1.419  15.001  14.017  0.0463  0.1092 -0.3332
 5734W        W21628  17.310  16.933   5.349  0.0619  0.0712  0.0195
 5735W        W21629  12.251   2.145   3.740  0.1299 -0.1469 -0.0036
 5736W        W21630   5.048  18.790  13.186  0.0255  0.0070  0.2364
 5737W        W21631   9.541  13.352   2.987 -0.0136 -0.1353  0.1458
 5738W        W21632  16.187  17.693   2.943  0.0426  0.2921 -0.0002
 5739W        W21633  18.712  13.440  14.732 -0.1992 -0.2198  0.0367
 5740W        W21634  12.484   8.445   0.585 -0.1754  0.0222  0.1618
 5741W        W21635  14.677  15.474  13.907  0.1635 -0.0621  0.1976
 5742W        W21636   0.422  12.885  14.191 -0.2504  0.1211 -0.1052
 5743W        W21637   4.288   5.392  11.308  0.2299  0.2698 -0.1275
 5744W        W21638   6.289   8.414   4.644  0.1274  0.1473 -0.0565
 5745W        W21639  10.653   0.349   0.727 -0.0162  0.0374 -0.1635
 5746W        W21640  18.479   0.445   0.602 -0.1174  0.0549 -0.0815
 5747W        W21641   1.060  12.744  12.739  0.0048 -0.0761 -0.2719
 5748W        W21642   2.398   7.311   3.042  0.0722 -0.2644  0.1110
 5749W        W21643   6.925   9.496  11.803  0.0068  0.1889  0.1552
 5750W        W21644  17.672   3.678  12.903 -0.0753  0.1454 -0.6773
 5751W        W21645  14.784  16.808   4.561 -0.0173 -0.0711  0.0179
 5752W        W21646   2.225   2.765  14.146 -0.0837 -0.0069  0.1955
 5753W        W21647   4.881   3.027  12.291 -0.4335  0.0299  0.0006
 5754W        W21648   6.513  15.933  12.544  0.0245 -0.1112 -0.0376
 5755W        W21649   6.428  19.119   0.147 -0.3018  0.6386  0.0486
 5756W        W21650  14.666  13.047  12.053  0.0453  0.1063  0.2086
 5757W        W21651   2.437   7.927   2.288 -0.0449  0.0755 -0.1754
 5758W        W21652   2.722  16.037   5.704  0.1378  0.1666  0.1308
 5759W        W21653   3.074   0.071   1.277  0.1246 -0.1719 -0.0579
 5760W        W21654   2.022   7.234   3.404 -0.3252 -0.2159 -0.0202
 5761W        W21655  11.341   1.320  12.877  0.3035 -0.0198 -0.0017
 5762W        W21656   5.107  13.702   1.291  0.2390  0.3211 -0.4289
 5763W        W21657  11.086   7.030   1.884  0.3126 -0.1433  0.1330
 5764W        W21658  17.338  16.699   2.322  0.2547 -0.0568 -0.1472
 5765W        W21659  10.565  13.231  14.953 -0.2181 -0.0726 -0.3430
 5766W        W21660  11.172   0.870  14.428  0.3103  0.0272  0.0100
 5767W        W21661   1.597   6.106   1.957 -0.1718 -0.2748 -0.1879
 5768W        W21662   7.056   4.218  10.580  0.0330  0.0482  0.0589
 5769W        W21663  15.901   5.913   1.079  0.2280  0.3009 -0.1774
 5770W        W21664  11.299   6.230   3.766 -0.2978  0.2904  0.0498
 5771W        W21665  11.396   8.894  11.859  0.2274 -0.0313 -0.3468
 5772W        W21666   2.849  18.425   1.785  0.1564  0.0080 -0.1297
 5773W        W21667   4.599  15.198   4.687  0.0631 -0.3320 -0.1100
 5774W        W21668  14.353   6.053   1.863  0.0421 -0.4199  0.1690
 5775W        W21669  13.263  12.545  13.986 -0.2560  0.1243  0.0597
 5776W        W21670  10.713   3.674  11.704  0.2670 -0.0846  0.0836
 5777W        W21671  12.013   1.193   0.202  0.1343  0.1433 -0.0557
 5778W        W21672  13.682   5.744   0.498  0.3173 -0.0591  0.3300
 5779W        W21673  17.706  18.371   3.094 -0.0051 -0.0470 -0.0038
 5780W        W21674   0.790   3.298  12.550  0.0091 -0.0828 -0.0054
 5781W        W21675   0.166  18.186  13.516 -0.1356  0.0037  0.0566
 5782W        W21676  14.014   9.330   5.135 -0.1122 -0.1684 -0.2232
 5783W        W21677   2.129  11.808  12.994  0.1119  0.3652 -0.0208
 5784W        W21678  17.984  16.084   4.642  0.1498  0.2083 -0.0253
 5785W        W21679  13.126   5.949   3.920  0.0840 -0.2058  0.0551
 5786W        W21680  14.752  18.878   1.896 -0.1087 -0.0232  0.0424
 5787W        W21681  15.401  13.660   1.106  0.0151  0.0638 -0.2467
 5788W        W21682   4.587   2.876   1.745 -0.1748  0.1455  0.1587
 5789W        W21683   3.503  18.652   5.881  0.2575  0.2121 -0.1633
 5790W        W21684   8.401  13.660   2.443 -0.1947  0.1785 -0.2919
 5791W        W21685   3.688  12.826   1.727  0.1319  0.1183  0.1650
 5792W        W21686  12.141  14.995  10.799 -0.3093  0.1626 -0.4142
 5793W        W21687  16.706   6.158   1.479 -0.1984  0.0902  0.0969
 5794W        W21688  18.279   3.452  13.100 -0.1874 -0.2139 -0.2149
 5795W        W21689  16.312  14.349   5.608 -0.0808  0.4781  0.0869
 5796W        W21690   7.402  18.743   1.461 -0.1037 -0.1819 -0.0963
 5797W        W21691   1.205  13.769   4.747  0.0751 -0.1262 -0.1251
 5798W        W21692   4.762   1.841   3.160 -0.2578 -0.0989  0.0352
 5799W        W21693  16.506  13.797   0.848 -0.2247 -0.4520  0.0902
 5800W        W21694   6.426  14.359   5.125  0.1042  0.0032  0.1076
 5801W        W21695   9.924  11.443   3.239  0.1094  0.0188  0.1494
 5802W        W21696  10.326  17.658  12.759 -0.0500 -0.3423  0.2910
 5803W        W21697  18.765  16.262   2.212 -0.1151 -0.3523 -0.1198
 5804W        W21698  18.477   9.381  14.582 -0.0930 -0.0202  0.1793
 5805W        W21699  15.940  17.860   3.365 -0.0623 -0.0030 -0.1706
 5806W        W21700   3.092   9.656  14.209  0.1575 -0.0021 -0.2089
 5807W        W21701   3.821  12.602   4.055 -0.0684  0.1523  0.1380
 5808W        W21702  15.686   9.702  10.822  0.1939 -0.1709 -0.2968
 5809W        W21703  11.833  12.258   3.809  0.1382  0.0899 -0.0942
 5810W        W21704   5.995   8.891  10.262  0.0687  0.3368 -0.4905
 5811W        W21705   8.672   2.521   4.176  0.0800 -0.1603  0.3088
 5812W        W21706  18.665  12.047  13.628  0.1675 -0.0919  0.0880
 5813W        W21707  13.355   9.559  14.290  0.1599 -0.0766 -0.1069
 5814W        W21708   8.429   2.939  15.148 -0.1987 -0.0161  0.2863
 5815W        W21709   8.977  14.648  12.268  0.2126 -0.1382  0.1761
 5816W        W21710   5.218  19.092  12.084  0.0610 -0.0125 -0.0825
 5817W        W21711  19.096  14.460   4.782 -0.4319 -0.0950  0.1780
 5818W        W21712  14.081   7.153  14.398 -0.3262 -0.0076  0.0281
 5819W        W21713   4.506  11.474   3.577 -0.0850 -0.3576  0.1962
 5820W        W21714  12.121   1.380  14.944  0.0526  0.1214  0.0102
 5821W        W21715   0.244  10.408  15.162  0.1709 -0.1608  0.0134
 5822W        W21716  18.342   0.469   4.848 -0.0653  0.1734  0.0696
 5823W        W21717  13.736  19.135   1.948  0.0203 -0.1250  0.1785
 5824W        W21718  11.046  10.031   4.728  0.2312  0.1748  0.0909
 5825W        W21719   1.731   4.172  12.899  0.2010  0.3040  0.2545
 5826W        W21720  11.648   4.080   4.917  0.1517  0.2156 -0.1092
 5827W        W21721  11.497  14.364  13.651 -0.0316 -0.2391  0.1574
 5828W        W21722   5.644   3.839  14.184 -0.1144 -0.1340  0.1995
 5829W        W21723  12.827   4.436   2.429  0.0486 -0.1403  0.2118
 5830W        W21724  16.439   7.202   3.142 -0.1577  0.0624 -0.1804
 5831W        W21725  11.373  11.956  10.651 -0.1076  0.3261  0.0453
 5832W        W21726  10.475  16.359  11.449  0.1171 -0.0193  0.2148
 5833W        W21727  18.399   6.802   4.180 -0.0145 -0.1239 -0.0054
 5834W        W21728  15.001  14.968  11.523  0.1684 -0.2380  0.1529
 5835W        W21729   7.666   7.211  12.678  0.3583  0.2264  0.2246
 5836W        W21730   1.671  11.261  14.152 -0.0327 -0.2419  0.1501
 5837W        W21731   6.856   6.243   4.883 -0.4281 -0.2764  0.2099
 5838W        W21732  12.574  12.728  13.142 -0.2750 -0.1558 -0.1404
 5839W        W21733   8.037   7.047   3.287  0.0673 -0.2342  0.4347
 5840W        W21734   7.002   2.854  14.076  0.1261 -0.5060  0.1215
 5841W        W21735  13.037   5.132   4.446  0.0852  0.2088  0.1167
 5842W        W21736  11.480   6.947   4.386  0.0062  0.2401 -0.1928
 5843W        W21737  18.068   4.530  12.141  0.0630  0.1064  0.2554
 5844W        W21738  15.064  11.881  11.499 -0.0818 -0.3461 -0.1486
 5845W        W21739   8.740   7.096  13.112  0.0696 -0.3405 -0.0777
 5846W        W21740  15.933   2.514  11.595 -0.1993  0.0306  0.1542
 5847W        W21741   8.569  15.286   0.429  0.4739  0.0019 -0.0642
 5848W        W21742  18.890   2.565   1.669 -0.1875  0.1416 -0.0167
 5849W        W21743  16.093   5.946   4.000 -0.0532  0.0745 -0.1520
 5850W        W21744  13.235  10.968  14.797 -0.0329 -0.2138  0.0902
 5851W        W21745   2.051  17.738   1.995 -0.1158 -0.0169  0.0372
 5852W        W21746   6.515  10.830   1.557 -0.0314 -0.2772  0.1321
 5853W        W21747   1.467   5.012  11.356 -0.2409 -0.1560  0.0758
 5854W        W21748  15.371   5.133   3.964  0.1665  0.0304  0.1482
 5855W        W21749  11.826   1.087  11.573 -0.0804 -0.0876 -0.1254
 5856W        W21750   2.872  11.337   5.047  0.2630 -0.0520 -0.0211
 5857W        W21751   9.731  16.216   3.143  0.4394  0.2610  0.4844
 5858W        W21752   3.268  10.249  14.388  0.0190  0.0566  0.3754
 5859W        W21753   7.226   1.072   1.654 -0.1427  0.1263  0.5659
 5860W        W21754  18.394   0.401  10.110  0.4546  0.0005  0.0737
 5861W        W21755  18.582   5.239   4.255  0.2767 -0.2436  0.2569
 5862W        W21756   7.582  17.605   1.696  0.0860 -0.0772  0.1903
 5863W        W21757   5.997  14.570   0.982 -0.0001 -0.0085  0.3230
 5864W        W21758   7.282  14.403   1.213 -0.2077  0.0980 -0.2992
 5865W        W21759   1.883   7.072  10.386 -0.4793 -0.0779 -0.2972
 5866W        W21760   3.514   8.490   0.668  0.1740 -0.3212 -0.0197
 5867W        W21761   2.593  16.941  12.281 -0.1330  0.3312 -0.1257
 5868W        W21762   0.150  15.059   0.153 -0.1998  0.3775 -0.2699
 5869W        W21763   1.023  11.742  13.869 -0.2504 -0.0232 -0.0760
 5870W        W21764   7.277   1.062  11.052 -0.0535 -0.2136 -0.0503
 5871W        W21765  11.555   6.781  10.878  0.2215 -0.5290  0.0823
 5872W        W21766   1.327   0.298  14.501  0.0561 -0.1957 -0.2795
 5873W        W21767   2.177  11.530   3.409  0.1936  0.1667  0.2119
 5874W        W21768  17.870  14.616  13.143  0.0085 -0.1619 -0.2000
 5875W        W21769  13.269   5.973  13.891 -0.4312 -0.0634  0.2104
 5876W        W21770   0.019  17.654   5.900 -0.1356 -0.0480  0.0123
 5877W        W21771  15.862   5.151   1.891  0.2196  0.2324  0.0571
 5878W        W21772  14.363   1.765   2.136 -0.0062  0.1956  0.2425
 5879W        W21773  11.702   9.885   2.807  0.1813  0.2671  0.2947
 5880W        W21774  10.647   7.719  12.381 -0.1707 -0.3720  0.0727
 5881W        W21775  18.305  11.372   4.259 -0.2213  0.0651  0.0432
 5882W        W21776  13.439   3.319   2.164 -0.0187 -0.3119  0.1525
 5883W        W21777  15.749   0.297   0.864 -0.0175 -0.1899  0.0153
 5884W        W21778  14.655   5.788  11.467 -0.0540 -0.0785  0.0416
 5885W        W21779   7.213  16.997  14.260  0.1615  0.1055  0.0337
 5886W        W21780  12.218   1.344   1.113 -0.0925  0.0152  0.0222
 5887W        W21781  14.594   8.362   2.918 -0.2927 -0.1926  0.0163
 5888W        W21782   8.596   9.024  15.087 -0.1350 -0.1608 -0.0724
 5889W        W21783  17.925   7.860  11.690 -0.1194 -0.0606  0.1428
 5890W        W21784  12.379   7.071   0.344  0.0645 -0.1120 -0.0083
 5891W        W21785  13.810  19.091  13.427 -0.0165  0.1938 -0.0439
 5892W        W21786  14.264  17.426   0.502 -0.2441 -0.0430  0.1512
 5893W        W21787  14.548  10.217  14.343  0.4189  0.1819  0.0039
 5894W        W21788  10.778   9.691   1.764 -0.1284  0.1079  0.0667
 5895W        W21789   6.360   9.575   2.861  0.0690 -0.0447 -0.2033
 5896W        W21790  13.823  16.163  12.491 -0.1462 -0.1723  0.0245
 5897W        W21791  12.007   8.811   1.041  0.1227 -0.1051 -0.0113
 5898W        W21792   0.103   4.633  11.798 -0.0563  0.0275 -0.2339
 5899W        W21793  17.487  10.469   4.138  0.0454 -0.2850 -0.2322
 5900W        W21794   9.045  11.604   5.059  0.1153  0.1413  0.0905
 5901W        W21795  17.883   7.859   0.005  0.2231  0.1494  0.4381
 5902W        W21796   5.207   4.770   2.172  0.0251  0.1857  0.1410
 5903W        W21797  10.617  14.761   1.927 -0.2135  0.3524 -0.2241
 5904W        W21798  13.869  14.632  13.060  0.2168 -0.0450 -0.0346
 5905W        W21799   6.257   4.985   1.232  0.0138  0.1547 -0.2325
 5906W        W21800  13.837  18.869  11.971 -0.0287  0.1418 -0.0198
 5907W        W21801  10.444  17.903  10.184 -0.1485  0.1538  0.1865
 5908W        W21802  14.987  13.380  11.821  0.0175 -0.3413 -0.2626
 5909W        W21803  13.819   8.207  10.127  0.1840 -0.2002  0.5111
 5910W        W21804   1.482  11.888   3.623  0.0787  0.2034  0.3770
 5911W        W21805  12.557  16.119   5.775  0.3014 -0.4039  0.1174
 5912W        W21806  14.394   2.804  14.517  0.1710  0.1721 -0.2499
 5913W        W21807   9.097  13.903   5.364 -0.1080 -0.1795 -0.4386
 5914W        W21808   9.476  18.949   9.901  0.2276 -0.0220 -0.0417
 5915W        W21809  11.311   8.430  14.654 -0.0225  0.0280 -0.0541
 5916W        W21810  15.536  18.053  13.854 -0.1749  0.0301  0.0216
 5917W        W21811  11.567   8.247  10.308  0.1259 -0.0171  0.3262
 5918W        W21812  11.927  18.479  13.063 -0.2263  0.1980  0.0646
 5919W        W21813  17.296  13.804  11.240  0.0195  0.0486 -0.0155
 5920W        W21814  14.354  10.250   0.376 -0.1305 -0.0160 -0.0764
 5921W        W21815   6.540   6.092  10.926  0.0484  0.1490 -0.0999
 5922W        W21816   4.696  16.634   2.498 -0.3620  0.0613 -0.0577
 5923W        W21817   9.818  13.515   5.246 -0.1257 -0.2331 -0.1486
 5924W        W21818   0.346  19.149   2.448 -0.1909 -0.0308 -0.0431
 5925W        W21819   1.367   3.790  12.004  0.0154 -0.2151  0.0669
 5926W        W21820  13.638   2.722   3.312  0.0797  0.0613  0.0326
 5927W        W21821  15.174  16.864   2.912  0.1257  0.0573  0.1144
 5928W        W21822  18.876   1.506  13.428 -0.1481  0.1306  0.2701
 5929W        W21823  16.093   8.609   4.326 -0.0030 -0.1353  0.0498
 5930W        W21824   1.651   3.724  13.742 -0.1693 -0.5013  0.1584
 5931W        W21825   9.761  11.602  14.974  0.2911 -0.0954 -0.0779
 5932W        W21826  15.434  18.634  12.246  0.1505  0.0119 -0.0877
 5933W        W21827   3.455   1.668  14.434 -0.2084 -0.1899  0.1648
 5934W        W21828   0.886   0.312   4.259  0.2218 -0.0131 -0.2519
 5935W        W21829  14.702  12.772   5.300  0.1089 -0.2612 -0.2020
 5936W        W21830   2.887   7.159  11.370 -0.1791 -0.2289  0.2700
 5937W        W21831   4.238  11.466  14.275  0.0939  0.0202  0.2116
 5938W        W21832  11.939  16.908  15.158 -0.0966 -0.4611  0.2707
 5939W        W21833   6.064  15.916   3.792  0.0409 -0.0102  0.2031
 5940W        W21834  13.632   0.440  13.642  0.0415  0.1829 -0.0538
 5941W        W21835   3.638   6.074  12.671  0.1366 -0.4939 -0.1326
 5942W        W21836  11.518   2.195  14.207 -0.3241  0.1074 -0.3539
 5943W        W21837  13.340  11.553   9.966 -0.0128 -0.0277  0.1530
 5944W        W21838   1.191   2.051   4.401 -0.4995  0.0284 -0.0755
 5945W        W21839  17.360  10.478   4.717  0.0659 -0.3528 -0.0357
 5946W        W21840   2.887  19.112   3.570  0.1658  0.2158 -0.3239
 5947W        W21841  11.150  14.063   4.842 -0.0850 -0.1745  0.3439
 5948W        W21842   3.225   8.212   3.660 -0.2402 -0.1827  0.1024
 5949W        W21843  13.964   2.452  11.265 -0.4138  0.2185 -0.1349
 5950W        W21844  13.542   2.022   0.765 -0.1726  0.0609  0.1329
 5951W        W21845   9.186  17.927  12.963  0.3472  0.0371 -0.1520
 5952W        W21846   8.519   8.410  11.192 -0.2224 -0.0083  0.0934
 5953W        W21847   4.469  15.439  10.678 -0.1726  0.2056  0.0675
 5954W        W21848  13.904   2.140   3.593 -0.2348  0.0568  0.0486
 5955W        W21849  16.937   9.504  15.110 -0.1770  0.1683  0.0205
 5956W        W21850  17.022  16.174  13.951  0.1672 -0.0720 -0.2142
 5957W        W21851  14.083   2.364  13.775  0.0662 -0.1566  0.0005
 5958W        W21852   2.005  14.808   5.239 -0.0686  0.2508 -0.1762
 5959W        W21853   0.601   1.662   2.847  0.1175 -0.1701  0.1439
 5960W        W21854  12.649  18.816   0.873 -0.2903  0.0514  0.0013
 5961W        W21855  16.349  15.537  12.783 -0.4689  0.0638  0.1268
 5962W        W21856  17.404  17.061   1.992  0.0083 -0.1313 -0.2022
 5963W        W21857   8.799   5.627  14.473  0.1215 -0.2367 -0.0522
 5964W        W21858  18.034   1.126   1.598  0.1884 -0.0041 -0.1711
 5965W        W21859  18.025   1.991   3.042 -0.0992 -0.4469  0.3070
 5966W        W21860  10.921  12.613  13.949  0.2366 -0.3143 -0.0950
 5967W        W21861   0.528   7.572  11.651  0.2581  0.2551  0.0812
 5968W        W21862  15.077  18.902  12.064  0.2064  0.0258 -0.1675
 5969W        W21863  14.719   5.908   3.416 -0.0270  0.3863 -0.1769
 5970W        W21864  16.682   1.394   4.152 -0.0222 -0.2611  0.0199
 5971W        W21865  14.442  16.751   1.558  0.3561  0.0227  0.2437
 5972W        W21866  10.937  14.924   0.061  0.0410 -0.6001  0.0195
 5973W        W21867   5.357   8.144   0.235  0.5258 -0.2961  0.0721
 5974W        W21868  17.207  18.237   4.793  0.0297 -0.0165  0.0155
 5975W        W21869  17.357   1.263  12.228 -0.0139 -0.3820 -0.4086
 5976W        W21870   7.285  10.798   2.672  0.2191 -0.0867 -0.4020
 5977W        W21871   2.783  19.096   0.607 -0.0719  0.1391 -0.0968
 5978W        W21872  17.014   0.833  15.026  0.0101 -0.1336 -0.4193
 5979W        W21873  10.759  16.146  15.033 -0.2130 -0.0344 -0.1808
 5980W        W21874   1.844   3.045  10.645 -0.0231 -0.1974 -0.2101
 5981W        W21875  10.567   4.502  12.792  0.1330  0.0076 -0.3163
 5982W        W21876  11.870  13.938  10.135  0.1205  0.0469  0.0690
 5983W        W21877  16.005  15.878   9.892  0.1764  0.0896 -0.1639
 5984W        W21878   4.494   1.715  14.488 -0.3283  0.1260  0.1235
 5985W        W21879  16.257   8.353   3.539 -0.1933  0.1803 -0.0959
 5986W        W21880  13.110   6.389  12.986 -0.1640 -0.2119 -0.3304
 5987W        W21881  10.035  18.040  14.142  0.0736 -0.2606 -0.0616
 5988W        W21882   4.913  14.657   0.262  0.0136  0.3183 -0.2514
 5989W        W21883   9.174   8.057   0.903  0.1894  0.0052  0.3540
 5990W        W21884   8.739  14.356   0.979  0.1719 -0.0603 -0.0995
 5991W        W21885   1.323  13.208  10.842  0.2731 -0.0935  0.2883
 5992W        W21886  13.216  11.941  14.816  0.2807  0.3861 -0.1871
 5993W        W21887  18.887  17.500  12.076  0.0364 -0.0585 -0.0441
 5994W        W21888   2.097  16.235   0.613  0.0117 -0.1333  0.1399
 5995W        W21889   2.814   2.746   1.537  0.2367  0.3592 -0.1639
 5996W        W21890   2.173   7.242  12.657 -0.0453 -0.1363  0.1160
 5997W        W21891  10.480   9.502  12.701 -0.1001 -0.0634  0.0441
 5998W        W21892   0.858   9.218  11.413 -0.1746 -0.1494  0.1431
 5999W        W21893   9.843   9.806  10.616 -0.0306  0.3332  0.2413
 6000W        W21894  12.541   6.773  11.756 -0.2960  0.6454 -0.1122
 6001W        W21895   8.554   9.426  13.889  0.0295 -0.5377 -0.0520
 6002W        W21896  14.047   7.086  12.325 -0.2675 -0.0087 -0.2078
 6003W        W21897  14.992   5.838  12.539  0.2217 -0.2032 -0.0368
 6004W        W21898  15.566  15.431   2.037  0.0543  0.0313 -0.0580
 6005W        W21899   3.538   8.687   9.655  0.2600  0.0192 -0.0035
 6006W        W21900   1.589  10.511   1.570  0.0714 -0.3676 -0.3339
 6007W        W21901  13.775   1.755   1.590  0.1729 -0.2338  0.5862
 6008W        W21902  10.398  18.309  14.496  0.1301  0.1216 -0.0941
 6009W        W21903  16.655  14.130  15.094  0.1289  0.2863  0.0356
 6010W        W21904   7.451  18.009   0.218  0.1274  0.0968 -0.4145
 6011W        W21905   7.672  16.444   4.353  0.1684  0.1726 -0.2427
 6012W        W21906   4.451  17.758  10.745 -0.2872 -0.0549 -0.4374
 6013W        W21907   7.427  12.704  14.141  0.1364  0.1261  0.2695
 6014W        W21908   5.950  17.449   2.007 -0.4497  0.1707 -0.2263
 6015W        W21909   4.217   4.021   4.780  0.0642  0.0936  0.1966
 6016W        W21910  13.994  13.246  13.281 -0.4993  0.2332  0.1594
 6017W        W21911  10.941   2.644  12.768 -0.0388 -0.0387 -0.1784
 6018W        W21912   5.049   6.415   0.633  0.0734  0.2309  0.1810
 6019W        W21913   5.962   6.586   3.284  0.2342 -0.0587 -0.2616
 6020W        W21914  14.248  11.192  12.828  0.0605 -0.2271 -0.1918
 6021W        W21915   4.157  16.729   0.537 -0.0045 -0.1143 -0.1758
 6022W        W21916   6.363  17.483   1.006  0.3117  0.3196 -0.2952
 6023W        W21917  18.233  12.740   0.088 -0.1474 -0.3215  0.3952
 6024W        W21918  12.762  18.357  14.138  0.2233  0.1708 -0.2660
 6025W        W21919   9.549  16.279   4.123  0.0808 -0.1778  0.0281
 6026W        W21920  15.097  16.391   2.900  0.0330 -0.1887  0.1949
 6027W        W21921  18.373  18.412  11.038 -0.0929  0.2934  0.1706
 6028W        W21922   0.717   2.800   3.754  0.1908 -0.0136  0.1460
 6029W        W21923  12.281   7.829  13.494 -0.0119 -0.2257 -0.2744
 6030W        W21924  13.559   7.669   0.305 -0.0348  0.0719 -0.0373
 6031W        W21925  17.511   7.348   0.660  0.2186  0.2438  0.0066
 6032W        W21926  11.868   4.850   3.391  0.0185 -0.0688  0.1990
 6033W        W21927  11.503   5.131   3.110  0.0881 -0.4762 -0.4396
 6034W        W21928  17.041  12.233  12.971 -0.0902  0.1124  0.0898
 6035W        W21929   1.698  16.573   3.870 -0.1521 -0.1934  0.4327
 6036W        W21930  17.521  11.708   4.699  0.1089  0.0007  0.2711
 6037W        W21931  14.575  12.627  12.280 -0.2567  0.3405 -0.0941
 6038W        W21932  17.455   2.532  15.044 -0.0246 -0.3710 -0.1832
 6039W        W21933  12.622  15.730   0.223  0.0127 -0.2345 -0.0644
 6040W        W21934  11.093   4.982   4.455 -0.1707 -0.0106  0.1492
 6041W        W21935   8.117   9.448  14.117 -0.1141 -0.0467 -0.0182
 6042W        W21936  17.394  12.740   0.529  0.1654  0.1683  0.3598
 6043W        W21937   1.298  16.709   2.599 -0.1750 -0.0103 -0.2567
 6044W        W21938  12.589   8.977   3.181 -0.0890  0.1328  0.2587
 6045W        W21939  18.934   1.976  11.090 -0.1698 -0.0020  0.2125
 6046W        W21940   3.504  11.230   0.487  0.0753  0.0022 -0.0001
 6047W        W21941   2.013  15.333  12.215  0.0016 -0.2750  0.0905
 6048W        W21942  11.887  16.601  11.308 -0.0775 -0.2549 -0.2705
 6049W        W21943   1.195  17.098  14.250 -0.0047  0.1579 -0.4868
 6050W        W21944  13.994  15.912   2.265 -0.1280 -0.0454  0.1205
 6051W        W21945  13.778   5.772   1.445 -0.1278 -0.1194  0.3435
 6052W        W21946  12.051   3.323   3.785 -0.0557 -0.0334 -0.3421
 6053W        W21947  15.111   1.849   4.064 -0.1710  0.0539  0.1121
 6054W        W21948   7.572   5.283  14.606  0.1986 -0.2444  0.0430
 6055W        W21949  12.633  12.501   4.380 -0.0957 -0.1650 -0.1098
 6056W        W21950   3.693   2.363   0.383 -0.0285  0.2809  0.0273
 6057W        W21951   2.238   4.410   4.386  0.0614  0.1658 -0.2383
 6058W        W21952   4.818   7.143  11.221 -0.0319  0.3777 -0.1587
 6059W        W21953  13.551  16.839  15.173  0.0336  0.1122 -0.1715
 6060W        W21954  12.307  15.940  13.945  0.1486  0.2219  0.1755
 6061W        W21955   5.666  16.094   0.740  0.0482  0.1045 -0.3805
 6062W        W21956   6.530  15.557  14.176  0.2048 -0.1514  0.0561
 6063W        W21957   5.305  17.673  11.975 -0.0470  0.3457 -0.0393
 6064W        W21958   4.141   4.076  12.502 -0.2382 -0.3237 -0.2233
 6065W        W21959   7.609  18.625   0.778  0.0875  0.1101 -0.0050
 6066W        W21960   2.168   7.649  11.123  0.0590  0.2906 -0.1282
 6067W        W21961   5.514  11.072  14.585  0.2610  0.2083  0.1515
 6068W        W21962   3.877   5.293   3.273 -0.0877  0.1849 -0.1164
 6069W        W21963   4.951  14.519   5.272 -0.3360  0.1869  0.1662
 6070W        W21964  16.918   7.061   3.133  0.0482 -0.0654  0.0009
 6071W        W21965  16.800  10.451   0.832  0.0440 -0.1350  0.3245
 6072W        W21966   3.386   5.645   1.315  0.0486  0.1602 -0.0007
 6073W        W21967  13.689  14.689   2.466 -0.2470  0.0166 -0.1692
 6074W        W21968  18.075  17.140   4.049 -0.2013  0.2981 -0.1623
 6075W        W21969   0.550   0.554   5.086  0.0692 -0.0708 -0.1594
 6076W        W21970  17.918   8.625   0.667 -0.2690  0.1119 -0.1538
 6077W        W21971  18.822   0.762   1.577 -0.0620  0.0653  0.1945
 6078W        W21972  10.775   0.582   4.572  0.2578  0.0590 -0.0557
 6079W        W21973  10.839   1.204  13.165 -0.2600  0.0401  0.0185
 6080W        W21974  14.437   9.912   2.918 -0.2955  0.0161  0.1927
 6081W        W21975  17.888   2.365   0.733  0.0966 -0.0068 -0.0270
 6082W        W21976   4.734   6.516   1.080  0.1203  0.0413  0.3306
 6083W        W21977   1.084   1.506   1.134 -0.1766 -0.1873 -0.1728
 6084W        W21978   6.600  11.797  13.618 -0.3522  0.5130 -0.2916
 6085W        W21979  16.807  11.584  10.352 -0.1932 -0.0759  0.1796
 6086W        W21980  18.627   8.202   4.178  0.2537  0.1792  0.1199
 6087W        W21981   3.178   9.365  13.406 -0.3580  0.0355 -0.1201
 6088W        W21982  17.666  10.435  10.915 -0.0620  0.1139 -0.1427
 6089W        W21983   2.552   0.127   3.281 -0.3475 -0.0289  0.1117
 6090W        W21984  13.712  18.132  13.310  0.1792  0.2389  0.4502
 6091W        W21985   8.086   0.113  12.475  0.1614 -0.0943  0.1047
 6092W        W21986  15.872   0.447  14.152  0.1280  0.1320  0.2742
 6093W        W21987  11.242   2.121  15.193 -0.2570  0.0504 -0.0921
 6094W        W21988   1.751   6.609   3.272 -0.0849 -0.0053  0.1879
 6095W        W21989   4.731   1.933  15.097  0.2126  0.0759 -0.0859
 6096W        W21990  16.497   3.943   0.915  0.2155 -0.1792  0.0976
 6097W        W21991  14.650  18.698  11.816 -0.0316  0.2417  0.0964
 6098W        W21992  13.156  11.050  13.210  0.1366 -0.2628 -0.1632
 6099W        W21993  12.118  14.477   0.164  0.1662  0.0335  0.0388
 6100W        W21994  12.563   9.131  10.707 -0.0856  0.0665  0.0624
 6101W        W21995   3.686   7.638   4.087  0.3601 -0.0385  0.2260
 6102W        W21996  18.149   4.633  13.366  0.0301 -0.0395  0.0518
 6103W        W21997   7.451  11.008  11.974 -0.0356  0.0838 -0.4437
 6104W        W21998  16.224   9.941  10.965 -0.0315 -0.4085 -0.1338
 6105W        W21999  11.998   7.702  10.707 -0.1986 -0.1809 -0.1441
 6106W        W22000  10.879   7.736   2.361  0.0185  0.2665  0.0984
 6107W        W22001   2.655  13.144   4.107 -0.0018 -0.1223  0.2565
 6108W        W22002  17.038  16.248  14.877  0.1364 -0.1081 -0.0806
 6109W        W22003   0.023  13.167  14.090  0.0773 -0.0032 -0.1183
 6110W        W22004  11.990   1.170  12.436 -0.1466  0.1384  0.1090
 6111W        W22005   9.771  14.269  10.693 -0.0080 -0.5668 -0.3647
 6112W        W22006   1.855  17.378   0.122 -0.0893 -0.1295  0.2933
 6113W        W22007  16.673   7.056  14.881 -0.1399  0.1255 -0.2259
 6114W        W22008   0.571   6.721  13.388 -0.0392 -0.0301 -0.2313
 6115W        W22009   5.110  14.831   2.409 -0.0063  0.0210 -0.0019
 6116W        W22010   4.097  13.227   3.556  0.1534  0.0939  0.3422
 6117W        W22011   4.610   7.498  13.140  0.0295  0.4244 -0.2592
 6118W        W22012  13.114   8.289   9.513  0.1357  0.1167  0.1535
 6119W        W22013   2.162   5.716   5.453 -0.2757  0.3989  0.2465
 6120W        W22014  15.867   0.769   3.633  0.2081 -0.1495 -0.0840
 6121W        W22015  18.563  16.845   4.887  0.0811 -0.0738 -0.1065
 6122W        W22016  16.088  10.385   1.863  0.0066  0.1268  0.0035
 6123W        W22017   4.592   6.945  13.232 -0.1578 -0.0728 -0.2122
 6124W        W22018   8.534   7.841   1.839  0.0978 -0.0695  0.1431
 6125W        W22019   3.715   1.737   1.282 -0.2624  0.1255  0.0930
 6126W        W22020  12.088   6.614  11.635 -0.2367 -0.3705  0.2147
 6127W        W22021   8.310  19.068   5.195  0.1798  0.2127  0.2128
 6128W        W22022  13.527  12.723  13.539  0.2588  0.1422 -0.1257
 6129W        W22023  10.625  10.246  12.062 -0.0192 -0.0781  0.2213
 6130W        W22024  12.499   4.430  12.810  0.2015  0.3394  0.0136
 6131W        W22025  14.645   1.659  12.981  0.1447  0.4442 -0.0745
 6132W        W22026  12.022   5.678  13.129 -0.2816  0.0323  0.0402
 6133W        W22027   0.647  17.436  12.687  0.1221 -0.0374  0.1019
 6134W        W22028  10.729  17.163   4.803 -0.2621  0.0565  0.2806
 6135W        W22029   3.454   6.980   4.660  0.0519  0.0925  0.1081
 6136W        W22030   4.544  15.523  13.665  0.1930 -0.1120 -0.1352
 6137W        W22031   4.657   8.687   4.804  0.2418 -0.1862 -0.3197
 6138W        W22032   6.366   6.168  10.496  0.2660 -0.1191  0.1103
 6139W        W22033   6.794   7.309   1.207 -0.1863 -0.0800 -0.0212
 6140W        W22034   8.150   9.238  15.062  0.2548  0.0795  0.0603
 6141W        W22035  16.119   0.568  14.635  0.3466  0.1472  0.0653
 6142W        W22036  17.444   7.477  12.606 -0.1915 -0.0927  0.0510
 6143W        W22037  10.055  10.279  13.185 -0.0745 -0.2487  0.2359
 6144W        W22038   5.993   9.212   3.527 -0.1578 -0.3121  0.1152
 6145W        W22039  10.236  16.937   4.741  0.1193  0.1066  0.1787
 6146W        W22040  18.800   9.086  14.887 -0.0246 -0.3301  0.0277
 6147W        W22041  10.390   2.978   1.835 -0.0684 -0.3489 -0.1476
 6148W        W22042  17.573   3.632   3.940  0.0543 -0.2645  0.3250
 6149W        W22043   8.988  16.314   2.688 -0.3574 -0.2698 -0.0755
 6150W        W22044  12.484  15.045  11.641  0.1321  0.1483  0.0079
 6151W        W22045   9.862  14.243   2.483  0.2785  0.1295  0.0439
 6152W        W22046   3.153   7.688  11.396  0.0886  0.0226 -0.1362
 6153W        W22047   7.457   6.246  10.931 -0.0528 -0.2119  0.2941
 6154W        W22048   5.603   2.835   1.807 -0.1454  0.0027  0.0835
 6155W        W22049   0.268   2.125   4.556  0.0332  0.1356 -0.0543
 6156W        W22050  14.498  13.856   0.366  0.0603 -0.2569 -0.0652
 6157W        W22051  17.405  14.619   2.087  0.2535 -0.1890  0.0594
 6158W        W22052   8.342  13.166   0.000  0.0590  0.3444 -0.1621
 6159W        W22053   1.457  14.794   0.701 -0.0165  0.1756 -0.0902
 6160W        W22054   8.098   5.456   3.614  0.4528  0.2114  0.1904
 6161W        W22055  13.206  13.041  13.939  0.0622 -0.1118 -0.1215
 6162W        W22056   6.425  18.352   1.636  0.2592 -0.1089  0.1639
 6163W        W22057   4.074  13.465   4.135 -0.1025 -0.0416 -0.0908
 6164W        W22058  12.493   9.342   5.184  0.1556  0.3975 -0.0588
 6165W        W22059  10.078  11.883   3.228 -0.1280  0.0372 -0.0412
 6166W        W22060  11.504   8.475   2.406  0.2191  0.1585 -0.0258
 6167W        W22061   2.382  11.051  14.858  0.1589  0.0689 -0.0221
 6168W        W22062   6.001  19.170   2.471 -0.0495 -0.2754  0.1109
 6169W        W22063   4.293   2.012  14.150  0.3277 -0.0821 -0.0622
 6170W        W22064   9.294   1.480  13.634 -0.1557 -0.1014 -0.2046
 6171W        W22065  14.670   4.526   3.421  0.3019 -0.3240  0.1714
 6172W        W22066  10.434  10.865  10.234  0.1438  0.2668 -0.0117
 6173W        W22067  18.836   8.876   4.608 -0.1178  0.1620  0.2046
 6174W        W22068   0.626   7.689   4.514 -0.1726 -0.1877 -0.0137
 6175W        W22069   0.362  12.632  12.244 -0.0342 -0.0096  0.0402
 6176W        W22070  12.865  15.017   1.175 -0.0202  0.0263  0.2177
 6177W        W22071   7.730   3.070  10.807  0.1204 -0.0336 -0.1840
 6178W        W22072   8.019  10.846   3.210  0.1153 -0.0667 -0.1404
 6179W        W22073  11.312   9.619   2.609  0.2548 -0.1100 -0.0931
 6180W        W22074  15.133   2.207   6.019 -0.0595 -0.1350  0.1209
 6181W        W22075   7.530   0.303   1.073 -0.2329 -0.2157  0.2198
 6182W        W22076   0.800   4.290   0.989  0.2289 -0.1724  0.1557
 6183W        W22077   8.454   6.543  10.550 -0.0154  0.0572 -0.0772
 6184W        W22078   1.991  16.575   4.740 -0.1603  0.0690  0.2701
 6185W        W22079   8.394   4.784  12.505 -0.3100 -0.0534 -0.1864
 6186W        W22080   1.926   7.492   1.724 -0.0236  0.3092 -0.2642
 6187W        W22081   5.458  12.246  14.583 -0.2087 -0.0737  0.1708
 6188W        W22082  13.161   8.015   3.979  0.0981  0.0076 -0.2193
 6189W        W22083  11.584   0.751   5.037 -0.0914  0.2877 -0.1263
 6190W        W22084   6.159  11.951  11.480 -0.0144 -0.3035 -0.0010
 6191W        W22085  10.478   9.539  10.937 -0.1485 -0.2467  0.1799
 6192W        W22086  17.934   3.386   4.196 -0.0192  0.2145 -0.0206
 6193W        W22087   2.798   4.347  13.276 -0.0095 -0.0280 -0.4080
 6194W        W22088  17.531  10.226  15.132  0.1210 -0.1967 -0.3718
 6195W        W22089  12.190   5.578  14.867  0.2505 -0.1876 -0.2027
 6196W        W22090   2.285  18.965  10.401 -0.1551 -0.2563 -0.1450
 6197W        W22091   6.106  16.397   2.403 -0.5022 -0.3130  0.0129
 6198W        W22092   8.999  11.920   0.181  0.0155 -0.0380 -0.0880
 6199W        W22093  17.475  16.339   0.423 -0.4504 -0.4720  0.0594
 6200W        W22094  18.966  15.026  11.297  0.1439  0.0780 -0.1957
 6201W        W22095   0.776   4.260   5.241  0.2383  0.2613 -0.2321
 6202W        W22096  10.673   9.369  13.655 -0.1760  0.0910  0.0588
 6203W        W22097   0.994   4.739  12.502  0.4279 -0.1366 -0.2682
 6204W        W22098  18.573   4.431  13.698  0.0556 -0.1450  0.0260
 6205W        W22099  17.059  18.501  11.077  0.2727  0.0207 -0.2810
 6206W        W22100   8.514  13.665   1.865  0.1266  0.2927  0.2566
 6207W        W22101   7.247  17.797  13.410 -0.4718  0.0334 -0.0554
 6208W        W22102   5.481   3.230   5.073 -0.0037 -0.0436 -0.0100
 6209W        W22103  11.577  11.583  13.927 -0.0588  0.0696 -0.2581
 6210W        W22104   7.616   1.611  10.405 -0.0714 -0.0791 -0.0135
 6211W        W22105  16.353  12.021  14.223 -0.2510  0.1203 -0.0033
 6212W        W22106   5.411   8.071   1.518  0.3959  0.2356 -0.0789
 6213W        W22107   3.574  10.573  13.599  0.1241 -0.0501 -0.0087
 6214W        W22108   0.100   9.924   1.240 -0.0480 -0.2023 -0.1947
 6215W        W22109   6.835  14.123   0.624  0.0105  0.0139 -0.0381
 6216W        W22110   0.128  16.410   4.549 -0.0948  0.0932  0.1037
 6217W        W22111   6.801  14.353   2.929 -0.2171 -0.1698  0.0855
 6218W        W22112  11.843   5.385  10.825  0.2723  0.0427  0.1997
 6219W        W22113  16.487   0.798   3.355  0.1381  0.4702 -0.0239
 6220W        W22114   7.815   6.260   0.367  0.1310  0.3017  0.1453
 6221W        W22115   9.304  15.118   2.123 -0.1153 -0.0419 -0.0710
 6222W        W22116  17.193   8.259  12.857 -0.0421  0.1250 -0.0224
 6223W        W22117   9.415   2.382  14.884 -0.1780 -0.2368 -0.4553
 6224W        W22118  13.806   3.011  11.495 -0.0015 -0.3132  0.3354
 6225W        W22119   0.317  15.313   2.701  0.2145  0.0161 -0.0628
 6226W        W22120   4.769   3.071   0.679 -0.0125 -0.1144 -0.0555
 6227W        W22121  14.243  10.172  15.024  0.1156 -0.4012 -0.4193
 6228W        W22122   8.188   3.824  13.189 -0.4294 -0.2387 -0.2212
 6229W        W22123  17.151  15.303  14.415  0.2076  0.0181  0.2714
 6230W        W22124   1.667   3.846  10.698 -0.3480 -0.0282  0.4490
 6231W        W22125   5.368   2.545  11.928 -0.0730  0.0209  0.2406
 6232W        W22126  15.589  16.025  12.982 -0.0293 -0.3035  0.1064
 6233W        W22127  16.761  15.630   1.512  0.0184  0.0789  0.0664
 6234W        W22128  11.682  17.847  13.817  0.1808  0.2281  0.1232
 6235W        W22129  10.434   3.981  11.036 -0.0994 -0.4101 -0.2375
 6236W        W22130   3.604  11.191   2.078  0.1069 -0.1619  0.2082
 6237W        W22131   4.876  19.067  11.060  0.0721 -0.0964  0.2023
 6238W        W22132   6.804  18.795  14.241  0.0081  0.0661 -0.0792
 6239W        W22133  14.963  10.558  11.906 -0.2600 -0.1696 -0.0963
 6240W        W22134   8.115   4.983  12.143 -0.0773  0.0546 -0.2224
 6241W        W22135   9.400  14.227   1.565  0.1882 -0.0345  0.0938
 6242W        W22136   9.839  14.974  12.209 -0.2572  0.2715 -0.0092
 6243W        W22137   9.236   3.099   3.326 -0.0445  0.0406 -0.0070
 6244W        W22138  15.490  12.685  12.625  0.1008 -0.8117 -0.2494
 6245W        W22139   9.667  11.825   2.944 -0.3162 -0.2607  0.3219
 6246W        W22140  15.637   2.505   1.716 -0.2944 -0.0107  0.3793
 6247W        W22141   5.169   7.447   3.995  0.4396  0.0534  0.0578
 6248W        W22142   4.927  10.457  13.793 -0.1027  0.0388  0.0409
 6249W        W22143  12.876   0.318   4.482  0.2214  0.3811 -0.1040
 6250W        W22144  13.099  11.108   4.247  0.5631 -0.1469  0.2289
 6251W        W22145   8.078   8.533  10.967 -0.0551 -0.1211  0.0715
 6252W        W22146  18.626  13.531   0.873  0.3181 -0.0682  0.0610
 6253W        W22147  11.959  11.893   0.874 -0.2688 -0.4067 -0.0576
 6254W        W22148  17.051   5.735  11.655  0.4662  0.3078 -0.4524
 6255W        W22149  13.661   3.744   2.867  0.0917  0.1344 -0.3455
 6256W        W22150  13.298   1.719   3.369 -0.0489  0.0850  0.1802
 6257W        W22151   3.277  10.863   2.494  0.0070 -0.1416 -0.3862
 6258W        W22152   9.408  17.838  13.766  0.3786 -0.3546 -0.0102
 6259W        W22153  15.698  15.785   0.304 -0.0851  0.2580 -0.3572
 6260W        W22154  13.955  14.967   4.562 -0.3043 -0.3819 -0.1593
 6261W        W22155   1.402   8.194  12.879  0.2403 -0.2940  0.1080
 6262W        W22156   2.247   3.228  13.171 -0.0163 -0.0235  0.0364
 6263W        W22157  13.977   4.466  14.205  0.1892  0.1880  0.2812
 6264W        W22158  15.372   1.253   1.794  0.3969  0.1432  0.2487
 6265W        W22159  18.397   0.887  15.070  0.3128 -0.1571  0.0075
 6266W        W22160  16.488   1.667   0.620 -0.0455 -0.1039 -0.0751
 6267W        W22161  18.064   3.343   0.832 -0.2430 -0.5209 -0.1700
 6268W        W22162  13.329   4.994  13.615  0.0186 -0.2002 -0.0694
 6269W        W22163  18.574  12.633   5.114 -0.0425  0.2184 -0.0086
 6270W        W22164  12.176  15.201  12.988  0.0492 -0.1837 -0.1581
 6271W        W22165  10.606  14.371   4.537 -0.2639  0.3589 -0.0994
 6272W        W22166  18.840   9.527  13.834 -0.0968 -0.0473 -0.0295
 6273W        W22167   2.054   7.934   0.506 -0.2169 -0.2804 -0.0671
 6274W        W22168   9.696   7.361  14.663  0.0665 -0.0547 -0.0084
 6275W        W22169   6.831  15.762   0.887  0.2059 -0.3880  0.1455
 6276W        W22170  18.865   7.875  13.686  0.2170  0.0720  0.0150
 6277W        W22171   2.805  17.231  11.246  0.1708 -0.1794 -0.1508
 6278W        W22172   5.631  17.037  15.077 -0.0487 -0.3411  0.4761
 6279W        W22173   5.377  16.249  11.900  0.2205  0.4694 -0.1788
 6280W        W22174  17.389  17.310   0.780 -0.0920  0.1688 -0.0722
 6281W        W22175   8.676   6.036   0.664  0.0233  0.2832 -0.2441
 6282W        W22176   5.559   6.294  10.642 -0.0172 -0.1085 -0.1113
 6283W        W22177  11.943  13.235   0.994  0.4320  0.1759  0.2582
 6284W        W22178  17.125   4.566   0.950  0.2076  0.0738  0.2319
 6285W        W22179  11.129   9.521  15.184  0.2202 -0.1980 -0.1249
 6286W        W22180  13.757  10.239  14.644  0.1439  0.0855 -0.1838
 6287W        W22181   6.270  17.319  10.375  0.3457 -0.3705  0.0374
 6288W        W22182   4.180   3.333  14.194  0.0104 -0.1973  0.1328
 6289W        W22183  14.642   0.403  13.557 -0.4437 -0.0069 -0.0263
 6290W        W22184   7.196  14.441   2.198 -0.0607  0.3102  0.0207
 6291W        W22185  16.313   1.151   0.612 -0.5950 -0.1211 -0.1135
 6292W        W22186   4.296   1.444   4.494  0.1415  0.4461 -0.2986
 6293W        W22187  15.374  15.600  10.863  0.2544  0.2250  0.2639
 6294W        W22188   0.920  10.399   2.375  0.3356  0.0692 -0.0875
 6295W        W22189  16.714  10.964   4.375  0.3344 -0.1891 -0.2280
 6296W        W22190   5.803   6.780  14.120 -0.2142  0.2461  0.1996
 6297W        W22191  18.085  18.349  14.525  0.2240 -0.0190 -0.0371
 6298W        W22192  14.266   1.916   1.456  0.3092 -0.0843 -0.3377
 6299W        W22193   7.827   5.186   5.819  0.4455 -0.2331  0.1108
 6300W        W22194  13.033  15.948   5.276 -0.1664  0.0306 -0.0114
 6301W        W22195  14.754   5.699   0.317  0.0997  0.0688  0.0576
 6302W        W22196  11.888  13.520  10.330 -0.4058 -0.1433  0.0313
 6303W        W22197  17.214  18.035  12.375  0.0145 -0.2702 -0.1208
 6304W        W22198   2.487  11.699   5.268 -0.0995  0.3408  0.2330
 6305W        W22199  16.457  17.932   2.388 -0.1216  0.1093 -0.3811
 6306W        W22200  10.047  14.633  11.816 -0.1501 -0.0607  0.1242
 6307W        W22201   3.947   9.296   4.273  0.1448  0.0111 -0.1275
 6308W        W22202   8.968  14.961   5.776  0.1964  0.0892 -0.2168
 6309W        W22203  18.359   8.202   1.261 -0.1635 -0.3928 -0.2456
 6310W        W22204  14.666  11.880  13.680 -0.0666  0.3779 -0.0394
 6311W        W22205  11.737  18.572   3.712 -0.2980 -0.2171  0.0906
 6312W        W22206   6.187   7.790   2.041 -0.1424  0.2144 -0.1381
 6313W        W22207   1.210  13.429   5.259  0.3970 -0.1360 -0.2071
 6314W        W22208  10.612  18.725   4.447 -0.1096  0.0687  0.1552
 6315W        W22209  15.728   1.119   2.854  0.1201 -0.2665 -0.0367
 6316W        W22210   2.353  10.146  14.497  0.3690  0.1489 -0.2589
 6317W        W22211  15.891  10.871   4.848  0.3167 -0.1019  0.1867
 6318W        W22212  18.399   1.026  10.789 -0.3169  0.1019  0.0662
 6319W        W22213   3.822  17.122   4.829  0.0400 -0.0454  0.1882
 6320W        W22214   7.927  12.307   4.518  0.1035  0.0802  0.0340
 6321W        W22215  15.059  10.594  14.277  0.3956  0.1478  0.0300
 6322W        W22216   3.944   4.507   4.673 -0.0813  0.1524 -0.4251
 6323W        W22217   8.962  16.361  14.389  0.2305  0.0047  0.1288
 6324W        W22218   6.600   2.718  12.213 -0.0288  0.0384 -0.1298
 6325W        W22219  10.565  15.358  13.696  0.1689  0.0830  0.3418
 6326W        W22220   8.539  15.587  13.056  0.0224  0.2672  0.4107
 6327W        W22221   4.711   5.167  11.624 -0.1494  0.2830 -0.0243
 6328W        W22222   6.311   3.280  12.982 -0.2491  0.0752  0.1105
 6329W        W22223  12.125  10.212  11.511 -0.1061 -0.0227  0.2163
 6330W        W22224  13.206   3.120   1.791 -0.0697  0.2142  0.0519
 6331W        W22225  11.184  11.528  14.887 -0.2668 -0.0890 -0.1549
 6332W        W22226  10.850   5.496   4.233 -0.1022 -0.3982 -0.3912
 6333W        W22227   7.543   1.545  12.657  0.0301 -0.3993 -0.4786
 6334W        W22228   5.489  14.692   4.961 -0.2718  0.0651 -0.0689
 6335W        W22229   0.169   7.097   0.234  0.3907 -0.1406  0.1138
 6336W        W22230   6.333   1.467  11.653  0.0129 -0.0265  0.0346
 6337W        W22231   0.178  17.553   3.021 -0.2217  0.1051  0.0815
 6338W        W22232  16.865  10.280  11.645 -0.0509 -0.0256  0.1289
 6339W        W22233   8.349  13.832   3.491  0.0296  0.0680  0.0320
 6340W        W22234  14.907   1.052   1.564 -0.2359  0.1006  0.0641
 6341W        W22235  11.992   9.023   3.191  0.0179 -0.1616  0.2990
 6342W        W22236  15.960   8.741  11.093 -0.0478  0.4042 -0.2398
 6343W        W22237   9.546  14.038   3.715 -0.4582  0.2123 -0.1685
 6344W        W22238   7.411   8.651  14.935 -0.0359 -0.0120 -0.4215
 6345W        W22239   4.912   5.183  12.651  0.2830 -0.1396  0.0477
 6346W        W22240   3.892   0.216   5.385 -0.1565 -0.1434 -0.0829
 6347W        W22241  12.824  17.507  13.271  0.1201  0.1819 -0.0999
 6348W        W22242  11.000  14.113  11.542  0.0157  0.0126 -0.0031
 6349W        W22243  16.383  17.947   0.562 -0.1580  0.3261  0.1362
 6350W        W22244  10.183  17.886   9.778 -0.1981  0.0174 -0.0385
 6351W        W22245   3.143   6.269   2.301  0.0851  0.0897  0.1449
 6352W        W22246   0.681   1.875   4.731  0.1665 -0.1311 -0.1392
 6353W        W22247   7.735  13.185   3.069  0.2239  0.5926  0.0696
 6354W        W22248   2.623   4.927   5.184  0.0458  0.1466 -0.0119
 6355W        W22249   9.406  13.348  13.445  0.0706  0.2133  0.1952
 6356W        W22250   4.851  14.807   4.178 -0.0855  0.1857  0.0846
 6357W        W22251   0.093   4.241  11.103  0.3977 -0.0620 -0.3950
 6358W        W22252   6.208  18.648   2.704 -0.1606  0.0536  0.0129
 6359W        W22253   7.769  10.805  11.240 -0.0860 -0.1317  0.0395
 6360W        W22254   6.836   1.196  12.410  0.0634  0.0764 -0.0761
 6361W        W22255  18.601   6.371   2.084 -0.0109 -0.1504 -0.0175
 6362W        W22256  11.780   8.325   1.643 -0.3320 -0.1437 -0.1344
 6363W        W22257  18.284   5.200  10.505  0.1977 -0.2911  0.0889
 6364W        W22258   0.635   5.037   3.316  0.3155  0.3319  0.0233
 6365W        W22259  12.767   2.383   3.965 -0.2125  0.1650  0.2595
 6366W        W22260  11.171  15.832   0.297 -0.0828 -0.0119  0.2088
 6367W        W22261   2.417  15.794  11.538  0.0790 -0.2079 -0.0844
 6368W        W22262  16.435  17.821  14.824 -0.0517 -0.1394 -0.1733
 6369W        W22263  13.398   3.603   3.984  0.1564  0.1604  0.1879
 6370W        W22264  11.486   0.697  14.792 -0.1267 -0.0526  0.0092
 6371W        W22265  13.668  13.005   0.460 -0.4846  0.1038  0.1164
 6372W        W22266  12.554   6.929   2.811  0.2156 -0.2094  0.2574
 6373W        W22267   4.923   1.066   2.467 -0.1810  0.2246 -0.1620
 6374W        W22268  17.315  10.753  10.546  0.3030 -0.5491 -0.2728
 6375W        W22269  14.158   8.675   2.829 -0.1698  0.1258 -0.1914
 6376W        W22270   4.040  16.835   3.097  0.1868  0.2048  0.2404
 6377W        W22271  15.041  18.345  11.927  0.0085  0.0003 -0.1658
 6378W        W22272  12.355  14.623   3.354 -0.0559  0.3126 -0.1767
 6379W        W22273   3.803  15.033   1.322  0.4739  0.1212 -0.0545
 6380W        W22274   6.641  17.360  11.521 -0.1799 -0.1427 -0.2408
 6381W        W22275   3.467   4.214   0.336 -0.0211  0.1429 -0.2213
 6382W        W22276  11.770   4.796  10.723  0.0003 -0.1818  0.1962
 6383W        W22277  18.150  10.024  13.522 -0.0826 -0.2411  0.1328
 6384W        W22278   3.920  10.521  11.825  0.2460  0.0892  0.3316
 6385W        W22279   1.738  10.072   0.696  0.1770 -0.2652  0.1457
 6386W        W22280   0.747  15.946  11.187  0.1034  0.0622  0.3855
 6387W        W22281  13.873  18.232   2.120  0.1293 -0.1851 -0.1328
 6388W        W22282  16.334  16.950   2.671 -0.2331  0.1352  0.1208
 6389W        W22283   5.005   4.613  11.059  0.0878 -0.1501  0.1059
 6390W        W22284  10.590   6.176  10.149 -0.1038  0.3167 -0.1011
 6391W        W22285   2.377  12.959  12.053  0.1848 -0.1442 -0.0019
 6392W        W22286   7.964   4.138  12.287 -0.1240 -0.0823 -0.0322
 6393W        W22287   1.853   5.986  11.694  0.2181  0.0148  0.0722
 6394W        W22288  18.718  10.537   3.718 -0.0053 -0.1619 -0.1725
 6395W        W22289   0.715   4.064   2.928 -0.2992  0.0550 -0.0161
 6396W        W22290  18.429  10.167   2.265  0.2869 -0.1427  0.0552
 6397W        W22291  15.940   5.576   4.437 -0.1003  0.1884  0.2617
 6398W        W22292   3.077  17.455  14.951  0.0219  0.1675 -0.1450
 6399W        W22293   3.807   9.935  10.186  0.0206 -0.2731 -0.0497
 6400W        W22294   8.381  18.364   0.577 -0.0919 -0.2486  0.2548
 6401W        W22295  13.439  17.921   0.975 -0.0226 -0.0552  0.0585
 6402W        W22296   6.374  14.170  12.931  0.2423  0.2366 -0.0629
 6403W        W22297   3.297   9.844  14.682  0.2911 -0.1071 -0.0773
 6404W        W22298   6.615   9.986   4.218  0.0692  0.2359 -0.3937
 6405W        W22299   1.280   1.064   2.250  0.0072  0.1496 -0.0273
 6406W        W22300  14.176   5.561   4.160 -0.0944  0.0294  0.1355
 6407W        W22301   1.282   2.824   1.855  0.0831  0.1398 -0.1176
 6408W        W22302   6.259   7.182   9.820 -0.1645 -0.0650 -0.1936
 6409W        W22303  15.345   2.518   4.591 -0.1317  0.1175 -0.0638
 6410W        W22304   0.117  10.987   9.718  0.3092 -0.1054  0.0711
 6411W        W22305   8.897  15.391  11.425  0.0041 -0.2307  0.0713
 6412W        W22306  10.404   5.486  12.005  0.1614 -0.0938  0.0418
 6413W        W22307  19.182  13.546  11.289  0.0002  0.3583 -0.4523
 6414W        W22308   1.382   9.319  12.006  0.1156 -0.0429  0.0823
 6415W        W22309   1.347   5.175   5.168 -0.1766 -0.2382  0.2850
 6416W        W22310  14.027   6.966  11.847 -0.1252  0.0607 -0.3719
 6417W        W22311  18.663  15.137  12.299  0.2199  0.1252 -0.0645
 6418W        W22312  12.552  12.430   1.902 -0.1299  0.1889 -0.1302
 6419W        W22313   4.395  14.488   0.035  0.0950 -0.3037 -0.0648
 6420W        W22314   4.741  11.315  12.715  0.0254  0.0722  0.0941
 6421W        W22315   8.730   4.496  12.732 -0.0661  0.0461  0.0652
 6422W        W22316  15.674  11.838   3.722  0.1831  0.0072 -0.4354
 6423W        W22317  13.338  13.355   4.996 -0.1895  0.0251 -0.1256
 6424W        W22318   9.640  12.258   0.759 -0.3472  0.1282 -0.0438
 6425W        W22319   3.452   3.647  11.265 -0.1129 -0.1945 -0.2766
 6426W        W22320  12.336  12.871   3.538  0.1230 -0.0002 -0.0267
 6427W        W22321   9.069  11.072   0.468  0.2437 -0.0276  0.2778
 6428W        W22322   3.412   6.103   3.150  0.0388 -0.1281 -0.1095
 6429W        W22323   8.637   6.744   3.729  0.0271  0.0879  0.1309
 6430W        W22324  10.036  14.784  14.486 -0.1182  0.0553 -0.0795
 6431W        W22325  12.346   7.229  13.173  0.1330 -0.2854 -0.0657
 6432W        W22326  15.072  15.953  12.837  0.0632 -0.0922  0.0043
 6433W        W22327   7.301  18.910  14.319  0.0535 -0.1868 -0.0674
 6434W        W22328   4.716   3.964  14.356 -0.1369 -0.1302 -0.0632
 6435W        W22329   0.644   8.422  12.681  0.0119 -0.1564 -0.3793
 6436W        W22330   4.611  10.680   2.963 -0.3168 -0.1789  0.0066
 6437W        W22331   1.128   5.495   3.208 -0.3212  0.0293 -0.1846
 6438W        W22332  11.563   2.107   2.611  0.0123 -0.0046  0.3246
 6439W        W22333   6.376  18.687  12.621 -0.1414  0.1093  0.1505
 6440W        W22334   1.197   6.795  10.752 -0.3337 -0.4326  0.0962
 6441W        W22335  13.936   4.519  11.527  0.1241  0.0036 -0.1248
 6442W        W22336   4.769   3.898   3.691  0.0426  0.5044  0.3300
 6443W        W22337   9.252  10.957  12.319 -0.0029  0.0803 -0.1958
 6444W        W22338   4.169  15.108   2.542 -0.1719  0.0223  0.0243
 6445W        W22339   2.275  13.334  11.017  0.1516 -0.1107  0.2063
 6446W        W22340   4.629  11.424   1.221  0.2173  0.1252  0.1253
 6447W        W22341   0.009   2.987  11.401 -0.1340 -0.6128  0.3020
 6448W        W22342   4.651   7.464  14.269 -0.2842  0.0213 -0.0679
 6449W        W22343  10.122   2.901  14.867 -0.2286 -0.0080  0.2770
 6450W        W22344   2.950   4.693  12.712  0.1352  0.1193 -0.3117
 6451W        W22345  14.813   7.381  14.846 -0.2817  0.1675  0.2037
 6452W        W22346  15.569  14.252   4.150  0.0129 -0.1732  0.1529
 6453W        W22347  14.253   3.887   4.702  0.1173  0.4428  0.1746
 6454W        W22348   5.017   3.384  12.601  0.0383  0.6905  0.0921
 6455W        W22349  17.068  15.003  11.318  0.1118  0.1018  0.0370
 6456W        W22350  13.871  10.333  11.031 -0.0180 -0.2583  0.0829
 6457W        W22351   0.952   5.819   4.013 -0.3508  0.0504  0.1098
 6458W        W22352  14.821   6.534  14.376  0.0528 -0.3050 -0.0187
 6459W        W22353  13.205   1.062  11.548 -0.0374 -0.0321 -0.1638
 6460W        W22354   0.426  15.867  14.946  0.4053  0.1326 -0.1858
 6461W        W22355   7.733   2.787  11.741  0.0310  0.1502 -0.1616
 6462W        W22356  17.129   4.365  14.288  0.2810  0.0592  0.0077
 6463W        W22357   0.457  11.633   5.530  0.1149  0.1315  0.0012
 6464W        W22358  12.175   4.753   4.609  0.1970  0.0217  0.4274
 6465W        W22359  14.462   0.210   0.683  0.1193 -0.1978 -0.3816
 6466W        W22360  10.275   5.671   1.839  0.1134  0.0562  0.3196
 6467W        W22361   4.902  16.243   2.324 -0.2314  0.0103 -0.2104
 6468W        W22362  13.850   9.536  14.386  0.0005  0.0845  0.2303
 6469W        W22363   9.586  17.132  14.117 -0.1228 -0.0290 -0.0643
 6470W        W22364   0.293   5.378  13.582 -0.1225  0.0126  0.2237
 6471W        W22365   0.477  16.362  11.895 -0.0811 -0.0135  0.2249
 6472W        W22366   3.341   7.338  10.106  0.2611 -0.0817 -0.1166
 6473W        W22367  18.527  18.794   5.700  0.1073 -0.1257  0.1952
 6474W        W22368   7.691   9.763  10.507 -0.0709 -0.1288 -0.0345
 6475W        W22369   1.362  18.018  14.823 -0.1155 -0.1452  0.0049
 6476W        W22370   6.858  12.478  10.915 -0.0496  0.3164  0.1413
 6477W        W22371   1.112   5.255   1.246 -0.4978  0.2084 -0.0347
 6478W        W22372  17.064  14.692  14.546 -0.1560 -0.0232 -0.1023
 6479W        W22373   1.392  12.295   4.451 -0.0418  0.0080 -0.2371
 6480W        W22374  12.213  17.617  11.610 -0.2297 -0.2049 -0.1269
 6481W        W22375   3.954  14.652   5.170 -0.2573  0.1674 -0.1039
 6482W        W22376   7.386   0.572   1.437  0.2938 -0.0626 -0.2237
 6483W        W22377  17.354   5.610  11.314 -0.1122 -0.0321 -0.3846
 6484W        W22378  11.381   2.265   4.641 -0.2111  0.0014  0.1021
 6485W        W22379  12.496   5.110   4.692 -0.0821  0.0067  0.0595
 6486W        W22380   8.126   9.414  10.656  0.0475  0.2971 -0.1803
 6487W        W22381   8.208  11.732   3.518 -0.3184  0.2568 -0.1781
 6488W        W22382   3.054  11.533  10.334  0.1479  0.1079 -0.3980
 6489W        W22383   0.614  11.881  10.952 -0.1418  0.0674  0.1166
 6490W        W22384  14.540  13.929   2.152 -0.2825 -0.0472 -0.1440
 6491W        W22385   5.559  18.846   0.601 -0.0199  0.1338  0.1735
 6492W        W22386  16.506   7.853  10.986 -0.0804 -0.0318  0.2036
 6493W        W22387   8.482  17.435   3.127 -0.1069 -0.2497  0.1451
 6494W        W22388   2.617   0.715  10.962 -0.1722 -0.0073 -0.2248
 6495W        W22389  16.735   8.414  14.554  0.0571  0.1509  0.0072
 6496W        W22390  10.020   5.840   0.914 -0.1751 -0.2615  0.1976
 6497W        W22391  17.436   6.832   0.473 -0.3454 -0.1182 -0.1088
 6498W        W22392  15.389  10.128   2.975 -0.2469  0.2091  0.0066
 6499W        W22393   8.635  11.531  12.853  0.1617 -0.1288  0.1001
 6500W        W22394  11.805  18.604   0.315 -0.0780 -0.2407  0.1787
 6501W        W22395  15.657   2.717   4.242 -0.1628  0.0004  0.1467
 6502W        W22396   7.483  14.426  14.840 -0.1009  0.0405  0.0485
 6503W        W22397   5.227  11.890   3.999 -0.0184  0.1845 -0.0231
 6504W        W22398  12.682  18.815  13.445  0.2222  0.2245 -0.0854
 6505W        W22399  12.385   3.556  14.664  0.0022  0.0569 -0.0199
 6506W        W22400   6.453   3.731  11.624  0.3085 -0.0245  0.0323
 6507W        W22401   7.806  11.054   1.566  0.0688  0.0533 -0.2682
 6508W        W22402  14.991   1.946   5.131  0.0691 -0.0177  0.1012
 6509W        W22403  16.570  16.324  14.806 -0.1861 -0.0573 -0.2451
 6510W        W22404  14.296  11.476   1.625  0.1473 -0.3836  0.1349
 6511W        W22405  10.460   1.815   3.544  0.3853 -0.1507 -0.1593
 6512W        W22406   6.414   3.818  10.242 -0.1457 -0.0899  0.1712
 6513W        W22407   2.562  12.738   3.184 -0.2314 -0.2384 -0.2007
 6514W        W22408   3.229   2.702   0.434 -0.0846 -0.0449  0.0242
 6515W        W22409   0.542  12.609   2.988 -0.0617  0.0263  0.0122
 6516W        W22410   8.379  14.892  10.309  0.1772 -0.1517  0.0765
 6517W        W22411  15.875  10.594   4.277 -0.0753  0.0282  0.4055
 6518W        W22412  14.525  17.166   2.890 -0.1018 -0.0967  0.4918
 6519W        W22413   7.958   2.911   0.382  0.0642  0.0906  0.2436
 6520W        W22414  11.335   0.461  10.986  0.2229 -0.4161  0.2661
 6521W        W22415   3.149   5.421  14.095  0.1389  0.0596 -0.0177
 6522W        W22416   1.704  15.046   1.100  0.0303  0.2135  0.0214
 6523W        W22417   6.520   1.168  13.359 -0.1714 -0.0676  0.0449
 6524W        W22418   9.073  13.734   0.205 -0.3140 -0.3867 -0.1777
 6525W        W22419   2.628   2.752   4.396  0.2013  0.1025  0.1024
 6526W        W22420   3.635   4.354  10.690  0.5273 -0.1178  0.1179
 6527W        W22421   4.666   2.496  14.568 -0.0426  0.0495  0.0108
 6528W        W22422  12.241   9.731  11.931 -0.1813 -0.0250 -0.2264
 6529W        W22423   9.220  12.680  14.339  0.0583  0.1177  0.1158
 6530W        W22424  13.337   8.918   1.005  0.2720 -0.0212 -0.0886
 6531W        W22425  15.847   4.840  12.232  0.0404 -0.0419 -0.3323
 6532W        W22426   2.281   8.215   3.946  0.0549  0.1185  0.0048
 6533W        W22427  11.694   9.701   1.612 -0.2262 -0.2652 -0.1577
 6534W        W22428  11.070   4.604  14.900 -0.1498  0.1300  0.1588
 6535W        W22429   0.264  13.817   1.078 -0.0865 -0.1739  0.1968
 6536W        W22430   0.037   0.371   4.346 -0.2773  0.0975 -0.4596
 6537W        W22431   0.685   6.734   2.973  0.0523 -0.2270  0.0983
 6538W        W22432  15.709  17.819   3.825  0.0091  0.1711  0.1197
 6539W        W22433   9.924   3.999   3.079  0.1188  0.3446 -0.0458
 6540W        W22434  17.421  15.001  12.501  0.1668  0.0738  0.1527
 6541W        W22435  14.063   2.488  12.226  0.0538  0.1448  0.0732
 6542W        W22436   1.031  13.082   2.310 -0.2791  0.1153 -0.2399
 6543W        W22437  15.110   1.694  14.509  0.1181 -0.3960  0.0608
 6544W        W22438  10.661  15.151   5.065 -0.0658 -0.0624 -0.2311
 6545W        W22439   1.537  13.516   1.316 -0.1344  0.1474  0.1824
 6546W        W22440  10.043   0.372   0.618  0.2323 -0.2525  0.1704
 6547W        W22441  14.659   4.047   6.280  0.2133 -0.2500  0.0387
 6548W        W22442  17.978   9.656  10.598 -0.3687  0.3068  0.1003
 6549W        W22443   8.806  14.551   2.363  0.2420 -0.2434  0.1892
 6550W        W22444   4.888  12.540   3.676 -0.0336  0.0543 -0.3441
 6551W        W22445   4.031   2.502  10.510 -0.2895 -0.0528 -0.1385
 6552W        W22446  10.081  19.160  12.838 -0.0174  0.2400  0.0289
 6553W        W22447   9.344  17.538  12.573 -0.1314  0.0835  0.2223
 6554W        W22448   4.021   1.668  11.775 -0.0516 -0.1082 -0.0180
 6555W        W22449   1.030  13.637  10.736 -0.0625 -0.2064 -0.0355
 6556W        W22450  10.000  13.360   2.696 -0.0223 -0.1937  0.2141
 6557W        W22451   4.763  11.851   3.878 -0.0795 -0.2452  0.2325
 6558W        W22452   6.429   4.087   2.771 -0.0083  0.2629  0.0927
 6559W        W22453  19.014  15.408  14.477  0.2472 -0.3178 -0.1333
 6560W        W22454   6.138  13.126   2.552  0.1759  0.1626  0.0286
 6561W        W22455  15.620  12.730   4.830 -0.0395  0.2162  0.0336
 6562W        W22456  15.803   4.340   5.789  0.1101  0.0636  0.1793
 6563W        W22457   7.232  14.265  11.266  0.3627  0.0963 -0.1456
 6564W        W22458   8.544  17.251   0.584 -0.0083 -0.0499  0.3403
 6565W        W22459  14.615  14.131   9.556 -0.0201 -0.3076  0.3361
 6566W        W22460   6.771  18.424   2.993  0.4271 -0.0716  0.1936
 6567W        W22461  17.236  11.719   0.160  0.0587 -0.1632  0.0733
 6568W        W22462  12.068  15.302  14.442  0.2925 -0.1993 -0.3509
 6569W        W22463  10.822   2.731   3.369  0.1712  0.0205 -0.3336
 6570W        W22464  14.545   4.806  12.556  0.0528  0.1875 -0.0018
 6571W        W22465  13.837   8.318  10.756  0.0733  0.0556 -0.2597
 6572W        W22466   5.564  17.933  13.547  0.1554 -0.1926 -0.1492
 6573W        W22467  11.591  12.505  13.475 -0.0598 -0.4101  0.0444
 6574W        W22468  13.519  11.104   2.875  0.0541 -0.2104 -0.1236
 6575W        W22469  14.661   8.574   4.064 -0.3959  0.0497  0.0310
 6576W        W22470  14.131  16.232  10.913  0.0784  0.2883  0.4158
 6577W        W22471  18.665   9.281   4.275  0.1028 -0.1583 -0.2219
 6578W        W22472   9.895   3.593  13.447  0.2295 -0.5173  0.0568
 6579W        W22473   7.030   0.609  13.361 -0.0578  0.0645 -0.1155
 6580W        W22474  15.344   3.938   6.439  0.1180  0.0238 -0.0737
 6581W        W22475   0.882   2.877  11.029  0.1453  0.1448  0.1836
 6582W        W22476  18.187  13.762   1.061 -0.0337  0.0524 -0.0745
 6583W        W22477   5.919  10.452  12.938  0.0933 -0.1425 -0.2859
 6584W        W22478   3.455  12.040  11.894 -0.2475  0.0382 -0.0298
 6585W        W22479   0.533  10.226  13.341 -0.0631  0.1634 -0.0398
 6586W        W22480   6.432   3.668   1.361  0.3675  0.2670 -0.0890
 6587W        W22481   5.280  18.025   3.197  0.0490 -0.2774 -0.1499
 6588W        W22482   5.168   5.371  13.888 -0.1505 -0.1704 -0.0702
 6589W        W22483   5.556  15.326  11.149 -0.0416 -0.0978 -0.1491
 6590W        W22484   7.948  18.979  12.082 -0.2222 -0.1763 -0.0362
 6591W        W22485   4.593  14.714  11.473 -0.0163 -0.3725 -0.2739
 6592W        W22486  18.285  14.262   1.302 -0.0930 -0.1162 -0.3686
 6593W        W22487  13.353  11.526   1.758 -0.2181 -0.2883 -0.1024
 6594W        W22488  13.653   9.642   5.138  0.2024  0.1411  0.0166
 6595W        W22489   4.591   9.152  11.853 -0.1276 -0.1440 -0.0093
 6596W        W22490   0.798   9.748   2.260 -0.1246  0.4654  0.1132
 6597W        W22491   9.918  16.209  15.098  0.1439  0.1137  0.0248
 6598W        W22492   7.889  15.476   5.083  0.0430  0.2013  0.3815
 6599W        W22493   6.912   2.843  10.460  0.3173 -0.1289  0.2086
 6600W        W22494  16.344  10.321  13.024 -0.1204 -0.2877 -0.0494
 6601W        W22495  14.660  18.653   4.870 -0.3689  0.2602 -0.2114
 6602W        W22496   5.531   1.652   2.657  0.2344 -0.1113  0.0031
 6603W        W22497   0.841  13.124   3.764 -0.1552  0.1137 -0.1768
 6604W        W22498   8.492  17.737  12.329 -0.0192  0.0208 -0.2166
 6605W        W22499  12.337  16.113  15.102 -0.0251 -0.0093 -0.0832
 6606W        W22500  11.501  11.403   1.585 -0.1136  0.0055  0.1175
 6607W        W22501  12.979  12.462   2.966  0.0994 -0.3247 -0.0479
 6608W        W22502   5.263   0.443  14.590  0.2412  0.1459  0.4590
 6609W        W22503  17.629   6.426   2.352  0.1389 -0.0836 -0.4784
 6610W        W22504  13.808  11.330   3.216 -0.0023  0.1391 -0.3966
 6611W        W22505  16.096   7.796  13.310  0.1918 -0.0258 -0.0664
 6612W        W22506  14.015  13.357   0.888 -0.1103  0.3124  0.0324
 6613W        W22507   4.544  11.223  13.420 -0.2430  0.0154 -0.0150
 6614W        W22508  10.539  19.005  14.249 -0.0256  0.0302 -0.0343
 6615W        W22509   2.868  10.019   2.611 -0.0335  0.0776 -0.0683
 6616W        W22510  11.049   7.012  13.493  0.4867  0.0162  0.0663
 6617W        W22511   0.605   9.754  10.672 -0.0362  0.1532 -0.1387
 6618W        W22512   1.356   3.617   0.303 -0.1293  0.0067 -0.2577
 6619W        W22513   5.873   1.897   0.093  0.1918 -0.2727  0.1614
 6620W        W22514  17.518  13.662   4.026  0.1030  0.1321 -0.3423
 6621W        W22515   2.684   2.196  14.212 -0.0891  0.0079 -0.2455
 6622W        W22516   7.631   6.931  11.793  0.1317  0.2943  0.1470
 6623W        W22517  16.589   9.397  13.646  0.0477  0.0485 -0.0304
 6624W        W22518   5.375   6.340  14.167 -0.0952  0.0125 -0.1486
 6625W        W22519  18.560  14.744  11.265  0.1790  0.1078  0.1162
 6626W        W22520   1.028  12.622   3.963 -0.0771  0.0026  0.2630
 6627W        W22521   4.120   0.310  10.724  0.0105  0.0614  0.2163
 6628W        W22522   3.461  15.230  14.186  0.1968 -0.2334  0.0009
 6629W        W22523  13.449   1.648   3.884 -0.1085 -0.1899  0.1826
 6630W        W22524  18.327   4.755  10.675 -0.0051  0.0395 -0.0517
 6631W        W22525   8.123  10.499  11.703  0.1894  0.1896 -0.5268
 6632W        W22526  15.464   1.300   1.304  0.0011  0.1676  0.0560
 6633W        W22527  18.465  10.560   1.799 -0.0324  0.3787  0.1121
 6634W        W22528  10.086  16.683  13.976  0.1706  0.0787 -0.0031
 6635W        W22529   9.817   6.522  12.616  0.1163  0.1109 -0.0168
 6636W        W22530   0.190   4.242   3.817 -0.0762 -0.2675  0.0632
 6637W        W22531  13.739  12.341  14.467 -0.0461  0.0849  0.4028
 6638W        W22532  10.284   8.813   0.158  0.3006 -0.1369  0.3307
 6639W        W22533  18.758   2.059   1.866  0.1153  0.0322  0.2052
 6640W        W22534   4.911   8.224  12.290 -0.0366 -0.3191 -0.0039
 6641W        W22535  18.172  10.443  11.950  0.4325  0.2472 -0.0283
 6642W        W22536   9.893  17.116   3.127  0.1185  0.3653  0.3062
 6643W        W22537  19.168   6.444  14.640  0.0966  0.2489 -0.0804
 6644W        W22538  17.878   3.012   1.113  0.1829  0.2310 -0.0486
 6645W        W22539   4.819   9.858  10.700 -0.0458  0.0784 -0.2707
 6646W        W22540  14.728  15.390  10.236 -0.0513 -0.0797  0.2274
 6647W        W22541   3.037   8.464   5.471  0.1477 -0.2955  0.0785
 6648W        W22542   4.534   6.609  12.756  0.2853 -0.1937 -0.1092
 6649W        W22543  10.507  12.067  11.446  0.0199  0.3114 -0.1858
 6650W        W22544   4.016  19.100  13.234  0.2359  0.4137 -0.2306
 6651W        W22545  10.083  15.812  11.234 -0.0993 -0.1387  0.1810
 6652W        W22546   2.381   0.478   2.836  0.1297  0.1549 -0.1453
 6653W        W22547   6.727   6.239   4.345  0.0484  0.1566 -0.2154
 6654W        W22548  18.875  14.057  11.600 -0.1420  0.2869 -0.1196
 6655W        W22549  18.946  10.896  14.800  0.1564 -0.0351  0.3874
 6656W        W22550  17.830   0.956   0.858 -0.0523 -0.1659  0.0400
 6657W        W22551  17.830  12.647   0.750  0.0390 -0.0967  0.1483
 6658W        W22552  18.961  12.038  14.269 -0.0482  0.1699 -0.0648
 6659W        W22553   2.227   6.425  13.419  0.1512  0.1647  0.1256
 6660W        W22554  13.058  13.352  11.163 -0.0115  0.1538  0.0297
 6661W        W22555  13.901  11.053   0.823  0.2388  0.1386 -0.0706
 6662W        W22556   2.570   0.674  13.899  0.0290 -0.2416 -0.1126
 6663W        W22557  14.401   7.481  14.014 -0.2490  0.1880  0.0250
 6664W        W22558   3.462  16.059   2.672 -0.1237 -0.1436  0.1752
 6665W        W22559   6.941   7.842  12.110 -0.0658  0.1807  0.1176
 6666W        W22560   2.018  14.983   1.603 -0.0985  0.3579 -0.0714
 6667W        W22561   0.525  13.429  12.879 -0.2174 -0.2956 -0.0966
 6668W        W22562   2.831  12.984  11.684  0.1266  0.0889 -0.1849
 6669W        W22563   6.607   3.923  14.128 -0.1603 -0.1382  0.2131
 6670W        W22564  11.341  12.182   1.521  0.1546 -0.1643 -0.1041
 6671W        W22565   5.921   3.783  11.822  0.2804 -0.0684 -0.0136
 6672W        W22566   0.053   0.822   3.690  0.1610  0.1125  0.0971
 6673W        W22567  10.590  11.783  14.312  0.0813 -0.4544  0.3085
 6674W        W22568   3.723   3.844  10.782 -0.0036  0.2935  0.4334
 6675W        W22569  17.966   4.038   0.721  0.0154  0.2940  0.0537
 6676W        W22570  15.848  11.953   0.322 -0.1710 -0.0548  0.1147
 6677W        W22571   4.521   2.238  13.781 -0.5597  0.0367 -0.1770
 6678W        W22572  17.154   7.388   4.142  0.1422  0.2088  0.3518
 6679W        W22573  17.127   0.681   5.450 -0.0695  0.3188  0.1165
 6680W        W22574   1.729   5.232  12.632  0.1666  0.1197 -0.1111
 6681W        W22575   9.167   5.060  13.659 -0.4661 -0.1413 -0.0984
 6682W        W22576   4.749   7.392   0.526  0.2109 -0.1283  0.0688
 6683W        W22577  16.426  16.000   4.431  0.2493 -0.1662  0.2602
 6684W        W22578   5.369   0.182   2.619  0.1179  0.1840 -0.0448
 6685W        W22579  15.761   9.150  14.793 -0.0089  0.3576 -0.0101
 6686W        W22580  11.854  15.601  12.290 -0.1453 -0.2764  0.0243
 6687W        W22581  17.165   5.537   5.576  0.1395 -0.1993  0.1417
 6688W        W22582   4.197   5.099   1.154 -0.4301  0.3049 -0.3632
 6689W        W22583   7.927  14.852  14.162  0.2140 -0.2047  0.1330
 6690W        W22584  18.961   2.653  11.952 -0.2488 -0.1255  0.1469
 6691W        W22585  15.297  14.079   2.479  0.0246  0.2209 -0.2040
 6692W        W22586  10.718  17.700   1.547 -0.1064 -0.1279  0.0913
 6693W        W22587  10.800  10.325   5.065  0.1745 -0.1197 -0.1210
 6694W        W22588   7.975   3.191  10.381 -0.0061 -0.0829  0.3714
 6695W        W22589   4.766   8.795  13.350 -0.4582 -0.2075 -0.2205
 6696W        W22590  10.341   9.415  10.470 -0.0127 -0.0637  0.2632
 6697W        W22591  10.817   2.793   2.809 -0.2359 -0.3981  0.2969
 6698W        W22592   9.676   5.486  15.010  0.0991  0.0224 -0.0526
 6699W        W22593   1.716  12.407   0.154  0.1504  0.0935  0.1214
 6700W        W22594  17.019  19.058  11.709  0.2742 -0.0497  0.2961
 6701W        W22595  18.330  18.750   0.553 -0.1429 -0.1806  0.0416
 6702W        W22596  15.712   9.880  13.106 -0.2120 -0.2403 -0.0484
 6703W        W22597   8.764   7.844   0.735  0.2821  0.0996  0.0202
 6704W        W22598  11.491   5.341   0.785 -0.0146  0.2081  0.1630
 6705W        W22599   2.210  14.890  14.761 -0.0088 -0.2493 -0.1864
 6706W        W22600   2.937  16.867  14.381  0.0230 -0.2052 -0.6297
 6707W        W22601   5.043  12.208   3.332  0.3670 -0.2438  0.0196
 6708W        W22602   8.234  16.558   4.383  0.1026  0.0193  0.1058
 6709W        W22603   6.964  15.747  12.464 -0.0529 -0.0322  0.0937
 6710W        W22604  11.497  14.755  11.591 -0.2066 -0.2650 -0.1329
 6711W        W22605   5.734  19.089  11.454 -0.0355  0.1825  0.1840
 6712W        W22606  12.724   3.307   4.469  0.1368  0.3624  0.1408
 6713W        W22607  10.529  14.415  12.634  0.1001  0.0091 -0.1418
 6714W        W22608   2.585  18.381  12.840 -0.0004  0.3235  0.0841
 6715W        W22609  17.651   8.358   5.491 -0.0638 -0.0275  0.1223
 6716W        W22610  17.444   1.053   4.809  0.0067  0.0979  0.2515
 6717W        W22611  10.711  13.943   0.990 -0.1940  0.0604  0.0762
 6718W        W22612  17.895  12.544   3.693 -0.6273 -0.1399  0.2012
 6719W        W22613  13.406  10.077   2.167 -0.1684 -0.0959  0.0064
 6720W        W22614  12.865   5.642   0.278 -0.0721  0.0523  0.0399
 6721W        W22615  12.772   3.438   2.861 -0.2482  0.2056 -0.0131
 6722W        W22616   1.412   3.262  11.919  0.1591 -0.1460  0.1971
 6723W        W22617  16.036   2.445  12.953 -0.0250  0.0135  0.2740
 6724W        W22618   0.086   1.413  13.784  0.1196  0.1053  0.2052
 6725W        W22619  16.135   7.327  13.523 -0.3035  0.1179 -0.0358
 6726W        W22620   3.003  10.911  11.905 -0.3035 -0.0656 -0.0092
 6727W        W22621  18.278   2.741   9.664 -0.1220 -0.2680 -0.2428
 6728W        W22622   2.638  10.552  12.091 -0.2631 -0.2505 -0.2687
 6729W        W22623  10.096  15.505  10.774 -0.3252 -0.2720  0.2020
 6730W        W22624  16.015  14.896   2.566 -0.0145  0.0817 -0.1392
 6731W        W22625   9.823   0.803  10.660  0.1182 -0.2194 -0.1133
 6732W        W22626   2.083   0.488  12.106  0.0733  0.2255 -0.1458
 6733W        W22627  17.104   3.011  15.126  0.0981  0.2932 -0.1155
 6734W        W22628  16.745   8.477   3.583 -0.0827 -0.1081  0.1967
 6735W        W22629   0.126   4.050  14.391 -0.1148  0.0607  0.2120
 6736W        W22630  15.536  12.130   2.835 -0.0391 -0.0552 -0.0858
 6737W        W22631  15.033  13.513   2.244 -0.1931 -0.1939  0.1581
 6738W        W22632   4.074  14.349   4.383  0.1819 -0.0513  0.3197
 6739W        W22633   6.112   7.068  10.710  0.0754  0.0419 -0.1731
 6740W        W22634   0.481  10.515  11.786  0.2030 -0.1512 -0.0739
 6741W        W22635  13.192  12.588   4.480 -0.1459 -0.1974  0.2113
 6742W        W22636  10.629  10.991  10.667  0.0035 -0.0836  0.0411
 6743W        W22637  10.985   8.683  11.716  0.1452 -0.1090  0.0014
 6744W        W22638  16.441   2.375   4.396 -0.2663 -0.0348 -0.0102
 6745W        W22639   0.242   2.273  11.109 -0.1483 -0.3762  0.0553
 6746W        W22640   9.713  16.922   4.813 -0.0667  0.4403 -0.3119
 6747W        W22641  15.374  11.867   4.357 -0.0099  0.0884 -0.3269
 6748W        W22642   4.319  12.141   4.752 -0.1167  0.0374  0.1188
 6749W        W22643  17.954   5.171   2.926 -0.0704  0.1843  0.2890
 6750W        W22644   8.447   9.234   9.716 -0.2668  0.0243 -0.2282
 6751W        W22645   8.206   3.228  13.113 -0.1404  0.1290 -0.0227
 6752W        W22646  18.578  12.534  14.466  0.2996 -0.2488 -0.1722
 6753W        W22647   1.813   5.432   2.247  0.1609 -0.2060  0.0364
 6754W        W22648  14.320  19.125  12.671 -0.1025 -0.2920  0.2574
 6755W        W22649   6.059  14.526   2.408 -0.3324  0.0629 -0.1039
 6756W        W22650   5.051  11.200  10.885 -0.1553  0.2685 -0.0712
 6757W        W22651  14.764   7.545  11.826 -0.0632  0.0742  0.0673
 6758W        W22652   3.839  12.586   2.161 -0.0041 -0.3199 -0.2009
 6759W        W22653  18.964  17.195   3.398 -0.4133  0.1818 -0.0341
 6760W        W22654  13.552  13.659   3.779 -0.0602  0.2330 -0.1807
 6761W        W22655  14.090  17.060  12.822 -0.1436  0.5133  0.0666
 6762W        W22656   3.897  14.890   4.658  0.3331  0.2126  0.1761
 6763W        W22657   7.269   0.920   1.155  0.2415  0.4072  0.2477
 6764W        W22658  11.253  10.574   2.094 -0.0480 -0.3208 -0.1417
 6765W        W22659   2.592   5.936  11.183  0.1097 -0.4285  0.1800
 6766W        W22660   2.854   9.867   0.053  0.0901 -0.1808  0.0736
 6767W        W22661   7.340   6.215   0.515 -0.3035 -0.1170 -0.0800
 6768W        W22662   4.816   0.071  11.874 -0.0486  0.2416  0.1312
 6769W        W22663   8.552  19.066   2.942  0.1609 -0.0937  0.2604
 6770W        W22664  12.002  11.475   0.590 -0.1621  0.3722 -0.0634
 6771W        W22665  14.909  16.122   0.491 -0.0741  0.2744 -0.1744
 6772W        W22666  17.198   2.649  12.503 -0.1451 -0.3309 -0.1230
 6773W        W22667   4.066   5.598   1.839  0.1456 -0.0346 -0.1165
 6774W        W22668  11.809  17.901   1.429  0.4025  0.1210  0.0538
 6775W        W22669  13.267   3.884  13.866 -0.2485  0.0747 -0.0067
 6776W        W22670  16.356  13.730   1.415 -0.0973 -0.0808  0.0593
 6777W        W22671  10.839  11.486   1.053  0.0708 -0.2222 -0.2805
 6778W        W22672  12.264  11.349  12.831  0.1291  0.0058 -0.0312
 6779W        W22673   3.006  16.854   3.781  0.0060 -0.0163 -0.0341
 6780W        W22674  18.514   8.045   0.369 -0.1737 -0.0256 -0.1250
 6781W        W22675  10.274   9.010   5.418  0.2495 -0.2124 -0.0973
 6782W        W22676   3.758   1.688   3.765 -0.1592  0.0715  0.1796
 6783W        W22677   7.715   6.081  14.128 -0.1379  0.0251  0.1903
 6784W        W22678   2.619  16.252  14.537 -0.2643 -0.0702 -0.2237
 6785W        W22679  18.630  16.730   2.122  0.1893  0.0580  0.0499
 6786W        W22680   2.702   9.226   0.885 -0.2400 -0.3222 -0.2683
 6787W        W22681   6.748  13.171   1.709 -0.1401 -0.0596  0.0013
 6788W        W22682   4.725  15.413  14.978  0.1829 -0.0469 -0.4806
 6789W        W22683   6.645   9.423   1.845  0.0114  0.1548 -0.1811
 6790W        W22684   4.556  15.696   1.411  0.0026 -0.0051  0.0849
 6791W        W22685  17.235   6.430  12.800  0.1583  0.1626 -0.3073
 6792W        W22686  13.177   9.058  14.436  0.0815 -0.3585 -0.1154
 6793W        W22687  12.216  17.119   0.306 -0.0249  0.1343 -0.0391
 6794W        W22688  16.897   0.127  14.117 -0.0004  0.0543 -0.1491
 6795W        W22689   3.246   4.649  10.071 -0.1306  0.1371  0.2296
 6796W        W22690   1.116  14.296   1.298 -0.3128 -0.0033 -0.3880
 6797W        W22691  18.144   3.980   2.462  0.0087 -0.1947 -0.2069
 6798W        W22692  14.719  13.046   4.141 -0.0091 -0.2454  0.0264
 6799W        W22693   0.173   5.833   0.360  0.2943  0.2718  0.1471
 6800W        W22694   0.704   3.734   0.874  0.0705 -0.2088 -0.1159
 6801W        W22695  17.228  14.264   1.099  0.0050 -0.1075  0.2084
 6802W        W22696  11.701  10.142  14.152 -0.2103 -0.4525 -0.0033
 6803W        W22697   5.935  12.833  11.621  0.2105 -0.1970  0.0414
 6804W        W22698  11.960  14.759  13.026 -0.3245 -0.2730  0.1657
 6805W        W22699   2.108   0.767   3.364 -0.3038 -0.2398 -0.5429
 6806W        W22700  13.601   4.366   0.242 -0.5006 -0.0347  0.1854
 6807W        W22701  15.293   3.706   0.012  0.2122  0.2092 -0.0355
 6808W        W22702  11.920   9.837   3.796  0.3269  0.3118  0.6119
 6809W        W22703  10.452  12.510   2.774  0.2814 -0.0369 -0.0691
 6810W        W22704  14.655  17.574  12.623 -0.0668 -0.2784 -0.0144
 6811W        W22705   9.061   7.367  12.451  0.0924  0.0711  0.0574
 6812W        W22706   7.293   4.579   3.046  0.0224 -0.3285 -0.5097
 6813W        W22707   7.713  12.262  12.774 -0.1570 -0.0319  0.1541
 6814W        W22708  10.961  12.048  11.233  0.0002  0.1837 -0.0286
 6815W        W22709   8.073   7.851   9.153  0.2229 -0.0932 -0.0145
 6816W        W22710  17.716   6.365   6.150  0.3155  0.1521  0.0484
 6817W        W22711   8.079  18.792  12.523 -0.1161  0.0670  0.2313
 6818W        W22712  16.471   8.404   2.420 -0.1642  0.0724 -0.2517
 6819W        W22713   4.982  18.340  12.597 -0.0274  0.1001 -0.0934
 6820W        W22714   1.818   5.416   0.458  0.4178 -0.0107 -0.2335
 6821W        W22715  12.092   5.272   5.077 -0.0037 -0.0685  0.0745
 6822W        W22716   1.277  18.576  11.903 -0.2082 -0.0014 -0.0930
 6823W        W22717   9.714   7.278   3.336  0.0531  0.2971  0.1720
 6824W        W22718  14.915  18.010   4.787 -0.2485  0.2096  0.2250
 6825W        W22719   8.127  12.023   5.502  0.0078 -0.2219 -0.0313
 6826W        W22720  16.339   9.335   2.765  0.0989 -0.0594  0.2751
 6827W        W22721  11.320  11.363  12.526  0.1133 -0.2840 -0.2816
 6828W        W22722  17.776   7.740  12.186 -0.0998 -0.1463 -0.2449
 6829W        W22723  17.482  16.418   1.412 -0.1329  0.1959 -0.1151
 6830W        W22724   4.187   7.283  12.253  0.1669 -0.0898  0.1189
 6831W        W22725  10.697  13.217   0.886 -0.2298 -0.0156 -0.2020
 6832W        W22726  18.579   9.118  10.091  0.0461  0.0156 -0.0023
 6833W        W22727   4.253   8.771  11.451  0.0914 -0.0140  0.0552
 6834W        W22728   5.165   9.837   4.627 -0.2905  0.0792 -0.1882
 6835W        W22729   3.125   7.864   0.736  0.1515  0.5230 -0.1197
 6836W        W22730  13.520   4.713   4.215 -0.0021 -0.1021 -0.0534
 6837W        W22731  17.600   1.583  11.920 -0.0153  0.3689 -0.0832
 6838W        W22732   0.683   0.373  11.756 -0.0502 -0.2480 -0.0973
 6839W        W22733   2.992   7.916   9.286 -0.1264  0.1419  0.2438
 6840W        W22734  12.164  10.935  10.497 -0.2185 -0.1796 -0.2394
 6841W        W22735   4.759  13.094  14.280 -0.0341 -0.2904 -0.0877
 6842W        W22736  14.194   7.317  12.759 -0.0392 -0.1138 -0.1038
 6843W        W22737  14.076  17.976   3.263 -0.0343 -0.0323  0.0923
 6844W        W22738  16.236   6.072  14.033  0.1865  0.0231  0.3232
 6845W        W22739  12.255  18.076  11.865  0.2149 -0.0893 -0.0348
 6846W        W22740  14.926  14.820   0.257  0.0433 -0.0479  0.2032
 6847W        W22741  17.974  11.633   3.887 -0.1369 -0.1896 -0.3853
 6848W        W22742  14.811   3.142   1.702  0.1598  0.0065 -0.0130
 6849W        W22743   8.993  16.420  13.425  0.0460  0.0426  0.0313
 6850W        W22744   4.220  18.703   1.172  0.3096  0.1902 -0.0841
 6851W        W22745  17.463   0.631   2.830  0.2128  0.1030 -0.0299
 6852W        W22746   9.430  17.924  11.417  0.0701  0.3378  0.3962
 6853W        W22747   9.031  10.702  13.169 -0.2137 -0.0365  0.0703
 6854W        W22748  12.924   4.103  12.923  0.3849  0.2727 -0.1214
 6855W        W22749   3.576  15.525  11.151  0.1610  0.2848  0.0875
 6856W        W22750   0.450   6.189   5.368  0.3731 -0.1479 -0.0331
 6857W        W22751   9.953  17.362   3.546 -0.0995 -0.2416 -0.0191
 6858W        W22752   8.676  11.298  13.924  0.2679 -0.0477 -0.0121
 6859W        W22753   0.989   4.255   0.066 -0.0516  0.2043 -0.2943
 6860W        W22754  15.761   2.301  12.069  0.0599  0.2671 -0.2634
 6861W        W22755   8.254   3.671   1.924 -0.1436  0.4558  0.0301
 6862W        W22756  14.756   1.673   4.327  0.1137  0.1339 -0.0535
 6863W        W22757  14.772  17.315  14.594 -0.3787  0.1521 -0.1513
 6864W        W22758   9.746   7.895  13.448  0.2234  0.0301  0.0125
 6865W        W22759  17.232   9.574   1.286  0.2444  0.1235  0.1796
 6866W        W22760  11.441   8.334  13.963 -0.1186  0.0185  0.0335
 6867W        W22761  16.258  17.819  12.548  0.1302 -0.0937 -0.0556
 6868W        W22762   8.484  12.811   0.357  0.1667  0.2093  0.2316
 6869W        W22763   8.801   6.133  14.560 -0.0732  0.0600 -0.1197
 6870W        W22764   6.969   4.293   0.272 -0.3298  0.0210 -0.2486
 6871W        W22765   8.466   1.448  15.161 -0.0694  0.0120  0.1769
 6872W        W22766   6.639  15.451  12.671 -0.0175  0.0737 -0.0168
 6873W        W22767  12.473  15.675   3.119 -0.3859  0.1944  0.2056
 6874W        W22768  12.920   5.031   4.956  0.2306  0.1421 -0.1514
 6875W        W22769   6.537   9.004   0.469  0.1566 -0.2791  0.1157
 6876W        W22770   9.473   8.679  11.033  0.0133 -0.0437  0.1071
 6877W        W22771   0.607  11.350  10.524  0.0234 -0.0281  0.3649
 6878W        W22772  14.491  11.126  13.933  0.5271  0.1995  0.0308
 6879W        W22773   4.103  17.229   0.169 -0.0610  0.0775  0.0581
 6880W        W22774  14.127   3.047   3.360 -0.0667  0.1889  0.2092
 6881W        W22775  10.585  16.185  11.007 -0.3216 -0.5551  0.3565
 6882W        W22776   5.851   6.952  14.744 -0.3578  0.0879  0.0052
 6883W        W22777  15.432  16.104  10.683  0.0881  0.5300  0.3002
 6884W        W22778  16.603   2.927  14.897 -0.1998 -0.0442 -0.1959
 6885W        W22779   6.001   9.027   9.327 -0.1242 -0.3394  0.2757
 6886W        W22780  10.387  18.442   3.642 -0.0812  0.0793 -0.2671
 6887W        W22781   2.758   3.421  13.914  0.1457 -0.0861 -0.0505
 6888W        W22782   4.438   5.652  13.695 -0.2390  0.2718  0.0287
 6889W        W22783   5.717   5.026  14.031 -0.0914  0.2085 -0.1043
 6890W        W22784   3.202  14.811  14.414  0.0581  0.3651  0.0955
 6891W        W22785  10.214  12.398   0.751 -0.2732  0.1107  0.1061
 6892W        W22786  11.143   3.663  13.768  0.1616  0.0477 -0.1936
 6893W        W22787   2.095  16.643  13.937  0.2670  0.0841  0.2581
 6894W        W22788  17.456   8.470  12.440  0.2512  0.0209  0.0136
 6895W        W22789  14.024   4.999   0.874  0.2187  0.3141 -0.0111
 6896W        W22790  11.919   2.811  13.114  0.2382 -0.0276  0.1641
 6897W        W22791  10.511  19.008   5.044 -0.0564 -0.1624 -0.2917
 6898W        W22792  16.290  15.855  12.351 -0.1148 -0.0603 -0.0251
 6899W        W22793   8.474   6.729   4.552  0.2338 -0.0759  0.1638
 6900W        W22794  14.804   3.191  13.980  0.0334 -0.1356  0.2777
 6901W        W22795  10.332   7.049  11.388 -0.3777 -0.0481  0.0654
 6902W        W22796   2.373  17.345   2.323 -0.1970  0.2498  0.3802
 6903W        W22797   9.928   4.252  14.645 -0.4440 -0.1677 -0.1222
 6904W        W22798   8.049   0.675  15.181  0.2511  0.4392 -0.0326
 6905W        W22799   6.551   2.976   1.985 -0.1402  0.0307  0.1729
 6906W        W22800  14.737  17.833   4.194 -0.1936 -0.2789 -0.3588
 6907W        W22801  14.997  11.753   2.032  0.4816  0.0904 -0.0296
 6908W        W22802  11.136   8.330   2.808 -0.1170 -0.0157 -0.1075
 6909W        W22803  16.776  18.784  12.278 -0.1113  0.1061  0.1326
 6910W        W22804  15.893  12.404  11.820 -0.2006  0.1865 -0.0018
 6911W        W22805  10.876   6.942   4.143 -0.4248  0.1946  0.1003
 6912W        W22806   4.313   4.837   4.251  0.1011 -0.0692 -0.2049
 6913W        W22807   1.025  17.095  12.898  0.1663 -0.0084  0.2408
 6914W        W22808   9.709  19.103   1.394  0.2693 -0.3740 -0.1372
 6915W        W22809  10.643  10.855  12.642 -0.0708  0.0536 -0.0478
 6916W        W22810  12.505  17.631  14.260 -0.2388 -0.2975 -0.4007
 6917W        W22811  14.146   6.570   4.429 -0.1719 -0.1237 -0.1364
 6918W        W22812   9.989   7.931   1.358  0.1011  0.1554 -0.1727
 6919W        W22813   7.118  10.029   1.828  0.0948  0.2621 -0.0153
 6920W        W22814   5.654   0.930   2.585 -0.2635  0.0315 -0.2637
 6921W        W22815  14.247   4.148   3.617 -0.0535 -0.0886  0.0808
 6922W        W22816  12.609   8.177  13.140  0.0578  0.1017  0.2193
 6923W        W22817  13.262   5.539   3.009  0.0022  0.2600  0.0777
 6924W        W22818  18.345  17.705   0.487  0.1824  0.3381 -0.0049
 6925W        W22819  12.066   5.814  12.099  0.0212  0.1355  0.0328
 6926W        W22820  15.905   9.886   4.817  0.1839 -0.3565 -0.4441
 6927W        W22821  17.628   2.196   1.587 -0.2490 -0.0753  0.0183
 6928W        W22822  11.430   7.894   2.230 -0.1899  0.6530 -0.1745
 6929W        W22823   8.385   1.376  13.208  0.0224  0.2127  0.2257
 6930W        W22824  13.678  11.552   4.651 -0.0928 -0.0354 -0.2579
 6931W        W22825  15.258  18.700   0.606  0.2903 -0.3453  0.0144
 6932W        W22826   1.568  14.607  13.360  0.0594  0.1229 -0.0488
 6933W        W22827  17.925  12.489   2.174  0.0337  0.0019  0.0364
 6934W        W22828  19.146   1.313   4.314  0.2676 -0.0303 -0.1214
 6935W        W22829   3.558  13.959  14.955 -0.0722  0.3221  0.0989
 6936W        W22830  17.279  17.263   4.774 -0.1265 -0.2524 -0.1905
 6937W        W22831  18.783   5.925  14.334 -0.0401 -0.1341  0.0028
 6938W        W22832   2.829  18.155  11.441 -0.2127 -0.1293 -0.1332
 6939W        W22833   9.082  17.904  14.631  0.4116  0.2505  0.1740
 6940W        W22834   7.807   1.030  12.268 -0.1640  0.2650  0.2630
 6941W        W22835   8.452   2.772  13.933 -0.1395  0.2801 -0.1433
 6942W        W22836  16.362  18.369   9.785  0.2203 -0.0700  0.0725
 6943W        W22837  19.089   8.095   3.962  0.1981  0.1610 -0.1327
 6944W        W22838   2.976   4.276   2.622  0.0858  0.5090 -0.0107
 6945W        W22839  18.453   7.104   0.722 -0.2674 -0.3720  0.1309
 6946W        W22840   9.077  10.677  11.372  0.2694 -0.2667 -0.0395
 6947W        W22841  14.871  12.769   2.485  0.0974 -0.1378  0.2238
 6948W        W22842  18.362  11.439  13.101 -0.1841  0.3920 -0.0094
 6949W        W22843  13.691   4.823   3.304 -0.1924 -0.1504 -0.1259
 6950W        W22844  10.955   3.819  10.931 -0.4380  0.2537  0.4424
 6951W        W22845   6.433  11.349   1.692 -0.0165  0.1931 -0.0001
 6952W        W22846  18.860   1.066   1.149  0.1638 -0.0539 -0.0608
 6953W        W22847  17.964  12.806  13.860  0.0039 -0.1079  0.1290
 6954W        W22848   0.580  14.711   0.143 -0.0294 -0.1060  0.5007
 6955W        W22849   1.238   7.486   1.219 -0.0297 -0.2046 -0.3949
 6956W        W22850   5.998  13.943   2.372  0.0323  0.1509  0.1792
 6957W        W22851  13.300  10.853   4.713  0.2448  0.3900  0.4135
 6958W        W22852  16.655  18.690   0.876 -0.0948 -0.1622  0.0186
 6959W        W22853   8.806  18.714  11.802 -0.1337  0.2302  0.2502
 6960W        W22854   0.465  13.592  10.866  0.2023 -0.0424 -0.0616
 6961W        W22855   0.100  17.733  10.519 -0.2257 -0.1849  0.2764
 6962W        W22856   9.594   0.903   1.651  0.1833 -0.2615 -0.0282
 6963W        W22857  10.133   6.980  13.513  0.0319 -0.0525 -0.4104
 6964W        W22858   7.778  19.086  14.135  0.0486  0.1314 -0.2858
 6965W        W22859  14.063   9.834   5.946 -0.2449 -0.1008  0.0297
 6966W        W22860  14.013  13.510  14.205 -0.0940 -0.3240  0.0202
 6967W        W22861  10.874   9.826  12.318  0.0471  0.0237 -0.0393
 6968W        W22862  11.382  10.285   0.551  0.0222 -0.1025 -0.3145
 6969W        W22863  10.817  14.610   0.902 -0.1385  0.0805  0.2566
 6970W        W22864   6.243  19.079   2.896 -0.0073 -0.0811 -0.1755
 6971W        W22865  14.492   4.020   1.329 -0.0127 -0.0718  0.1039
 6972W        W22866  17.551   0.835   2.419 -0.0386 -0.0988 -0.0435
 6973W        W22867  17.826   0.126  12.873  0.0156  0.1087 -0.1046
 6974W        W22868   0.432  15.357  12.012 -0.0591 -0.0141  0.1206
 6975W        W22869   5.832   8.115  14.137 -0.0079  0.0083  0.2364
 6976W        W22870   1.684   5.462  11.596 -0.2305 -0.3234  0.1300
 6977W        W22871   1.009   6.743   3.415 -0.0116 -0.0110 -0.0615
 6978W        W22872   9.429   6.917   2.901 -0.0592  0.0546 -0.1821
 6979W        W22873  17.901   3.852   1.270 -0.0512  0.0273  0.2879
 6980W        W22874  16.123  13.032   9.412  0.1003 -0.4474  0.0365
 6981W        W22875  11.037   8.777   2.613  0.0167 -0.0456  0.1586
 6982W        W22876   6.662  11.489   2.152 -0.1701 -0.0796 -0.4328
 6983W        W22877  15.132  12.231   0.081 -0.0615  0.0222  0.1190
 6984W        W22878   2.694  11.455  14.404 -0.0341 -0.0518 -0.2078
 6985W        W22879  14.928  15.299   3.689  0.0800 -0.4683  0.1983
 6986W        W22880   2.735   0.077  12.824  0.1344 -0.0668  0.2629
 6987W        W22881   6.081  17.324   4.259  0.0385  0.0270 -0.2240
 6988W        W22882   0.834  19.039  12.562  0.0786  0.4645  0.0430
 6989W        W22883   1.882   3.193   0.378 -0.0211  0.1521  0.0621
 6990W        W22884  17.411  15.849   0.815 -0.1534 -0.3059 -0.3374
 6991W        W22885   5.421   5.969  13.757 -0.1619  0.0003 -0.0931
 6992W        W22886   6.671  13.750  11.768 -0.0668  0.1985 -0.2028
 6993W        W22887  12.389   9.293  12.143 -0.1897  0.2047  0.1365
 6994W        W22888  16.523   3.226  11.550 -0.0862 -0.2136  0.0817
 6995W        W22889  16.213  14.996  14.708 -0.1178 -0.2800  0.0092
 6996W        W22890  11.141   8.186  11.458  0.1965  0.0454  0.0971
 6997W        W22891  13.091  12.979  12.050 -0.2050  0.2783 -0.2776
 6998W        W22892   6.457   4.863   4.625 -0.0507 -0.0920 -0.0893
 6999W        W22893  16.844  15.632   4.018  0.0836 -0.1964  0.1649
 7000W        W22894   0.393   6.302   3.054  0.0982 -0.1694  0.1670
 7001W        W22895   0.041   2.894  13.153  0.1013  0.1235  0.1082
 7002W        W22896   5.585   1.753  13.346 -0.1410  0.1627 -0.1436
 7003W        W22897  15.990   7.885  12.444  0.1734 -0.0970 -0.0061
 7004W        W22898  18.943   4.012   3.805  0.0187  0.0093  0.3038
 7005W        W22899   2.547   3.066  14.860 -0.0580  0.0463  0.0460
 7006W        W22900  18.039  16.568  13.546 -0.0878  0.1001 -0.2098
 7007W        W22901  12.848   7.836  12.355  0.1459 -0.0497  0.0289
 7008W        W22902  14.834   7.790   4.765  0.1559  0.1558 -0.3266
 7009W        W22903  16.782  15.108  14.131  0.0065 -0.0389  0.0163
 7010W        W22904  18.569  16.409   5.232 -0.0605 -0.2273 -0.0707
 7011W        W22905  15.581   6.636   1.613 -0.0363 -0.0426  0.1229
 7012W        W22906   2.350  18.488   3.730  0.0689 -0.1842  0.2676
 7013W        W22907   4.759   5.464  11.243 -0.0099 -0.0261  0.1742
 7014W        W22908   5.743  17.842  12.695 -0.3209 -0.1062  0.0849
 7015W        W22909  13.773   9.579   5.659 -0.1431 -0.2837 -0.0965
 7016W        W22910   6.082  17.093  13.194  0.2932  0.0652  0.1430
 7017W        W22911   8.755   3.064  12.519 -0.1633 -0.0077 -0.0937
 7018W        W22912   6.842  13.689  13.401  0.0467  0.0527 -0.2880
 7019W        W22913  17.374   2.640   0.740 -0.1360  0.0050 -0.1836
 7020W        W22914   2.344  12.188  14.521 -0.2800 -0.2663  0.0777
 7021W        W22915   7.156   1.603   0.345  0.1608 -0.0355  0.1424
 7022W        W22916  12.072  17.068   2.875  0.3820  0.2243 -0.2442
 7023W        W22917  12.814   3.955  12.434 -0.1782  0.0990 -0.0431
 7024W        W22918   2.536  12.551  11.651  0.1399  0.0188 -0.1307
 7025W        W22919   9.029   1.545  11.496 -0.3509 -0.0288  0.1105
 7026W        W22920  16.814   9.771  13.346  0.0536  0.4079  0.1102
 7027W        W22921   0.950   2.229  12.524 -0.0741 -0.2259 -0.0432
 7028W        W22922  12.647  12.085  12.634 -0.0538  0.2207  0.1421
 7029W        W22923  10.817   0.825   0.218 -0.0256  0.4713  0.0197
 7030W        W22924   4.812   0.578   4.579 -0.2275  0.2234  0.1995
 7031W        W22925   9.281   3.741   4.839 -0.1975 -0.2511  0.1713
 7032W        W22926  15.105   6.556  13.313 -0.0634 -0.2289  0.2754
 7033W        W22927  12.011  11.208   1.572  0.1810 -0.0793  0.2229
 7034W        W22928   4.511   6.975   2.881 -0.3067 -0.2856  0.0251
 7035W        W22929  18.048  13.891  14.980 -0.2567 -0.1203  0.1229
 7036W        W22930  11.574  15.789   0.673  0.0878 -0.1004  0.1168
 7037W        W22931   3.171  17.540  13.220  0.0082  0.0616 -0.1151
 7038W        W22932  16.180   7.674   4.167 -0.2702  0.0272 -0.0211
 7039W        W22933   9.595   2.814  14.869 -0.3423  0.1507  0.0037
 7040W        W22934   6.349  14.717   4.615  0.1299  0.1265  0.3346
 7041W        W22935  10.523  14.353   3.838  0.2573  0.0965  0.0641
 7042W        W22936  13.496   3.741   3.355 -0.0120 -0.1051 -0.2959
 7043W        W22937  11.634  15.068  12.242 -0.4002 -0.0567 -0.3910
 7044W        W22938  11.733  17.562  12.759  0.0204  0.1229  0.1548
 7045W        W22939  10.864   2.453  13.754 -0.3168  0.4963  0.1599
 7046W        W22940   8.158  18.206   2.096 -0.1345  0.6097 -0.1921
 7047W        W22941   0.507   1.334   4.485 -0.3255 -0.1753  0.1609
 7048W        W22942   8.266   6.544   2.065  0.0341 -0.0708 -0.0740
 7049W        W22943  17.058   8.181  10.121  0.2663 -0.2340 -0.3254
 7050W        W22944  18.584  13.057   3.141 -0.3994  0.1132  0.1703
 7051W        W22945  15.558  18.091  10.934 -0.2486 -0.1421 -0.2297
 7052W        W22946   9.603  13.145  10.782  0.2075  0.1624  0.0437
 7053W        W22947   3.692   4.923  12.957 -0.1498 -0.2069  0.1178
 7054W        W22948   1.390   6.013   3.783 -0.0914  0.0297 -0.3144
 7055W        W22949   2.031  11.285   2.968  0.0306 -0.0042 -0.4392
 7056W        W22950  12.222   2.600  13.501 -0.0540  0.2440  0.0318
 7057W        W22951   9.994   5.964   3.773  0.1442  0.4212 -0.0104
 7058W        W22952   5.399   0.748  11.537 -0.0380  0.0757 -0.0994
 7059W        W22953  11.261  15.853   3.106 -0.3126  0.0697 -0.1094
 7060W        W22954   0.095   0.684   5.078  0.3464  0.1635 -0.2456
 7061W        W22955  14.482   1.199   4.209  0.0599 -0.0996  0.1462
 7062W        W22956   1.867  17.875  14.884  0.1193 -0.1868 -0.2483
 7063W        W22957   1.064  12.200  14.121  0.3633  0.1310 -0.1525
 7064W        W22958   5.587   2.837  13.161 -0.1120  0.2186 -0.1038
 7065W        W22959   5.952  13.600   3.995 -0.4369 -0.0752  0.3263
 7066W        W22960   3.408   6.673   1.492 -0.2252  0.0156  0.0514
 7067W        W22961   0.845  18.270  11.792  0.1505  0.1397  0.1183
 7068W        W22962   9.434   6.374   4.740 -0.1707 -0.0373  0.2071
 7069W        W22963  10.776  12.467   2.276  0.0838  0.0609  0.1457
 7070W        W22964  15.456   8.284  11.270  0.0647 -0.0142 -0.0733
 7071W        W22965   7.382   0.563  10.966 -0.0714  0.0949 -0.0012
 7072W        W22966  12.764   2.466   0.254 -0.0896 -0.0266 -0.0670
 7073W        W22967  17.245   0.187   2.827  0.1576 -0.1142 -0.1364
 7074W        W22968   9.279   7.807  10.541  0.1436 -0.2368  0.2197
 7075W        W22969   7.238   2.818  11.861  0.1425  0.0990  0.0972
 7076W        W22970  11.808   6.869  11.293 -0.5473 -0.1897  0.2701
 7077W        W22971   2.998   0.390  13.173  0.4387 -0.1275 -0.2980
 7078W        W22972   2.562  14.495  14.815 -0.0987  0.0289 -0.2147
 7079W        W22973  18.297  16.991  14.368 -0.3051  0.2182 -0.0605
 7080W        W22974  12.924  18.743  15.143  0.2315  0.0893 -0.2088
 7081W        W22975  12.639   8.903   5.343  0.3527 -0.3143  0.1979
 7082W        W22976  13.481   6.677   2.686  0.1186  0.0780  0.0822
 7083W        W22977   6.213  17.780  12.907  0.0417  0.1671  0.2482
 7084W        W22978  14.647  15.275   2.405 -0.0959 -0.1556 -0.1412
 7085W        W22979  13.972  14.241   9.552 -0.0544  0.2072 -0.3637
 7086W        W22980   7.998   8.605  11.953  0.0622 -0.1218  0.1256
 7087W        W22981  10.371   7.497  13.659 -0.4118  0.1510 -0.1135
 7088W        W22982  10.125   6.234   5.399 -0.0375  0.0504  0.0482
 7089W        W22983  16.891   9.989   0.805 -0.1754  0.0989  0.1115
 7090W        W22984   1.230   0.347  11.666 -0.1171 -0.0001  0.0319
 7091W        W22985   9.319   6.945   4.562  0.2861  0.1583 -0.0681
 7092W        W22986  14.445  18.039   5.719  0.1017 -0.1446  0.4783
 7093W        W22987   0.357  13.030   3.751 -0.0207 -0.0798 -0.0521
 7094W        W22988   7.503   6.942   4.740  0.1181 -0.1304 -0.2670
 7095W        W22989  14.781   8.477  12.280 -0.3542  0.0242  0.4217
 7096W        W22990  18.100   3.256   3.572  0.0464 -0.1669 -0.0728
 7097W        W22991  18.904   2.630  11.423 -0.3419  0.2325 -0.0869
 7098W        W22992   3.890  10.210   3.753  0.1225 -0.2110 -0.1538
 7099W        W22993  10.492  17.580  11.893 -0.3394  0.1487 -0.6658
 7100W        W22994   6.015  12.658   1.446 -0.0812 -0.0370  0.1005
 7101W        W22995   1.101   2.223  11.441  0.1615 -0.3986  0.2091
 7102W        W22996  16.129  18.187  15.021  0.2315  0.2949 -0.0379
 7103W        W22997   5.816  19.134  11.961  0.0169 -0.1980 -0.1999
 7104W        W22998   1.567   1.984  11.204 -0.0819  0.1124  0.1032
 7105W        W22999  15.217  13.075   4.303 -0.0104 -0.0814 -0.2838
 7106W        W23000   6.508   1.529   3.478  0.1076 -0.2364  0.0030
 7107W        W23001  11.579  14.258   4.105 -0.3085 -0.0334  0.0568
 7108W        W23002   6.188   0.163  14.955 -0.0029 -0.1273  0.2935
 7109W        W23003   3.551   1.220   3.603 -0.1932  0.0676  0.0798
 7110W        W23004  15.275   1.691   2.013 -0.3319 -0.2298  0.0703
 7111W        W23005  12.338   2.231  14.582  0.0762 -0.0625 -0.1111
 7112W        W23006  15.714   6.630   2.746  0.1489  0.0693  0.0416
 7113W        W23007   3.034  15.160   1.293  0.0628 -0.2383  0.1626
 7114W        W23008  17.443  11.816   0.629 -0.3101  0.2758  0.2940
 7115W        W23009   2.973  13.352   0.359  0.1697 -0.0810  0.0229
 7116W        W23010  10.948   8.550   5.156  0.0437 -0.2746  0.0147
 7117W        W23011  12.379  13.054   2.569 -0.1225  0.2298 -0.0193
 7118W        W23012   3.368  11.781   0.373 -0.1452 -0.1254 -0.1187
 7119W        W23013  12.136  19.092  11.187 -0.2625  0.1824  0.1800
 7120W        W23014   4.975   7.227  13.352 -0.2169  0.1132  0.2731
 7121W        W23015  17.127   0.834   1.939  0.1284 -0.0685 -0.1586
 7122W        W23016   0.259   8.104   2.528  0.1906  0.0311  0.0126
 7123W        W23017  12.737  14.856  14.977 -0.3121 -0.0725 -0.0084
 7124W        W23018  14.922   0.201  14.022  0.0959 -0.3402 -0.1053
 7125W        W23019   8.069  13.228  13.928 -0.1819 -0.1462 -0.1312
 7126W        W23020   1.087   9.715  13.608 -0.0665  0.1164 -0.2091
 7127W        W23021   3.037   0.595  10.750 -0.1521  0.2120  0.1441
 7128W        W23022  12.076  11.544   0.025  0.0942  0.0484 -0.0069
 7129W        W23023  15.690  17.444  15.102 -0.3190 -0.3029  0.2369
 7130W        W23024   1.804  16.432  10.112 -0.0269  0.0934  0.0722
 7131W        W23025  13.911  15.321  14.221 -0.1780 -0.1307 -0.0241
 7132W        W23026   9.825  18.920  12.330 -0.1436  0.0009 -0.0789
 7133W        W23027   6.062   1.798  12.962 -0.1249  0.0476  0.2408
 7134W        W23028   6.071   5.325  12.418 -0.0327  0.0197 -0.1267
 7135W        W23029  16.372  15.453   1.785  0.3453 -0.0137  0.0960
 7136W        W23030  13.081   8.786   3.202  0.1980  0.0725 -0.0839
 7137W        W23031  18.134   2.321   5.030  0.1107  0.4507 -0.1921
 7138W        W23032  16.755   4.866   0.207  0.0920 -0.0562  0.1038
 7139W        W23033  13.820   6.719   0.343 -0.2516  0.1134 -0.0704
 7140W        W23034  10.932  10.404  12.425 -0.3213 -0.1119  0.2217
 7141W        W23035  14.247  15.103   2.864  0.3225  0.2885 -0.1610
 7142W        W23036  12.643   1.044   4.217  0.1518 -0.0511 -0.0899
 7143W        W23037   8.626   6.177  13.392  0.3232  0.0039 -0.0324
 7144W        W23038   7.830   4.214  11.774  0.0740 -0.3148 -0.4057
 7145W        W23039   5.817   5.304   0.935 -0.0379  0.0374  0.3415
 7146W        W23040  13.510   5.539  15.162  0.0088 -0.3098 -0.2446
 7147W        W23041  17.577  17.399   3.771 -0.0036  0.1967 -0.1499
 7148W        W23042  12.891  16.267   0.194  0.3720 -0.2207 -0.2835
 7149W        W23043  15.482   2.130  13.157 -0.1622 -0.0882 -0.0736
 7150W        W23044  15.993  14.134  11.808 -0.1138  0.0813  0.1122
 7151W        W23045   7.504   8.043   5.164 -0.0262 -0.0807  0.1276
 7152W        W23046   4.736   1.237   1.160 -0.1217 -0.0620 -0.2333
 7153W        W23047  17.312  18.473   3.945  0.4168 -0.3206  0.2400
 7154W        W23048  16.142  10.725  13.938 -0.0430  0.4144  0.1928
 7155W        W23049  14.275  12.642  12.861 -0.1842  0.2014  0.1395
 7156W        W23050  18.221   1.317   3.844  0.0929 -0.0101 -0.3559
 7157W        W23051  13.150   2.296   1.068  0.5068  0.0616  0.0757
 7158W        W23052  10.834  11.696  10.204 -0.1346  0.3469 -0.1574
 7159W        W23053   6.443   0.133   3.714  0.1239  0.2176 -0.3105
 7160W        W23054   0.841  19.117   0.613 -0.0829 -0.3401  0.2865
 7161W        W23055   7.314   7.742  14.359  0.0597  0.1843  0.1765
 7162W        W23056   0.624  12.905   4.619  0.1628 -0.1738  0.1063
 7163W        W23057   9.800   1.264  10.447 -0.1815 -0.0684 -0.1805
 7164W        W23058  14.594   5.336  11.758  0.0579 -0.0383  0.1652
 7165W        W23059  15.722   9.971   5.560 -0.2801 -0.1222  0.1876
 7166W        W23060   6.929  18.044   1.015 -0.2205  0.1774 -0.3502
 7167W        W23061  17.961  17.974   3.510 -0.2371  0.2291 -0.2204
 7168W        W23062  15.583  17.530  14.019  0.3465  0.0294 -0.0754
 7169W        W23063   9.253   7.354   1.484 -0.1154 -0.1107 -0.0337
 7170W        W23064   0.099   2.915   1.557 -0.0826 -0.1606 -0.1783
 7171W        W23065   9.397   6.556  12.785  0.4825  0.0363 -0.0952
 7172W        W23066  15.501   7.669  14.933 -0.2627  0.0156 -0.1733
 7173W        W23067  13.310  13.516   3.298  0.3146  0.0191  0.1638
 7174W        W23068  16.196  11.874  13.315 -0.1021  0.0559  0.1199
 7175W        W23069   0.356  18.083  10.318  0.1256  0.2141 -0.1069
 7176W        W23070   0.081  16.197  12.156 -0.1284 -0.1658  0.0387
 7177W        W23071   9.674  10.767  10.640  0.1570 -0.0003 -0.0720
 7178W        W23072   0.454   9.707  11.190  0.2330  0.0701 -0.1886
 7179W        W23073   9.250   6.417   4.300 -0.1744 -0.1574  0.0596
 7180W        W23074   6.352   6.737  10.361  0.0252  0.0385  0.1843
 7181W        W23075  17.304  19.009   4.592 -0.1284  0.0665 -0.1941
 7182W        W23076   8.354   3.140   1.357 -0.4592 -0.2856  0.0534
 7183W        W23077   4.796  13.653   2.646 -0.0003  0.0237  0.1334
 7184W        W23078   4.641   6.930   0.800  0.0550 -0.3132 -0.3711
 7185W        W23079  15.557   8.868  13.958 -0.1709 -0.0577 -0.1241
 7186W        W23080   0.647  11.464   0.581  0.1369  0.0221  0.1676
 7187W        W23081   7.386  14.121  11.730  0.0874 -0.2536 -0.3594
 7188W        W23082  12.271   0.925  11.434  0.1356  0.0026  0.1998
 7189W        W23083   8.062   9.026   0.351 -0.1844  0.0978  0.5803
 7190W        W23084  14.729   6.761  10.479 -0.5522 -0.0351 -0.1745
 7191W        W23085   9.296  10.409   2.474  0.3492 -0.1079 -0.0178
 7192W        W23086   0.473   5.861  10.528  0.0122  0.1420 -0.2089
 7193W        W23087   3.432   9.773  13.676  0.2170 -0.0758 -0.1064
 7194W        W23088  16.366  15.818   2.075 -0.3044 -0.0464 -0.1803
 7195W        W23089   6.599   0.111   9.081 -0.1901 -0.2665  0.2407
 7196W        W23090   5.470   0.851  14.679 -0.2003  0.3913 -0.0965
 7197W        W23091   8.342  12.059   4.552  0.2645 -0.1462 -0.5101
 7198W        W23092   4.432  10.967  12.669  0.2316  0.3624 -0.1401
 7199W        W23093  10.912   1.991   1.745  0.3513  0.0794 -0.0339
 7200W        W23094   3.268   3.341  13.784  0.2122 -0.1261 -0.0455
 7201W        W23095   6.319   0.677   4.670 -0.2382  0.0900 -0.1877
 7202W        W23096   1.310   4.779  13.915  0.2153 -0.2369 -0.0667
 7203W        W23097   3.350   9.319  13.947  0.2218 -0.2383  0.2765
 7204W        W23098   5.745   3.435  10.971 -0.0407  0.0355 -0.1191
 7205W        W23099  14.827   3.186   0.296  0.0214  0.1952  0.2644
 7206W        W23100   9.112   8.446  12.886 -0.0413 -0.1934 -0.3077
 7207W        W23101   2.541  11.601   0.887 -0.3619  0.3925  0.0778
 7208W        W23102   2.159   2.482  15.066  0.0280  0.0868  0.5500
 7209W        W23103  16.141   7.723   5.148 -0.0775 -0.1616  0.2465
 7210W        W23104   2.955   9.530  11.344 -0.1280 -0.0081 -0.2668
 7211W        W23105  17.122   7.752  11.345  0.0720  0.1491  0.2123
 7212W        W23106  14.035  18.494  14.616  0.1366  0.1238  0.1580
 7213W        W23107  15.025   4.152   1.391  0.3031  0.3094 -0.0884
 7214W        W23108  10.336   8.401  10.907  0.1097 -0.2138  0.0119
 7215W        W23109  11.174   2.574  14.313 -0.1931  0.3089  0.2361
 7216W        W23110  15.363   4.702   5.353 -0.2152 -0.2415 -0.1014
 7217W        W23111  14.938   3.949  13.028 -0.0450  0.3062 -0.1710
 7218W        W23112  16.996   6.784   0.257  0.0893  0.1738  0.3190
 7219W        W23113   8.576  17.801  10.209 -0.0832 -0.0533  0.1390
 7220W        W23114  14.159  18.429  11.660  0.0726 -0.0298  0.2376
 7221W        W23115  15.425   6.727   2.173  0.0748 -0.1472  0.4048
 7222W        W23116   9.440   1.931  11.966 -0.1015 -0.1423  0.0949
 7223W        W23117  17.321  13.192   3.129 -0.0622  0.2821 -0.0530
 7224W        W23118  13.957   6.235  14.822  0.0710  0.2189 -0.0594
 7225W        W23119  12.383  10.410  15.002  0.0544  0.2746  0.0273
 7226W        W23120  18.546   4.466   2.005  0.0688  0.0221 -0.1353
 7227W        W23121  16.164  17.440  14.866 -0.2662  0.2389  0.1106
 7228W        W23122  14.814   1.447   3.898  0.4453 -0.0482 -0.1380
 7229W        W23123   9.224   5.152   1.079  0.1125 -0.0548  0.1250
 7230W        W23124   6.032  15.397   5.016  0.0920 -0.1367 -0.0163
 7231W        W23125  18.045  14.365   3.582 -0.1409 -0.4715  0.2408
 7232W        W23126   3.947   1.086   3.349 -0.1440 -0.1659  0.0300
 7233W        W23127   8.378   4.749   3.156 -0.1171  0.0679  0.2616
 7234W        W23128  10.362   2.129   0.463 -0.0407  0.0326  0.1988
 7235W        W23129  11.007   1.297   0.540 -0.1710  0.0959  0.2945
 7236W        W23130   7.845  18.384  12.434 -0.2135 -0.3518 -0.5063
 7237W        W23131   2.977   6.234  10.201 -0.1798  0.3432  0.4122
 7238W        W23132   2.912  14.895  13.080 -0.3161 -0.1492  0.0918
 7239W        W23133  11.153  18.381  13.396  0.1340  0.1208  0.0513
 7240W        W23134  18.716  14.185   1.572  0.0111  0.2081  0.1746
 7241W        W23135  18.575  16.783   1.601 -0.0089 -0.0872  0.1987
 7242W        W23136   8.348   4.185   4.677  0.2371 -0.2346 -0.0574
 7243W        W23137  10.214   8.809  11.622 -0.1102  0.1304 -0.0072
 7244W        W23138  12.370   1.589   3.080  0.2890 -0.4998 -0.2387
 7245W        W23139   1.851  14.652  10.646 -0.1889  0.2641 -0.1971
 7246W        W23140  12.730  13.038  10.218  0.1050 -0.0085  0.0028
 7247W        W23141   9.887   6.602  11.748 -0.0493  0.1698 -0.0796
 7248W        W23142  13.305   0.807   0.266 -0.1254 -0.3215  0.3342
 7249W        W23143  13.023   7.875  14.104 -0.0572  0.0181 -0.0910
 7250W        W23144  18.873   3.640   0.490 -0.0762 -0.2323 -0.2001
 7251W        W23145   3.902   2.436   2.979  0.1402 -0.0575  0.0681
 7252W        W23146   7.369  19.055   1.106 -0.0118 -0.2741 -0.0301
 7253W        W23147  15.893   1.481   0.600  0.2476 -0.0257  0.2878
 7254W        W23148  14.235  15.831   3.190 -0.0286  0.0455  0.0191
 7255W        W23149   5.393  12.351  13.782 -0.0718  0.3350  0.1000
 7256W        W23150  15.069   6.697   9.455 -0.2630 -0.0304  0.1172
 7257W        W23151  10.213  11.865   1.972 -0.1380  0.0353 -0.5677
 7258W        W23152  14.266  15.263  13.713  0.0247 -0.1099 -0.1398
 7259W        W23153   6.551  14.701  11.935  0.2933 -0.0429 -0.0505
 7260W        W23154   5.362  13.159   2.046  0.1779  0.2089  0.1920
 7261W        W23155  13.654   2.494   1.158 -0.3152  0.0498  0.1474
 7262W        W23156  11.758   4.780  14.958  0.1793 -0.1833 -0.1562
 7263W        W23157   0.785  10.931  13.864 -0.0164  0.2091 -0.2184
 7264W        W23158  11.678  10.146   3.353  0.1771  0.0103  0.1905
 7265W        W23159   9.185   2.025  12.763 -0.3156 -0.0464 -0.1069
 7266W        W23160  18.947   7.158  12.681  0.2673 -0.0931 -0.1888
 7267W        W23161  14.701  16.162   3.290 -0.3393  0.0772  0.0367
 7268W        W23162   2.391  12.489   4.665  0.0568  0.0187 -0.4533
 7269W        W23163   9.423  10.995   0.104 -0.0952  0.2023  0.0458
 7270W        W23164   3.490   9.266   3.907  0.1058  0.1655  0.4202
 7271W        W23165   8.089   8.066   1.760 -0.2859  0.2752 -0.1248
 7272W        W23166  19.067  11.215  12.331 -0.0588 -0.1810 -0.0745
 7273W        W23167   9.308  12.715  10.081  0.3211  0.0437 -0.1985
 7274W        W23168  19.016   4.488  14.206 -0.0280 -0.2120  0.0418
 7275W        W23169  12.402   2.293   4.781 -0.0708 -0.2684  0.0693
 7276W        W23170   7.949   2.832  13.863  0.1109 -0.4817 -0.2992
 7277W        W23171   6.336   1.284   0.460 -0.0540  0.1062  0.1118
 7278W        W23172   4.721  17.573  12.234 -0.0532 -0.0209  0.0489
 7279W        W23173  15.918  12.002  14.578  0.0335 -0.2433 -0.1554
 7280W        W23174   7.078  19.000  12.209 -0.0612  0.0011 -0.2668
 7281W        W23175  17.457   3.784  13.764  0.3484 -0.0198  0.0373
 7282W        W23176   9.969  11.052   1.482  0.0709 -0.3614  0.4348
 7283W        W23177   7.196   4.149   3.340  0.1136 -0.1088  0.5319
 7284W        W23178   0.883   2.550  12.169 -0.1727 -0.1539  0.1742
 7285W        W23179   1.639  15.644  13.176  0.2195  0.0691 -0.1516
 7286W        W23180   6.913   2.501   4.231  0.1131 -0.1576  0.1116
 7287W        W23181  11.872  10.333  12.813 -0.1665 -0.1199  0.0771
 7288W        W23182   8.377   1.329   1.673  0.1233  0.0722  0.1539
 7289W        W23183   4.290   8.008  13.061 -0.0758 -0.0208 -0.2019
 7290W        W23184   9.444  17.580   5.405 -0.0336 -0.1824  0.0436
 7291W        W23185   4.830  11.742  11.722 -0.2720 -0.0866 -0.0511
 7292W        W23186   8.558  12.079   4.070 -0.0711  0.0734  0.1571
 7293W        W23187   9.017   2.484   0.639 -0.0631  0.0672 -0.2090
 7294W        W23188   3.177   7.213   3.666  0.1890  0.0680  0.0913
 7295W        W23189  18.413   3.825   0.780 -0.1210  0.3256 -0.1044
 7296W        W23190   7.895   8.434   2.035 -0.3342 -0.0341 -0.0479
 7297W        W23191  13.077   8.427   1.034  0.2746  0.0817  0.1438
 7298W        W23192  11.432  16.935   4.164  0.0730  0.0013 -0.2813
 7299W        W23193  13.353  19.068  13.198  0.1048 -0.2011  0.2387
 7300W        W23194   1.304   1.532   3.992 -0.0802 -0.0302 -0.3277
 7301W        W23195   7.260   8.935   2.201  0.3963 -0.1682 -0.2071
 7302W        W23196  15.191   1.166   4.616  0.0902  0.0765  0.0608
 7303W        W23197   4.199   4.553  11.189 -0.1000  0.2395  0.0391
 7304W        W23198  17.750   9.117   2.012 -0.0134  0.4050 -0.2127
 7305W        W23199  18.202   3.446   2.704  0.0110 -0.3577 -0.2302
 7306W        W23200  16.719  17.285   4.246  0.0267  0.0076 -0.1196
 7307W        W23201  17.702  10.676   3.443  0.3128  0.1082 -0.4760
 7308W        W23202  18.706   3.414   2.739  0.0708  0.1188 -0.0095
 7309W        W23203   6.845  11.491   4.872 -0.0514  0.0194  0.3464
 7310W        W23204  15.232  10.656   2.919 -0.0296  0.0242  0.2143
 7311W        W23205   9.974  16.507   4.966  0.0064  0.2577 -0.2981
 7312W        W23206   8.485   2.404   1.449 -0.4625  0.0522 -0.0582
 7313W        W23207  15.811   8.136  15.116 -0.1038  0.1656 -0.1415
 7314W        W23208   6.780   1.271  14.869  0.2771  0.1272 -0.2008
 7315W        W23209   4.440  11.887   2.687  0.1109  0.0907  0.2728
 7316W        W23210  11.847   6.727  12.746  0.1827  0.1148  0.1969
 7317W        W23211  18.043   5.615   3.324 -0.3690  0.1905 -0.0429
 7318W        W23212  15.519   4.432  13.627  0.2400 -0.1326  0.1812
 7319W        W23213   9.764   8.781   2.326 -0.0679 -0.1421  0.0625
 7320W        W23214  13.552   8.006   1.640 -0.2274 -0.0794 -0.0955
 7321W        W23215  15.991   4.306   4.813 -0.0539  0.1893 -0.0203
 7322W        W23216  13.334  14.906   3.191  0.0748 -0.0867 -0.5248
 7323W        W23217  12.963  15.910  11.007  0.1652  0.4336 -0.0130
 7324W        W23218  12.065  15.387  11.143  0.2752 -0.0556  0.3127
 7325W        W23219  16.721   4.118  10.211 -0.2296 -0.0589  0.0895
 7326W        W23220  14.450  18.411  10.819 -0.2429  0.2081 -0.1342
 7327W        W23221  15.868  15.960   4.294 -0.1366  0.2732  0.0778
 7328W        W23222   2.981   2.190  13.815  0.0268  0.0933  0.0285
 7329W        W23223   4.317  16.838   2.135 -0.2927  0.0324 -0.0275
 7330W        W23224  16.824   7.205   4.529  0.0767 -0.3060  0.3178
 7331W        W23225  14.638   4.801   0.243  0.1485  0.0557 -0.0939
 7332W        W23226  10.633  11.945   0.377  0.0377  0.0848  0.0935
 7333W        W23227   1.971  16.291   3.592  0.0122  0.1120 -0.3302
 7334W        W23228   1.384   6.327  10.716  0.0271  0.1543 -0.0046
 7335W        W23229   5.883   4.000   4.836  0.1516 -0.5966  0.0125
 7336W        W23230   3.325  15.672  14.517 -0.0121 -0.2137  0.1292
 7337W        W23231   7.213  10.107   2.734  0.0683 -0.0157  0.2470
 7338W        W23232  17.045   2.162  12.506  0.1182  0.3125  0.2818
 7339W        W23233   7.180  15.074  13.420  0.1692 -0.0142 -0.0862
 7340W        W23234  12.962   5.266  11.705  0.0158  0.0012  0.0230
 7341W        W23235  13.671   9.571  11.468 -0.0486 -0.1969 -0.4055
 7342W        W23236   6.612   2.670  13.328  0.1489  0.1798 -0.3290
 7343W        W23237  10.833  18.360  13.857 -0.0801  0.2985  0.2752
 7344W        W23238   5.693   5.543  13.863 -0.0159  0.1574 -0.1920
 7345W        W23239   1.456   4.918  12.869  0.0658 -0.2484  0.1891
 7346W        W23240  13.218   9.904  10.821 -0.4412 -0.2012 -0.0929
 7347W        W23241   3.154   6.305   4.025 -0.2431 -0.2126  0.0838
 7348W        W23242  14.826   8.249   5.015 -0.2337 -0.0014 -0.0483
 7349W        W23243  17.592   1.579  11.160  0.0459 -0.3554 -0.1606
 7350W        W23244   0.355  16.372   2.735  0.1727  0.0662 -0.2390
 7351W        W23245  15.541  14.610   3.748 -0.0735 -0.1146  0.1205
 7352W        W23246   6.368  12.795   2.859  0.0900 -0.3560  0.1032
 7353W        W23247   2.356  12.626   1.260 -0.2820 -0.0844  0.2529
 7354W        W23248  18.102  13.386  14.726 -0.1992  0.2919 -0.1957
 7355W        W23249  16.811   9.979   1.344  0.5804 -0.2547  0.1291
 7356W        W23250   0.147   2.333   2.414 -0.1853 -0.3953  0.0776
 7357W        W23251  13.242   2.616   0.086 -0.1244 -0.2205 -0.0773
 7358W        W23252   4.211  12.676  12.073  0.4017 -0.3169 -0.0646
 7359W        W23253  11.842  10.187   1.407  0.0001 -0.0778  0.0088
 7360W        W23254   3.154  18.461  13.198  0.1867 -0.1884 -0.1710
 7361W        W23255   9.900  14.951   4.211 -0.0188 -0.2648 -0.3140
 7362W        W23256   3.038  14.289   1.453  0.0694  0.0341  0.1605
 7363W        W23257  15.850   0.618  13.647  0.3987  0.1568  0.5350
 7364W        W23258  17.436   5.427   2.045 -0.0301 -0.0593  0.0408
 7365W        W23259   9.783  17.807   3.684 -0.2347  0.0693  0.0228
 7366W        W23260   2.034   9.117  10.408  0.0904 -0.0421  0.4633
 7367W        W23261   1.053  15.370   0.497  0.1264  0.1432 -0.4312
 7368W        W23262   8.575   9.321   1.226  0.0957  0.3053  0.1460
 7369W        W23263  19.064   8.414  12.390  0.1641  0.0098 -0.0535
 7370W        W23264   4.824   7.419   1.041 -0.0376 -0.2587 -0.1012
 7371W        W23265   2.226   3.001   1.716 -0.0309 -0.1253  0.0921
 7372W        W23266  12.151  13.330  10.668 -0.3763  0.4358  0.0080
 7373W        W23267  14.953   5.820  15.028  0.2328  0.0205  0.3611
 7374W        W23268   4.663  11.769  14.933  0.0636  0.0659 -0.2136
 7375W        W23269   5.861  16.628   1.997  0.1098 -0.2115 -0.1165
 7376W        W23270  15.749   7.642  11.787 -0.1014 -0.0361  0.2305
 7377W        W23271  14.643   7.678   2.793 -0.2018  0.0272  0.1313
 7378W        W23272  12.719  14.276   3.718  0.2105  0.1082 -0.1707
 7379W        W23273   2.641   4.631  12.055  0.2742  0.1120 -0.0739
 7380W        W23274  11.252  16.469  13.275 -0.1491  0.0059 -0.1896
 7381W        W23275  18.669  10.351  11.879  0.0999 -0.1442  0.0463
 7382W        W23276   2.141   3.384   0.865  0.0893 -0.4070  0.0161
 7383W        W23277   7.052  16.908  12.474  0.2297 -0.3579 -0.2211
 7384W        W23278   0.741  15.010  11.814 -0.1800  0.1914  0.3466
 7385W        W23279  11.420   9.114   2.578  0.2508 -0.2310  0.0493
 7386W        W23280  18.136  11.273  10.965  0.0787  0.1256 -0.2482
 7387W        W23281  18.449   7.016  13.515  0.0236 -0.2183 -0.1370
 7388W        W23282   5.376   5.609   0.533  0.1287  0.2048 -0.3203
 7389W        W23283   5.353   2.085  10.267  0.1729  0.0125  0.2231
 7390W        W23284   6.661  16.327   9.699 -0.1397  0.0452  0.2349
 7391W        W23285  12.690  10.214   0.669  0.1320 -0.0498 -0.1749
 7392W        W23286   1.261  14.065  12.956 -0.2811  0.2581 -0.1837
 7393W        W23287   4.024  13.921  15.183  0.0346  0.1940 -0.1516
 7394W        W23288  12.411  13.025   4.692  0.0322  0.2623 -0.2775
 7395W        W23289  11.537   2.555   4.223 -0.0227  0.2948 -0.1408
 7396W        W23290  10.448   1.498   3.966  0.0042 -0.1098 -0.0022
 7397W        W23291  11.939   6.879  13.617 -0.1680 -0.0004 -0.1502
 7398W        W23292  15.375  18.575   2.323  0.1497  0.0445  0.0412
 7399W        W23293   6.255  13.434  12.193  0.1560 -0.0202 -0.0691
 7400W        W23294   9.334   9.247   0.915 -0.3532 -0.0738  0.1784
 7401W        W23295  11.876   6.620   0.512 -0.0410 -0.1689  0.1433
 7402W        W23296  12.451   8.059   2.716 -0.1968  0.0370 -0.1611
 7403W        W23297  18.153   8.110  12.088  0.2223 -0.1652  0.0543
 7404W        W23298  17.825  10.558   4.854 -0.0942  0.0674  0.1293
 7405W        W23299   5.066  18.470  14.630  0.2549 -0.3483 -0.3032
 7406W        W23300   0.668  11.338  11.030  0.2383  0.3543 -0.1550
 7407W        W23301   2.205   0.188   4.117 -0.1668  0.1971 -0.1391
 7408W        W23302  17.532  18.187   0.097  0.0905  0.2101  0.2635
 7409W        W23303   2.592  12.680   0.716  0.0308 -0.0044 -0.1053
 7410W        W23304   6.281   6.558  14.711  0.1991 -0.1362 -0.1497
 7411W        W23305  16.133  11.262  13.959  0.0474 -0.2487 -0.0046
 7412W        W23306   7.210   0.759  14.005 -0.2099 -0.2195  0.3235
 7413W        W23307  18.213  14.711  15.113 -0.0844 -0.0808  0.1130
 7414W        W23308  18.929   5.530  14.589 -0.0595  0.2776 -0.2512
 7415W        W23309  14.893  16.434  11.639 -0.1592  0.0020 -0.2871
 7416W        W23310   9.165   2.221   2.410  0.0859 -0.1378  0.0287
 7417W        W23311   0.260   4.503  14.567  0.3146  0.0032 -0.1524
 7418W        W23312   6.540  16.949  10.588  0.5874  0.2760  0.3744
 7419W        W23313   2.558   3.949  14.909 -0.1869 -0.0370  0.4147
 7420W        W23314  12.790  18.055   1.640  0.1540  0.0217 -0.0135
 7421W        W23315   2.838  13.614   4.456 -0.0976  0.2345  0.0291
 7422W        W23316   0.923   1.534  10.750 -0.0408  0.0023  0.0883
 7423W        W23317   2.077   7.543   2.189 -0.0060  0.0472 -0.2466
 7424W        W23318   0.438   7.669   2.455  0.1744 -0.0962 -0.3516
 7425W        W23319   5.949  14.929   4.903  0.1903  0.2271  0.0157
 7426W        W23320   2.486  16.679  14.890  0.0064  0.2441  0.0828
 7427W        W23321  12.497  17.188  12.277 -0.2322  0.0539  0.0182
 7428W        W23322  13.980   1.136  12.316 -0.0146  0.3853  0.1450
 7429W        W23323   9.792   5.420  13.934 -0.1449  0.0134 -0.2079
 7430W        W23324  12.810   8.596  11.256 -0.3692  0.4313  0.0590
 7431W        W23325  19.108  17.785  14.327 -0.5795  0.0873 -0.2325
 7432W        W23326  11.240   8.913   5.472  0.1981  0.1583  0.0856
 7433W        W23327  16.709   8.986  13.270 -0.3566 -0.0452  0.0855
 7434W        W23328   9.368  17.190   3.172 -0.1263  0.2684 -0.2517
 7435W        W23329  11.033   9.975  14.157 -0.2379 -0.2892 -0.0638
 7436W        W23330  13.506  10.830  10.392 -0.1077 -0.0614 -0.1502
 7437W        W23331   6.956   2.787   3.505  0.0511  0.0737  0.0789
 7438W        W23332   1.518  17.738   0.591  0.2611  0.1236 -0.1833
 7439W        W23333  11.814   2.883   1.288  0.0683  0.0510 -0.1656
 7440W        W23334   6.534  11.236  12.280 -0.1173 -0.1484 -0.3268
 7441W        W23335   7.650   4.069   3.601  0.0475  0.2235 -0.2759
 7442W        W23336  17.497  18.656  10.333  0.0535 -0.1808 -0.1697
 7443W        W23337   6.639  18.215  10.170  0.0767 -0.3021 -0.4903
 7444W        W23338  11.696   7.354   0.867 -0.2672  0.1576 -0.0005
 7445W        W23339  16.478   2.899   3.783  0.1393 -0.2506  0.2020
 7446W        W23340   0.591   6.379   2.524 -0.0872  0.0199  0.1824
 7447W        W23341  14.540  10.480   0.800  0.0500 -0.2222  0.1352
 7448W        W23342   7.645   0.665   5.101 -0.0162  0.4672  0.0945
 7449W        W23343   1.159   9.824   5.237 -0.0936  0.0818  0.2094
 7450W        W23344   0.617  17.976  12.577 -0.1729 -0.0384  0.0543
 7451W        W23345  16.548   5.808  14.468  0.1170 -0.1628 -0.1661
 7452W        W23346  16.091   3.269   2.256 -0.1102  0.1280  0.2823
 7453W        W23347  10.971   1.793   4.751  0.1357  0.1076  0.0127
 7454W        W23348  14.669   5.040  12.132  0.4843  0.3612 -0.0998
 7455W        W23349  16.245  17.873   3.813 -0.1557 -0.4619  0.1930
 7456W        W23350  11.012   3.809  10.121  0.1053 -0.1249  0.1260
 7457W        W23351  15.156  16.560   3.400 -0.0160  0.1314 -0.1633
 7458W        W23352  18.052   3.045  13.545 -0.2018  0.2549  0.1379
 7459W        W23353  11.017  16.713  13.847 -0.0856  0.3140  0.1721
 7460W        W23354  16.569   7.011   4.901 -0.0395 -0.0104 -0.3268
 7461W        W23355   8.007   1.492  12.940 -0.1873  0.0351  0.1258
 7462W        W23356  17.304   8.625  13.731 -0.2925  0.1432 -0.2598
 7463W        W23357   2.592  10.822   9.484  0.1137 -0.0682  0.3494
 7464W        W23358  10.002  14.223   3.458  0.1647  0.0055  0.1386
 7465W        W23359   5.843   1.326   1.246  0.1604  0.2276  0.1048
 7466W        W23360   4.270   0.505   3.774 -0.1820 -0.0103 -0.0501
 7467W        W23361  18.796   0.301  13.005  0.2270 -0.1335  0.0362
 7468W        W23362  13.494   3.594  13.428  0.0614 -0.0123  0.1973
 7469W        W23363   3.783  16.792   4.193  0.0325  0.4013 -0.1011
 7470W        W23364  16.670  18.479   0.396 -0.2848  0.2386 -0.2988
 7471W        W23365   9.388  13.611  11.016 -0.1023  0.1172 -0.1578
 7472W        W23366  17.068   6.779  13.140 -0.1859 -0.0672 -0.2098
 7473W        W23367  15.851  14.901  13.834 -0.2959 -0.1817 -0.1311
 7474W        W23368   4.490   1.341   1.605 -0.0750 -0.1090 -0.2588
 7475W        W23369  12.640  18.011  11.531  0.0840 -0.1715  0.2166
 7476W        W23370   2.429   1.422   2.840 -0.0950  0.2218 -0.0029
 7477W        W23371   7.787  18.263  15.059  0.1842  0.0854 -0.0675
 7478W        W23372  12.185  17.353   3.823  0.2236  0.0424  0.1659
 7479W        W23373   1.733   4.111   1.945  0.1406 -0.2802  0.1298
 7480W        W23374   4.775   8.716   0.816 -0.1715  0.2015  0.0206
 7481W        W23375   0.193   8.800   5.350 -0.1491 -0.1360 -0.1952
 7482W        W23376   4.177   2.671  13.467 -0.1245  0.0946  0.1798
 7483W        W23377  10.624  11.660   1.647  0.0330 -0.1604  0.0865
 7484W        W23378   3.355   2.796   2.398  0.0478 -0.2117  0.0749
 7485W        W23379   3.410  17.618   1.901 -0.2318  0.0344  0.1387
 7486W        W23380  11.313   5.534   4.516 -0.0614 -0.1456  0.0001
 7487W        W23381   8.611   1.840   1.775  0.0295 -0.1253  0.2768
 7488W        W23382  13.610   5.321   4.316 -0.1407  0.0676  0.3322
 7489W        W23383  11.627  10.978  10.621 -0.2031  0.2331  0.1526
 7490W        W23384   2.997  14.502   0.301 -0.1549 -0.3345  0.1269
 7491W        W23385  13.891   7.768   4.513  0.0479  0.0329  0.0623
 7492W        W23386  19.028  10.558   3.279 -0.1536 -0.0489  0.0167
 7493W        W23387  10.644   1.906   2.730 -0.1617  0.1885 -0.1824
 7494W        W23388   3.284   2.867   1.350 -0.3939 -0.0859  0.3208
 7495W        W23389   9.098   6.726   3.513 -0.2482  0.0501  0.0034
 7496W        W23390  11.116  12.285  14.311 -0.0012  0.0967 -0.1944
 7497W        W23391   9.408  11.559  10.716  0.1098  0.1978 -0.2520
 7498W        W23392   8.128   2.162  10.671  0.0575  0.2932 -0.1541
 7499W        W23393  13.799   5.475   2.403  0.0159  0.0049 -0.2821
 7500W        W23394   7.786   3.373  12.428  0.3431  0.1006 -0.0523
 7501W        W23395  15.910   5.270   0.092  0.1426 -0.0276 -0.1212
 7502W        W23396   7.080   0.232  13.864 -0.2403 -0.1129 -0.1193
 7503W        W23397   6.467  14.281  11.571 -0.2660  0.0900  0.2349
 7504W        W23398  15.957   5.656  12.588  0.4789  0.0240 -0.3467
 7505W        W23399   7.152  18.453  14.504 -0.3419 -0.0852  0.0367
 7506W        W23400   0.994  12.401  10.360 -0.0310 -0.1611  0.1778
 7507W        W23401  11.708   1.101   4.546  0.2805 -0.0913 -0.1519
 7508W        W23402   2.116   8.475   2.951 -0.0622  0.2058 -0.2092
 7509W        W23403   6.065  18.945   1.992  0.0011  0.0175 -0.1563
 7510W        W23404  17.000   0.994   5.120  0.2971 -0.3956  0.0938
 7511W        W23405  15.616  13.193   1.073  0.0580  0.1663  0.3171
 7512W        W23406  13.001   0.405   2.433  0.1133 -0.1005  0.2449
 7513W        W23407   3.840   0.330   3.637 -0.1508  0.1733  0.1100
 7514W        W23408   3.067   2.562  14.353  0.4961 -0.2254 -0.0155
 7515W        W23409   1.741  15.151   1.970  0.0780 -0.1268  0.1038
 7516W        W23410   2.608   1.579   0.267  0.0455  0.0486  0.0263
 7517W        W23411   5.934   6.838   1.682  0.0075  0.1305  0.1711
 7518W        W23412  13.823  14.774  11.960  0.1965 -0.0086 -0.2384
 7519W        W23413   8.558  12.673   4.838  0.2023 -0.0040  0.3198
 7520W        W23414   9.437   1.827  11.453  0.0592  0.4370 -0.3268
 7521W        W23415   1.586   4.584   2.147 -0.1290 -0.1952  0.2803
 7522W        W23416  13.945  18.841   3.646 -0.2043  0.1890  0.0435
 7523W        W23417   6.769  11.856   3.977  0.1346 -0.1615  0.0352
 7524W        W23418  13.553  10.214  13.363  0.1288  0.0506 -0.0545
 7525W        W23419   7.667  18.163  13.346 -0.2525 -0.3619 -0.0062
 7526W        W23420   0.521   2.302   1.069  0.2069  0.0048 -0.4530
 7527W        W23421   0.163  12.597   3.836 -0.1172  0.1141  0.0770
 7528W        W23422  15.377  14.707  13.677 -0.4366  0.0760  0.1193
 7529W        W23423   8.551  14.808   0.593 -0.1614  0.3600 -0.0820
 7530W        W23424  13.896   0.434   1.910  0.1942 -0.0495  0.0851
 7531W        W23425  13.540   9.965   5.997 -0.2249 -0.1177 -0.3668
 7532W        W23426   2.815  15.138   4.307 -0.0145  0.0241  0.0674
 7533W        W23427  16.332   9.436  12.035  0.0270 -0.2732 -0.0834
 7534W        W23428  11.346   3.692   9.646  0.0681 -0.0522  0.0507
 7535W        W23429  14.762  13.088   2.075  0.5040 -0.0164  0.1025
 7536W        W23430   5.875   2.920   4.353 -0.1638  0.2424  0.0236
 7537W        W23431   5.843   9.636  11.751 -0.3131 -0.0550  0.0729
 7538W        W23432  16.003  14.857   0.238 -0.0725 -0.1857 -0.0578
 7539W        W23433   3.317   0.480   3.638  0.0033  0.2505 -0.0431
 7540W        W23434  10.276  18.554   4.806 -0.1384 -0.2599 -0.2141
 7541W        W23435   3.172  13.030  12.856  0.0467 -0.0639  0.1413
 7542W        W23436  17.066   1.093  12.563  0.1226 -0.3690 -0.1483
 7543W        W23437   5.264  11.178  15.033  0.1141 -0.0719 -0.0026
 7544W        W23438  14.546   7.909   1.483 -0.1224 -0.1652  0.0320
 7545W        W23439   4.219   5.485   2.749  0.2109  0.1179  0.2593
 7546W        W23440  14.404   9.941  12.841 -0.0955  0.1524  0.0731
 7547W        W23441   5.489  18.538   1.870 -0.1350  0.2954  0.1222
 7548W        W23442   0.902   4.880  12.026  0.0894 -0.0052  0.1490
 7549W        W23443  17.121  10.242  14.801  0.0984  0.1963 -0.0134
 7550W        W23444   0.941  10.058  12.679 -0.1511  0.1855 -0.2023
 7551W        W23445   8.303   0.481   1.239 -0.1339  0.2932 -0.0847
 7552W        W23446   0.724  15.195  13.515  0.0101 -0.2215 -0.1409
 7553W        W23447   1.666   0.220   1.903 -0.1833 -0.0603 -0.0997
 7554W        W23448   4.286  16.900  14.707  0.0598 -0.3227  0.0563
 7555W        W23449   2.672   8.025   1.710  0.1841 -0.1408  0.1165
 7556W        W23450  17.647   4.469  14.332  0.1533  0.0782 -0.2789
 7557W        W23451  13.859  15.031  13.367 -0.0118  0.0433 -0.2409
 7558W        W23452   3.226   2.801   5.625  0.1863  0.0227 -0.1204
 7559W        W23453   5.772   0.399   3.383  0.0254  0.0204  0.2612
 7560W        W23454   5.853   8.964   2.653 -0.0764  0.0609  0.2400
 7561W        W23455   9.464   0.188   0.968  0.0205  0.2268  0.0024
 7562W        W23456   3.636   2.846  10.316 -0.3240  0.1186  0.1362
 7563W        W23457   5.429   8.036   3.752 -0.3638  0.2633  0.0237
 7564W        W23458   3.813   7.301  13.041  0.3600 -0.2180  0.2513
 7565W        W23459   3.929   5.014   4.918  0.0899 -0.2412  0.0538
 7566W        W23460   1.983   4.889   2.194  0.1423 -0.3823 -0.0178
 7567W        W23461   1.872   3.165  15.059  0.3620  0.3069 -0.0692
 7568W        W23462  12.519  18.070  12.291  0.2766 -0.0780  0.0551
 7569W        W23463  15.999   2.882   1.805 -0.0821  0.2330  0.1661
 7570W        W23464   0.807   3.230   0.593 -0.0306 -0.0646 -0.1382
 7571W        W23465   3.276   1.438  10.309 -0.0146 -0.1641  0.3206
 7572W        W23466   7.884   6.749   2.929  0.0561 -0.4540  0.2571
 7573W        W23467  16.377  15.022   0.011 -0.0262 -0.1120 -0.0506
 7574W        W23468   0.507   1.697  12.307  0.1857  0.0120 -0.1088
 7575W        W23469  14.320   5.024   4.806  0.1134 -0.0879 -0.1921
 7576W        W23470   8.968   5.549  11.713 -0.1774 -0.1293  0.1079
 7577W        W23471  12.906  19.048   3.416  0.2562 -0.1249  0.2325
 7578W        W23472  13.618   1.171   0.240 -0.1274  0.1784  0.1678
 7579W        W23473  12.048  10.352   3.602  0.1164  0.1097  0.1076
 7580W        W23474  13.555   2.482   3.782 -0.0001  0.1426  0.2357
 7581W        W23475  16.104  10.452  15.191 -0.3423  0.0311 -0.1312
 7582W        W23476   6.720  14.972   2.931 -0.0244 -0.2115 -0.0457
 7583W        W23477   1.127  14.019   9.854  0.1714 -0.0898 -0.4781
 7584W        W23478  10.121  11.593   4.521 -0.0969  0.1195  0.0340
 7585W        W23479  13.856  13.443   1.821 -0.2428  0.5033  0.0188
 7586W        W23480   6.305  11.781  15.108 -0.1552 -0.2155 -0.1601
 7587W        W23481   2.101  12.487   0.618 -0.0665  0.0867 -0.1325
 7588W        W23482  12.799   4.227   2.901 -0.1225  0.0197 -0.0868
 7589W        W23483  14.651  11.095   5.082 -0.3513  0.0701  0.0173
 7590W        W23484   7.253  18.355  13.528  0.0501  0.0053 -0.1873
 7591W        W23485  11.762   0.603  14.381  0.1210 -0.3406 -0.0663
 7592W        W23486   0.498  13.673  11.392  0.1791 -0.0895 -0.3144
 7593W        W23487   5.920  10.784   0.635 -0.1844  0.1155 -0.2144
 7594W        W23488   5.528  18.780  13.505  0.0074  0.0405 -0.0054
 7595W        W23489  17.559   0.835  14.343 -0.0448 -0.0758 -0.0593
 7596W        W23490  11.794   1.853   3.484 -0.2301  0.2183 -0.1880
 7597W        W23491   0.153   4.275   2.570 -0.0069  0.2993 -0.2710
 7598W        W23492   6.544  17.886   0.705 -0.1136  0.2482 -0.0903
 7599W        W23493  10.902  18.925  12.282 -0.1179  0.0447 -0.0511
 7600W        W23494  15.538  16.771   2.081 -0.1696 -0.1972 -0.1747
 7601W        W23495   7.876   9.266   1.514  0.0161 -0.0392 -0.0567
 7602W        W23496   3.895  16.285   0.752  0.3076 -0.1099 -0.0562
 7603W        W23497   5.439   3.872   2.320 -0.0913 -0.3091 -0.0243
 7604W        W23498   8.742   0.206  13.921  0.1726  0.1663 -0.0168
 7605W        W23499  19.112   1.045  13.294  0.0649  0.0593 -0.3461
 7606W        W23500   0.307  15.614  13.641 -0.0131 -0.1873  0.2587
 7607W        W23501  12.447   1.005  12.631 -0.2949  0.3671 -0.2747
 7608W        W23502   4.457  11.124   2.867 -0.2166  0.3398  0.0878
 7609W        W23503   9.994   1.258  12.418  0.2892 -0.1970 -0.1043
 7610W        W23504   3.887   9.092  12.424 -0.2596 -0.2362  0.1527
 7611W        W23505   5.132  11.894  14.730  0.2500  0.0549  0.0882
 7612W        W23506  10.615   4.584   3.337  0.3649  0.0689  0.0041
 7613W        W23507   7.137   0.289   4.217 -0.0778 -0.1344 -0.0909
 7614W        W23508   2.485  11.737  14.829 -0.2826  0.3318  0.0263
 7615W        W23509  16.448  18.127  12.901 -0.2118 -0.0467 -0.0259
 7616W        W23510  15.785  11.814   5.381  0.1694  0.0320  0.0022
 7617W        W23511   7.263   1.493  11.406  0.1695 -0.0739 -0.2001
 7618W        W23512   8.689   9.909   4.069 -0.0404 -0.0851 -0.0091
 7619W        W23513   8.554   1.504   0.938 -0.0936  0.2663  0.1867
 7620W        W23514   3.841   4.016   5.172  0.1334 -0.3197 -0.5453
 7621W        W23515   7.851   5.473  14.222  0.1850  0.1216  0.1003
 7622W        W23516  15.975   1.528   3.084  0.3392  0.0124  0.0854
 7623W        W23517   8.626   0.314   1.632 -0.0940  0.0888  0.2265
 7624W        W23518   4.371  15.565   2.473 -0.2303 -0.3785  0.1633
 7625W        W23519  17.642  14.216  11.171  0.2859  0.2140 -0.1295
 7626W        W23520   8.849   3.278   5.020 -0.4274 -0.3999 -0.0340
 7627W        W23521  18.141   4.652   5.455  0.0450  0.1179 -0.2020
 7628W        W23522   1.698   5.282  13.194 -0.0142  0.0182  0.1946
 7629W        W23523  13.735  10.101  15.182 -0.1273  0.1941  0.1159
 7630W        W23524  10.234   1.382   1.426 -0.0366 -0.0937 -0.0253
 7631W        W23525   7.742  15.987  14.005 -0.2890  0.2717 -0.1531
 7632W        W23526   8.230  16.314   0.359  0.2326  0.1398 -0.0329
 7633W        W23527  18.359   5.415  12.470 -0.0176 -0.1552  0.0439
 7634W        W23528  14.180   9.877   4.348  0.1010  0.0357 -0.2963
 7635W        W23529  17.636  10.862   4.469 -0.1806  0.0932  0.2093
 7636W        W23530  18.768   3.840  14.357 -0.2512 -0.1164  0.1117
 7637W        W23531   2.301  17.709  15.138 -0.1264 -0.1115  0.2690
 7638W        W23532   6.664   8.256   4.315 -0.1661  0.0355 -0.3084
 7639W        W23533   5.873  14.831  12.568 -0.1382 -0.1594 -0.0253
 7640W        W23534   4.121   1.282   0.334 -0.2229  0.1541 -0.0377
 7641W        W23535  17.940   6.506   1.798  0.3809 -0.3339  0.3589
 7642W        W23536   8.630  17.291  14.520  0.0889  0.3272  0.1912
 7643W        W23537  15.615  15.237  14.666 -0.2132 -0.1741  0.1000
 7644W        W23538   2.617  17.238   2.834 -0.1477 -0.0278  0.0460
 7645W        W23539   1.184  15.839   0.983 -0.0976 -0.1390 -0.0531
 7646W        W23540  10.196   0.867  14.563 -0.1011  0.1186 -0.0373
 7647W        W23541   6.251   6.306  12.841 -0.0369  0.3170  0.0482
 7648W        W23542  14.145   2.158  14.433 -0.0139 -0.1945 -0.2790
 7649W        W23543   4.088   3.926   1.744  0.1037  0.2761 -0.1365
 7650W        W23544   9.912   5.543  12.087  0.1993 -0.1743 -0.0786
 7651W        W23545  14.787  18.276   1.772  0.5178 -0.0263 -0.1831
 7652W        W23546   1.159   0.630  12.986 -0.2071 -0.0469 -0.0475
 7653W        W23547   6.864  16.726   3.582 -0.2272  0.0129  0.0010
 7654W        W23548  16.837  11.871  14.347 -0.0908 -0.3981  0.1261
 7655W        W23549   1.780  17.291   5.379 -0.1488 -0.1544  0.1391
 7656W        W23550   0.241  14.878   4.540 -0.0374  0.2392 -0.3003
 7657W        W23551  12.409  13.961   4.569  0.1910  0.0211  0.3133
 7658W        W23552  15.180   4.021   0.485  0.0627  0.0106 -0.4861
 7659W        W23553   7.899  15.337   3.607  0.0766 -0.3126  0.1496
 7660W        W23554   1.264   4.323  12.593 -0.1726  0.1734  0.2363
 7661W        W23555   5.175   1.002   3.290  0.2675  0.1412 -0.3651
 7662W        W23556  16.734  11.613  11.606  0.1315 -0.1708 -0.3899
 7663W        W23557  12.066  15.774   3.834 -0.2192  0.0826 -0.0300
 7664W        W23558   5.219  18.959   0.282 -0.0523 -0.3561  0.1874
 7665W        W23559   4.850   6.168   3.246  0.2677  0.0730  0.3549
 7666W        W23560  10.306   7.986   3.911  0.0364 -0.0577 -0.0562
 7667W        W23561   2.115  17.806   3.257  0.0581  0.0371  0.3775
 7668W        W23562  14.352  15.663  11.749 -0.3188  0.0852  0.0643
 7669W        W23563  14.241  10.662   1.226  0.0235  0.0111 -0.1825
 7670W        W23564  15.521  10.411   5.320 -0.0644  0.2520 -0.1710
 7671W        W23565   0.346  18.410   1.014 -0.0523  0.0759 -0.2497
 7672W        W23566  15.774  11.536   0.073  0.1979 -0.1121  0.3523
 7673W        W23567   8.469   9.884  10.746  0.1923 -0.0493  0.2955
 7674W        W23568  18.948  17.662  10.842  0.0257 -0.0943  0.0585
 7675W        W23569   0.482   9.797   5.005  0.1095  0.3230 -0.0431
 7676W        W23570   4.236   6.829  14.247  0.2999 -0.1057  0.3179
 7677W        W23571  14.488   7.386   3.711 -0.1649  0.1221 -0.0140
 7678W        W23572  12.253  11.069   0.765 -0.1019 -0.3248 -0.5529
 7679W        W23573   0.227  12.160  10.779 -0.1134 -0.2683 -0.0410
 7680W        W23574   2.492  12.877  13.019  0.0831 -0.1889  0.0224
 7681W        W23575   3.466  13.201   2.917  0.0983  0.1961  0.0735
 7682W        W23576   7.768  14.162  12.779 -0.1399  0.0722 -0.0677
 7683W        W23577   9.083  12.563  10.491 -0.0128 -0.0971  0.0004
 7684W        W23578  10.925   8.546  15.019  0.1613 -0.2399 -0.0713
 7685W        W23579  11.004  16.371   3.812 -0.2616 -0.2615 -0.3530
 7686W        W23580   3.944   1.336   3.985  0.0640  0.4771  0.1079
 7687W        W23581  17.153  11.671   5.077  0.1121  0.1186  0.0454
 7688W        W23582  17.711  13.552  11.146 -0.1648 -0.2187  0.1986
 7689W        W23583   0.795   9.891  10.243  0.2559 -0.0056 -0.1018
 7690W        W23584  11.267  15.998  13.348 -0.1702 -0.2916 -0.0502
 7691W        W23585  16.642   9.440   5.509 -0.5171 -0.1628 -0.2019
 7692W        W23586  12.203   2.472   0.357  0.1831 -0.3039  0.1962
 7693W        W23587   0.339   8.423  10.281 -0.2050  0.0671 -0.1981
 7694W        W23588   0.976  18.764   2.341  0.4234 -0.1023 -0.1899
 7695W        W23589   0.107   2.333  13.878  0.3892  0.2067  0.0320
 7696W        W23590   6.583  15.085  13.005  0.0013 -0.0609  0.1416
 7697W        W23591   3.121  18.841   1.563  0.2995 -0.1935 -0.2375
 7698W        W23592  12.234  17.673   1.366  0.2613  0.0034  0.2177
 7699W        W23593   5.004   0.758   9.845  0.1695 -0.2350  0.1421
 7700W        W23594   6.634  17.364   3.089  0.0821  0.1584 -0.1267
 7701W        W23595  15.572  13.775   0.056  0.1548 -0.2241  0.2375
 7702W        W23596   4.711   2.638  14.034 -0.5869  0.1382  0.2013
 7703W        W23597   9.059   2.262  11.687  0.0622  0.0483  0.2738
 7704W        W23598   7.634  17.180   1.480 -0.1050  0.0797 -0.1330
 7705W        W23599   5.257   3.593  10.811 -0.0317 -0.0054  0.3893
 7706W        W23600   5.462   6.560   5.682 -0.2471 -0.0483 -0.0615
 7707W        W23601   5.853   9.850  13.858 -0.1365  0.1400 -0.0855
 7708W        W23602  12.762  16.180  14.362 -0.2382  0.1559  0.1952
 7709W        W23603   7.574   7.075   9.812  0.0969  0.3514 -0.1406
 7710W        W23604  12.999  15.768  14.463  0.2878  0.4648  0.0167
 7711W        W23605   6.616  12.392  13.898 -0.1322 -0.2178 -0.2798
 7712W        W23606   1.148   7.731  14.548  0.0786 -0.0481  0.2757
 7713W        W23607  18.203  13.456  11.070 -0.3908  0.0883  0.1177
 7714W        W23608  14.452  14.808   2.531  0.1088 -0.0239 -0.2757
 7715W        W23609  15.272  14.220   3.691 -0.5031  0.0649  0.2887
 7716W        W23610   1.748  17.729  11.944 -0.3887 -0.0510 -0.1758
 7717W        W23611   3.160  15.687   0.940  0.1276  0.1577  0.2607
 7718W        W23612   3.688   6.260   4.077  0.2453  0.0577 -0.2545
 7719W        W23613  11.606  18.643  12.310  0.2033 -0.0509  0.2210
 7720W        W23614  13.799   2.321   2.903  0.1441  0.0219 -0.2914
 7721W        W23615   0.543   4.802   0.403 -0.1096  0.0251 -0.1662
 7722W        W23616  14.203   4.093   5.357 -0.0875  0.0038  0.3008
 7723W        W23617  12.804  14.962   2.598  0.1628 -0.0564  0.0432
 7724W        W23618  10.971   6.229  15.020  0.0287 -0.0598  0.0705
 7725W        W23619   1.396   4.406  14.825 -0.2632  0.3243 -0.1834
 7726W        W23620  17.837   9.202   1.467 -0.0558  0.0902  0.2800
 7727W        W23621   6.025   0.044   1.153  0.1924  0.1028 -0.1532
 7728W        W23622   2.276   9.025   3.131 -0.1392 -0.2380 -0.0402
 7729W        W23623   8.430  16.187  13.531  0.1200  0.0511 -0.0233
 7730W        W23624  14.484   5.448   3.791  0.0471  0.0251 -0.4235
 7731W        W23625   3.797   6.298  13.111 -0.5229 -0.0111 -0.3841
 7732W        W23626  11.410   7.949   3.687  0.0384 -0.2050 -0.0759
 7733W        W23627  14.160   0.605   0.629  0.0016  0.0225 -0.1250
 7734W        W23628   2.484  12.311  13.908 -0.0298  0.0044  0.1157
 7735W        W23629  14.591  12.156   0.075 -0.3637  0.0817 -0.1797
 7736W        W23630  16.306   6.741  12.247 -0.0051 -0.4375 -0.0583
 7737W        W23631   9.127  18.957   4.646  0.1405  0.3733 -0.0411
 7738W        W23632   7.429   6.652   2.694 -0.0419  0.3656  0.2305
 7739W        W23633  12.505   5.450   0.630 -0.1166 -0.0141  0.1912
 7740W        W23634  10.291  15.205   1.758  0.0719 -0.1150  0.0431
 7741W        W23635   3.117   2.652   4.305 -0.2337 -0.1807  0.1832
 7742W        W23636   1.095  17.311   1.871  0.6753  0.0556  0.2119
 7743W        W23637   2.622  10.895   2.272 -0.1334 -0.0299 -0.0306
 7744W        W23638  12.864   4.164  14.713  0.0313 -0.1840 -0.2351
 7745W        W23639  10.159   0.332  14.842 -0.1576 -0.0234  0.0381
 7746W        W23640  17.635  13.126   0.776  0.1442  0.0119  0.3275
 7747W        W23641  19.158   6.219  15.113 -0.2680  0.2146 -0.3366
 7748W        W23642   4.909   5.874  13.766 -0.0996 -0.4460 -0.4075
 7749W        W23643   8.960  11.182  12.827  0.2144 -0.1678 -0.1531
 7750W        W23644  10.524   2.499   1.971  0.0345  0.0447  0.2761
 7751W        W23645   6.324  12.456  11.475 -0.2876  0.0341  0.1768
 7752W        W23646   7.487  18.152  11.862 -0.1089 -0.1771 -0.1249
 7753W        W23647   7.955   5.567   5.537 -0.0955  0.2348 -0.0426
 7754W        W23648  16.532  18.309  11.119  0.1962 -0.0250 -0.0388
 7755W        W23649   3.087  16.876  11.950  0.1796  0.0399 -0.1523
 7756W        W23650   2.240   6.581   2.400  0.0574  0.0230  0.3208
 7757W        W23651  10.102   6.610   2.166  0.1612  0.0350 -0.2383
 7758W        W23652  10.000  17.053   1.871  0.0710 -0.1551 -0.1625
 7759W        W23653   9.402   9.856  10.975 -0.0182  0.2349  0.3869
 7760W        W23654   0.457   2.853   0.624 -0.3911 -0.3476  0.1971
 7761W        W23655   4.634  11.667  12.152 -0.0893 -0.0513 -0.1106
 7762W        W23656  12.190   0.012  11.740 -0.2550 -0.1352  0.0145
 7763W        W23657  17.504  14.121   1.962  0.1939 -0.0245 -0.0430
 7764W        W23658  16.193  10.725   5.240  0.1799  0.2107 -0.1248
 7765W        W23659   6.428   2.335  10.057  0.1640 -0.4154 -0.2302
 7766W        W23660  14.447  15.806   0.968  0.0523  0.0770  0.1403
 7767W        W23661   0.513   1.313  14.626 -0.1144  0.3763 -0.1253
 7768W        W23662  15.494  15.741  11.788 -0.0896  0.0541  0.0994
 7769W        W23663   1.230   6.799   4.241 -0.0100  0.0925 -0.1279
 7770W        W23664  10.082  17.516   4.001 -0.1165  0.3650 -0.0925
 7771W        W23665  14.658  17.237   1.378 -0.0233  0.1777  0.1133
 7772W        W23666   2.132  14.287  14.088 -0.2017 -0.0274 -0.1301
 7773W        W23667  12.004  16.834  14.149  0.4259  0.1424  0.1396
 7774W        W23668   9.156  13.592  14.720 -0.3730  0.1432 -0.0816
 7775W        W23669   5.098   0.974   0.259 -0.1969 -0.1148  0.0554
 7776W        W23670  10.815   9.238  11.128 -0.3079 -0.0444 -0.2465
 7777W        W23671   7.754  16.904   2.224 -0.0161  0.1193 -0.0756
 7778W        W23672   0.612  12.898  14.701 -0.2964 -0.1936 -0.4381
 7779W        W23673  13.679   0.566  10.008  0.1630  0.0488  0.1025
 7780W        W23674   9.116  19.161   3.904  0.4641 -0.1664 -0.0903
 7781W        W23675   2.277  13.593  14.298 -0.1753 -0.2326  0.1139
 7782W        W23676  17.931   1.934   0.973  0.2525  0.1734 -0.1239
 7783W        W23677   8.268   1.872  13.488  0.0989 -0.3679  0.1264
 7784W        W23678   7.965  15.659  13.156  0.3194 -0.1220 -0.1637
 7785W        W23679  11.174   3.093   3.523  0.1296 -0.2132  0.0435
 7786W        W23680   7.653  18.574  13.812 -0.0185  0.1397  0.0387
 7787W        W23681   1.485  13.680  11.723  0.1712 -0.0905  0.3921
 7788W        W23682  13.272  10.434  13.827  0.1055  0.2578  0.2658
 7789W        W23683   8.287  11.231   9.539  0.0367 -0.0368 -0.0904
 7790W        W23684   2.289  13.424  10.514 -0.1702  0.0405  0.1127
 7791W        W23685  18.546  17.356  11.038 -0.0898 -0.3070  0.0593
 7792W        W23686  13.083   6.697   3.454  0.2455 -0.0002  0.1097
 7793W        W23687  12.274  17.134  14.504 -0.4153  0.1532  0.3833
 7794W        W23688  14.110   8.096   2.782 -0.1163 -0.0971 -0.0747
 7795W        W23689  18.118  11.853  14.256 -0.2361 -0.0871  0.0264
 7796W        W23690   8.236  17.451   1.024  0.1289  0.0071 -0.0147
 7797W        W23691  11.189  10.505   5.422 -0.1243 -0.1061  0.1767
 7798W        W23692  17.722  14.529   1.090 -0.2904  0.0313  0.2222
 7799W        W23693   2.266   6.194   0.904  0.0074  0.1748 -0.1733
 7800W        W23694   1.026   9.568  11.078 -0.1766  0.0898 -0.0390
 7801W        W23695  15.979  12.591   3.180 -0.0291  0.0656 -0.1862
 7802W        W23696  15.658  18.213   0.031 -0.1552  0.1198 -0.2460
 7803W        W23697  18.043  17.189   3.536 -0.1819 -0.0298  0.2751
 7804W        W23698   7.625   8.366   3.641 -0.0148  0.0167  0.0968
 7805W        W23699  13.160   1.618  12.426 -0.2039 -0.0544 -0.1387
 7806W        W23700   9.573  17.307  10.226  0.0225  0.2410  0.0258
 7807W        W23701  18.995   4.916   4.188 -0.2894  0.0203 -0.1511
 7808W        W23702   8.728  17.023   5.457 -0.3692  0.2228  0.0135
 7809W        W23703   8.122   4.848  11.121  0.2735 -0.3124  0.0633
 7810W        W23704  15.661  11.325  14.129  0.0398  0.1455  0.0536
 7811W        W23705  10.691  16.931  14.795  0.4908 -0.0327  0.1000
 7812W        W23706  11.612   0.966  13.338  0.0501  0.0515  0.0159
 7813W        W23707   4.309  13.552  11.964  0.1681 -0.0362 -0.1761
 7814W        W23708  11.950  10.530  11.940  0.0768  0.1269  0.2216
 7815W        W23709  17.335  12.874  11.548 -0.0182  0.0535  0.2486
 7816W        W23710  14.426   8.167   4.649 -0.1776  0.2394 -0.4180
 7817W        W23711   2.664  12.122   1.131 -0.1115 -0.1333 -0.1650
 7818W        W23712  15.606  19.121  12.600 -0.1154 -0.1281  0.0823
 7819W        W23713  10.454  11.166  13.162  0.0406 -0.4444 -0.2099
 7820W        W23714   9.603   5.049  14.695 -0.3438  0.1358  0.3790
 7821W        W23715  17.486  12.486  11.916  0.1014  0.1926  0.0862
 7822W        W23716   0.237  13.587   2.964 -0.0243  0.1348  0.1268
 7823W        W23717  15.103  17.837   0.705 -0.0474  0.3168 -0.1827
 7824W        W23718  16.996   3.508   1.730 -0.0968  0.0340 -0.0458
 7825W        W23719  13.467   3.300  10.852  0.0761 -0.4452  0.0354
 7826W        W23720  15.490  11.375   3.768 -0.0249  0.2318  0.0024
 7827W        W23721   9.977   4.932   2.654 -0.0571  0.0280  0.0361
 7828W        W23722   1.253  15.411  13.560 -0.0683 -0.1314  0.1756
 7829W        W23723  18.918  11.268  14.231  0.3369  0.3449 -0.0594
 7830W        W23724   2.143   8.297   1.431 -0.0885  0.0842 -0.2337
 7831W        W23725  13.140   2.667   3.994  0.1663  0.3999 -0.0620
 7832W        W23726  18.534  17.039   5.924 -0.2220 -0.1240 -0.0888
 7833W        W23727  15.512  17.483  12.025  0.1627  0.0589  0.0019
 7834W        W23728   9.626   3.819   5.761 -0.0896  0.2874  0.0111
 7835W        W23729   8.562   3.789   2.777 -0.1451  0.0464  0.1018
 7836W        W23730   9.971  10.044   1.457  0.0182  0.0298  0.1112
 7837W        W23731  11.218  14.632  14.896  0.1392 -0.0533 -0.0547
 7838W        W23732   4.299  11.880   3.924  0.0382 -0.2000  0.1260
 7839W        W23733  17.103  12.764   2.816 -0.0133 -0.1119 -0.1915
 7840W        W23734  13.536  12.869  14.283 -0.5179  0.1390  0.1401
 7841W        W23735   6.889   2.288  12.454  0.2142  0.3996  0.0257
 7842W        W23736   0.559   3.203  13.469  0.1994  0.1763  0.2619
 7843W        W23737  13.013  17.802  13.736  0.1509 -0.1069  0.0173
 7844W        W23738   1.337   6.254   3.362  0.1290  0.5289 -0.1709
 7845W        W23739   1.172  19.078   4.270 -0.4065  0.1246 -0.2328
 7846W        W23740  17.600   6.289   1.374 -0.0951  0.1769 -0.3676
 7847W        W23741  11.022   8.166   4.596 -0.3984  0.2961  0.0540
 7848W        W23742   1.065  17.240   3.865 -0.3080  0.1128 -0.1240
 7849W        W23743   4.656   8.572   3.892 -0.0592  0.0132 -0.1761
 7850W        W23744  11.340   6.772   1.433 -0.0589 -0.1243 -0.2721
 7851W        W23745   9.038  17.500   4.032 -0.2393  0.1258  0.0718
 7852W        W23746   5.022  10.753  14.279 -0.0926  0.0257 -0.1075
 7853W        W23747  14.011   7.432   2.094  0.3907  0.4766  0.1958
 7854W        W23748   7.160   9.847  12.584  0.1677  0.0020 -0.0926
 7855W        W23749   8.393   2.913   0.591  0.0897  0.1482 -0.2926
 7856W        W23750  10.602   6.934  11.928 -0.3772 -0.1602  0.0058
 7857W        W23751  15.753   8.528   3.484 -0.0666 -0.0420 -0.1429
 7858W        W23752  16.536  14.884  13.700  0.0643 -0.0114 -0.0816
 7859W        W23753   9.288   6.484   2.494  0.0826  0.0878 -0.0351
 7860W        W23754  17.640   5.007   2.278 -0.4109  0.1529  0.2794
 7861W        W23755   1.781   9.176   3.363  0.0605 -0.0709  0.3067
 7862W        W23756   0.916   3.897  14.453 -0.0666 -0.0000  0.2518
 7863W        W23757   0.596  18.809   1.412  0.0693  0.3589  0.1511
 7864W        W23758  14.820  14.914  14.897  0.1343 -0.1101 -0.0071
 7865W        W23759   2.542   1.888  13.644  0.0522 -0.1717 -0.0151
 7866W        W23760   9.631   8.837   1.812  0.1131 -0.0769 -0.1092
 7867W        W23761   7.994   5.086  14.728 -0.0108  0.2479  0.0268
 7868W        W23762  10.283  10.917   3.968  0.0644 -0.0099 -0.1035
 7869W        W23763  13.990  10.162   2.747 -0.3269 -0.0562  0.3524
 7870W        W23764  13.203   6.305  14.207  0.1872 -0.2160  0.0520
 7871W        W23765   3.739   0.842  13.855  0.0378 -0.1853 -0.0093
 7872W        W23766   0.828   8.324  14.418 -0.0087  0.0097  0.0147
 7873W        W23767   2.857   1.980  13.237 -0.2473 -0.4423  0.2876
 7874W        W23768   5.895   8.695   3.286 -0.2582  0.3070  0.1892
 7875W        W23769   3.737  11.041   0.126  0.2544  0.2568 -0.0683
 7876W        W23770   8.975   9.565   2.132  0.0303  0.0594  0.1249
 7877W        W23771   7.259   0.929   2.604  0.2279 -0.0133 -0.0516
 7878W        W23772   0.036  15.239  12.943 -0.1412 -0.1271  0.2969
 7879W        W23773   3.292   0.026   0.658 -0.1552 -0.1017  0.1369
 7880W        W23774  12.447   2.746  10.434 -0.2489 -0.0973  0.2015
 7881W        W23775   3.768  14.339   5.710 -0.0028 -0.0186  0.3236
 7882W        W23776   7.030  15.229  11.249 -0.2336  0.1419 -0.0396
 7883W        W23777  12.858   5.969  14.338  0.3441 -0.0815  0.2499
 7884W        W23778   4.552  10.036  13.051  0.0466  0.1310 -0.2426
 7885W        W23779   8.177   2.845  13.375 -0.0957  0.1637 -0.0651
 7886W        W23780  12.765  16.913   4.302  0.1744  0.2200  0.1212
 7887W        W23781   7.540   6.701  12.229  0.1918 -0.0576 -0.3373
 7888W        W23782   5.706   6.340   5.013 -0.0526  0.1180  0.1888
 7889W        W23783   4.527   6.521  12.211  0.0603  0.1366  0.0156
 7890W        W23784  12.417  12.894   2.065  0.0080 -0.0684 -0.1221
 7891W        W23785  10.107  10.398  14.995 -0.4933 -0.0229 -0.0548
 7892W        W23786   0.697   7.924   1.384 -0.3464  0.1486 -0.2236
 7893W        W23787   8.649  17.164   1.128  0.0769  0.0435  0.0125
 7894W        W23788  14.543  14.666  11.390 -0.0269  0.0613  0.1129
 7895W        W23789   7.775   4.317  14.225  0.1606 -0.1545 -0.4297
 7896W        W23790   5.589  11.228   5.419  0.0693  0.3372 -0.0724
 7897W        W23791   6.200   5.271   4.808  0.4345  0.1941  0.0175
 7898W        W23792   4.680  12.937  13.499 -0.0057 -0.0481 -0.1286
 7899W        W23793   0.940   6.271   3.847  0.1210 -0.2393 -0.0443
 7900W        W23794   8.226   8.979  11.686 -0.1880 -0.0948 -0.0647
 7901W        W23795  11.901  15.299  14.919  0.3261 -0.1202  0.3720
 7902W        W23796   1.112  17.464  12.436  0.0010 -0.0833  0.0896
 7903W        W23797  15.914   4.051   1.016  0.1710  0.1170  0.3368
 7904W        W23798   4.071   8.638  13.894  0.1301  0.2946  0.0264
 7905W        W23799  16.735  14.636  11.148 -0.2082  0.1709  0.0079
 7906W        W23800   9.417   9.896  12.378  0.0443  0.2335  0.0388
 7907W        W23801  17.393  17.751   0.514  0.1641  0.4600 -0.1535
 7908W        W23802   9.053  12.364  15.115 -0.0169 -0.1579  0.2418
 7909W        W23803  12.659  11.810   3.647 -0.3311  0.0064  0.0811
 7910W        W23804   8.358   6.610   2.916  0.2165  0.2536  0.1538
 7911W        W23805   7.313   9.350  11.429  0.1069  0.1285  0.2262
 7912W        W23806  13.340  14.851  10.595  0.1987 -0.1747 -0.2182
 7913W        W23807   8.561   3.812   3.657 -0.2160 -0.1548  0.2378
 7914W        W23808   7.455   0.215  10.399  0.2496 -0.0835  0.0500
 7915W        W23809  12.536   0.780   5.514 -0.1612 -0.0986 -0.1190
 7916W        W23810  14.215  18.898  13.796  0.0861 -0.2158 -0.0667
 7917W        W23811   5.675   2.666  14.634 -0.0935 -0.2089  0.1581
 7918W        W23812  18.680   5.302  10.859 -0.1084 -0.0114  0.2606
 7919W        W23813   5.262   6.700  14.905  0.1512 -0.0020  0.1022
 7920W        W23814  14.823   0.592  12.101  0.2439  0.0734  0.1048
 7921W        W23815  15.628  11.966  11.936 -0.2363  0.2145 -0.0398
 7922W        W23816  15.770   5.751   3.650 -0.1080  0.0043 -0.0281
 7923W        W23817  10.299   0.843  15.079 -0.1179  0.4709 -0.0161
 7924W        W23818  10.593   9.633  15.018 -0.0750  0.2724  0.0675
 7925W        W23819   8.756   3.398   4.075  0.2304 -0.1315 -0.3347
 7926W        W23820  15.284   2.599  14.027  0.0664 -0.1740  0.0270
 7927W        W23821   0.196  18.682  14.921  0.1061  0.0659 -0.0351
 7928W        W23822   7.755   8.878  14.642  0.3952  0.3352  0.2405
 7929W        W23823  12.293   7.935   0.341 -0.0028  0.5114 -0.0533
 7930W        W23824  15.996  11.480  13.023 -0.0125  0.1696  0.2748
 7931W        W23825  15.077   5.519   1.421 -0.0794  0.2548  0.1819
 7932W        W23826  12.790   4.553   5.019 -0.2078  0.0929  0.0505
 7933W        W23827  13.901   9.330   2.267  0.2630 -0.2553 -0.3931
 7934W        W23828   7.884  16.969   2.916  0.2594  0.2304 -0.0750
 7935W        W23829  11.377  13.826   4.359  0.0437  0.0076  0.0376
 7936W        W23830  14.566   1.578   1.684  0.3860 -0.2196 -0.0833
 7937W        W23831  16.406  18.913  13.357  0.0579 -0.0042  0.0499
 7938W        W23832  13.207  17.959   5.144 -0.1372  0.2704 -0.1987
 7939W        W23833   8.370  12.610   3.511 -0.1509 -0.1341  0.1583
 7940W        W23834   8.791  12.886   4.466  0.0457 -0.0961 -0.0130
 7941W        W23835  16.315   8.207  10.737 -0.0040 -0.1089  0.1990
 7942W        W23836   3.949   2.457  11.616  0.3871  0.0947  0.3047
 7943W        W23837   6.424  11.832   5.305 -0.3886 -0.0615 -0.0958
 7944W        W23838   6.804   9.391   2.873  0.2039 -0.1232 -0.1187
 7945W        W23839   2.759   7.312  12.305  0.5172  0.0179  0.2417
 7946W        W23840   1.105  11.835   3.324 -0.3683  0.0199  0.2414
 7947W        W23841   8.567  16.637  10.926 -0.2907  0.1494 -0.2429
 7948W        W23842  15.208  17.312  14.332  0.1237 -0.1319  0.4067
 7949W        W23843   0.431  17.812  14.402 -0.2559  0.0118 -0.1306
 7950W        W23844   6.738   6.294  14.107  0.2284  0.1194  0.2011
 7951W        W23845   1.014  15.619  14.245  0.1043  0.0051  0.1038
 7952W        W23846  14.414   3.751  11.783 -0.1310  0.2966  0.1033
 7953W        W23847  10.099  16.194  11.670 -0.0484 -0.3333 -0.0560
 7954W        W23848   4.021   9.276  14.402 -0.0092 -0.2130  0.2331
 7955W        W23849  15.097  12.907  10.649  0.0567 -0.4419 -0.0027
 7956W        W23850   8.419  18.389   3.098  0.0357  0.0285 -0.0211
 7957W        W23851   1.915  18.229  14.510 -0.0410  0.0313  0.1848
 7958W        W23852   2.282   2.183   3.090  0.3649 -0.1283 -0.1622
 7959W        W23853   5.047  18.420   9.228 -0.1453 -0.1485 -0.2318
 7960W        W23854   0.878  14.871   0.517 -0.2704 -0.0185 -0.2318
 7961W        W23855  17.793  13.625   1.388 -0.0255  0.1564  0.1688
 7962W        W23856   3.902   4.308   1.420  0.2975 -0.3425  0.0450
 7963W        W23857  15.759   9.209   2.904 -0.2601 -0.1348  0.0612
 7964W        W23858  17.195   5.998  12.974 -0.0558 -0.1057  0.1241
 7965W        W23859  12.485   9.360  13.422  0.2012 -0.1598  0.0556
 7966W        W23860   4.578  12.512   3.145 -0.1193 -0.3182  0.2875
 7967W        W23861  19.177   1.441  11.088  0.0078  0.1629  0.1396
 7968W        W23862   6.640   8.570   2.524  0.1656 -0.0344  0.0851
 7969W        W23863  16.295   2.184  13.752 -0.0909 -0.0384  0.0564
 7970W        W23864  10.737  10.256  14.459 -0.0538 -0.1475 -0.0171
 7971W        W23865  13.393  14.861   3.981  0.2494 -0.1936 -0.1410
 7972W        W23866  16.133   1.795   1.735  0.1207  0.1287 -0.2114
 7973W        W23867  16.934  11.508   4.260  0.2745 -0.0794  0.2815
 7974W        W23868   9.055   1.738   0.204 -0.3590 -0.1318 -0.0025
 7975W        W23869   6.079  14.391   4.248  0.0441 -0.2449 -0.0553
 7976W        W23870   0.159   0.323  11.611  0.1712 -0.1452 -0.0286
 7977W        W23871  18.946  16.561  15.060  0.0319 -0.3068 -0.1664
 7978W        W23872  10.403  10.627   4.420  0.3661 -0.5165  0.2528
 7979W        W23873  18.981   3.282   4.841  0.1329  0.0703 -0.5701
 7980W        W23874   3.090  17.366   3.131 -0.2617  0.0244  0.1990
 7981W        W23875   2.870  13.371   1.542  0.1896 -0.1622 -0.3331
 7982W        W23876   7.992   5.994  10.094  0.2289 -0.1182  0.1438
 7983W        W23877  16.504   2.426  12.742  0.1009  0.3622 -0.1487
 7984W        W23878   5.263   0.659   1.481 -0.0557  0.1484 -0.0016
 7985W        W23879   1.272  15.918  13.388  0.0231  0.4277  0.2687
 7986W        W23880  12.108   7.752   1.848 -0.1305  0.1750 -0.0062
 7987W        W23881  11.175  12.153   0.507  0.1411 -0.1252  0.2266
 7988W        W23882   2.669   5.297   4.522  0.1669 -0.0464 -0.0636
 7989W        W23883   3.384   8.588  13.189  0.1834 -0.1721  0.3245
 7990W        W23884   9.146   7.250   0.116  0.2390 -0.1188  0.1662
 7991W        W23885  14.890   0.730   4.905  0.0891 -0.3216  0.3178
 7992W        W23886   2.473   0.236  13.363 -0.2487 -0.2776  0.2640
 7993W        W23887   4.276   6.234   1.096 -0.2679 -0.1784 -0.1402
 7994W        W23888  17.593  17.664   4.322  0.0068  0.0741 -0.5305
 7995W        W23889  17.075  13.115  12.785  0.0209 -0.1777  0.2619
 7996W        W23890  15.665  16.729   3.561 -0.2785  0.1569  0.0841
 7997W        W23891   2.868   6.132  12.094 -0.0890  0.1494  0.1246
 7998W        W23892   3.957   5.080  13.637  0.0559  0.1247  0.0143
 7999W        W23893   8.613  10.226   4.947 -0.0800 -0.1796 -0.0320
 8000W        W23894   9.697   8.608  10.580  0.5303 -0.0986  0.3131
 8001W        W23895  12.010   6.840   4.340 -0.2871 -0.0594 -0.0564
 8002W        W23896  15.844   7.484   4.526 -0.4785 -0.2015 -0.2295
 8003W        W23897  16.145  17.716   2.043 -0.0766 -0.0150  0.0084
 8004W        W23898  15.321  13.331  12.345 -0.1863 -0.0831  0.0594
 8005W        W23899  11.006  11.665   5.157 -0.2575 -0.0190  0.0761
 8006W        W23900  13.055   8.024  14.989 -0.3391 -0.4749 -0.1967
 8007W        W23901  13.676   7.015   1.386 -0.0878  0.3701  0.0657
 8008W        W23902   8.847   1.514   4.411 -0.1578  0.1674 -0.3700
 8009W        W23903  17.690  10.872   0.650  0.2090 -0.1955  0.2823
 8010W        W23904  13.149   0.844  11.995  0.1962 -0.1512 -0.2490
 8011W        W23905   0.375   6.668  11.367  0.0431 -0.1926 -0.0158
 8012W        W23906  13.063  13.996   0.515 -0.1169 -0.0703 -0.2728
 8013W        W23907  10.797  14.476   5.563 -0.2744  0.2139  0.2277
 8014W        W23908  12.697  16.222  12.334  0.2002 -0.4466 -0.2196
 8015W        W23909   3.127   1.987  10.178 -0.1329 -0.0637 -0.2752
 8016W        W23910   2.387  18.356  11.547  0.2361 -0.2450  0.2756
 8017W        W23911  17.020  12.772   4.564  0.0734  0.3511  0.2660
 8018W        W23912   4.268  12.529  10.990 -0.0583 -0.2753 -0.2131
 8019W        W23913   6.605  12.555  13.413 -0.1863 -0.3584 -0.0135
 8020W        W23914  18.619  19.093  14.964  0.0417  0.0430 -0.1123
 8021W        W23915  18.168  13.203   0.952 -0.0557  0.0559  0.1664
 8022W        W23916   7.776   5.427  15.102 -0.3587  0.0968 -0.1864
 8023W        W23917  10.234   1.672  13.226  0.2506 -0.0397  0.4706
 8024W        W23918  10.102   9.078   3.009 -0.3408  0.0182 -0.2665
 8025W        W23919   8.143  11.736   2.033 -0.3925  0.0662  0.0601
 8026W        W23920  17.722  17.921  12.279  0.1955  0.2366  0.1474
 8027W        W23921  14.761   6.692   5.434  0.0666  0.1967 -0.0293
 8028W        W23922  18.072   0.953  11.138 -0.2955 -0.1404 -0.1039
 8029W        W23923   5.027   4.775   1.324  0.3315 -0.3594  0.2834
 8030W        W23924   9.103  15.965   0.736  0.1142 -0.2284  0.2091
 8031W        W23925  10.097   0.432  13.669  0.2990  0.1532  0.1594
 8032W        W23926   3.101  12.464   0.814 -0.3651  0.1173 -0.1605
 8033W        W23927  16.598   2.667   0.507  0.0632 -0.2458 -0.3405
 8034W        W23928   2.100  18.199  12.710  0.0744 -0.0329  0.1278
 8035W        W23929   8.567  12.924  10.438  0.1190 -0.1736  0.0391
 8036W        W23930   2.420  14.543   2.940 -0.0138  0.1839  0.1897
 8037W        W23931  11.243  16.002  15.010  0.1204 -0.4127 -0.0220
 8038W        W23932  12.302   4.369   2.904  0.1105 -0.3835 -0.3008
 8039W        W23933  10.923  15.891  11.841  0.2271 -0.0070  0.2770
 8040W        W23934  14.266   1.486  14.426 -0.1593  0.1591 -0.0094
 8041W        W23935  15.956  19.152  14.721 -0.2098 -0.1349  0.0721
 8042W        W23936  14.600  12.254   3.048  0.0340  0.1705  0.0355
 8043W        W23937   4.746  19.056   2.612  0.1256  0.1724  0.0160
 8044W        W23938   6.066   3.610  11.308  0.0693 -0.1273 -0.0206
 8045W        W23939  11.100  17.930   0.649  0.1151  0.4344  0.0651
 8046W        W23940   3.247   7.895   4.403 -0.0378  0.2060  0.0220
 8047W        W23941   4.336   8.420   0.081 -0.3106 -0.3657  0.0119
 8048W        W23942   7.586  14.979  14.655 -0.0456  0.2519  0.1460
 8049W        W23943   7.397   6.302   4.087  0.2987  0.0567 -0.1387
 8050W        W23944   1.576  17.123   4.799 -0.3563 -0.1063  0.2964
 8051W        W23945   0.495   1.532  11.024 -0.1719 -0.1411  0.0523
 8052W        W23946   3.491   9.068   0.180 -0.2601 -0.1598 -0.0817
 8053W        W23947   1.229   9.256  13.712 -0.2395 -0.1400 -0.0442
 8054W        W23948   8.893   1.132  14.725 -0.4598 -0.0891  0.1248
 8055W        W23949  15.240  18.077   2.992  0.1469  0.0269  0.1341
 8056W        W23950  14.427  10.625  14.062 -0.1104 -0.2138 -0.0906
 8057W        W23951   5.388  11.841  12.631 -0.2132  0.3893  0.3985
 8058W        W23952  15.363   3.273   1.113 -0.0535  0.1974 -0.0932
 8059W        W23953   8.789  14.183  12.533 -0.0789  0.0019 -0.3038
 8060W        W23954  11.295  18.183   1.743  0.1059  0.1334  0.4352
 8061W        W23955  18.994   1.164  10.370  0.2676  0.0537  0.0335
 8062W        W23956  16.337   1.472   0.113 -0.0095  0.1536  0.2040
 8063W        W23957  14.621   9.930   0.062 -0.1895  0.1892  0.1749
 8064W        W23958   1.184  14.036   3.194  0.1285 -0.2202  0.0243
 8065W        W23959  13.761  17.980  10.568  0.1602  0.2369 -0.1492
 8066W        W23960  18.639   4.058   5.454  0.2168 -0.1971  0.0239
 8067W        W23961  16.097  19.064   2.327 -0.1434  0.0729  0.1635
 8068W        W23962   5.224   5.096  14.833  0.0780  0.1520 -0.0511
 8069W        W23963   6.161  11.652  13.490 -0.0160 -0.0155 -0.0941
 8070W        W23964  18.658   4.304   4.424  0.3088 -0.0915 -0.3381
 8071W        W23965  12.848  17.159   0.749 -0.2923 -0.1368  0.5933
 8072W        W23966   6.477   7.029   1.521 -0.0712  0.2965  0.2247
 8073W        W23967  13.877   2.656  13.184  0.0402  0.0461 -0.1790
 8074W        W23968   7.754  13.008   3.502 -0.0346 -0.0590  0.0154
 8075W        W23969  16.246   6.031   1.603 -0.0052 -0.2309  0.0180
 8076W        W23970   8.074   1.269   2.440  0.1525  0.1994  0.1736
 8077W        W23971  16.005  13.195  10.739 -0.1048 -0.0324  0.0039
 8078W        W23972  12.555  16.162   3.341  0.3567 -0.2915 -0.0340
 8079W        W23973  15.053   9.309   5.198 -0.2140 -0.2263 -0.1263
 8080W        W23974   0.548   9.599  14.466  0.1752  0.0902 -0.0705
 8081W        W23975   2.691   2.536   2.635 -0.0438  0.1201 -0.0773
 8082W        W23976   0.787  13.913   9.497 -0.0107  0.1774  0.2637
 8083W        W23977  13.406  15.442  10.181  0.0025  0.2726 -0.0914
 8084W        W23978   8.560   5.031   5.081  0.0700 -0.0041  0.1200
 8085W        W23979  15.728   6.720   0.322 -0.0499  0.3927  0.1657
 8086W        W23980  15.815   2.960  12.390  0.2091 -0.1547 -0.2041
 8087W        W23981  12.560   2.911  10.882 -0.1722  0.4696 -0.2782
 8088W        W23982   8.171  13.012   5.215 -0.4252  0.0310 -0.3505
 8089W        W23983   6.431   4.074  11.181 -0.0411  0.0987 -0.1358
 8090W        W23984   4.315   2.431   3.937  0.1326  0.0292  0.0385
 8091W        W23985  12.436   6.487  12.585  0.1586 -0.0269 -0.0572
 8092W        W23986  12.432   6.162  14.008 -0.2385  0.0642 -0.2955
 8093W        W23987   5.811  15.958  11.222  0.1930 -0.2209  0.0387
 8094W        W23988  13.124  13.229   5.581 -0.3578 -0.2761 -0.2061
 8095W        W23989   4.021   4.408  12.904 -0.1228  0.2599 -0.0529
 8096W        W23990   7.413  19.094   4.330 -0.1023 -0.0864 -0.3912
 8097W        W23991  18.986  14.666   3.880  0.0730  0.1156  0.0709
 8098W        W23992   3.486   4.432  12.856 -0.0781  0.0280  0.1027
 8099W        W23993  13.680  10.733  14.599  0.2557 -0.0126 -0.1392
 8100W        W23994  10.220  14.226  13.528 -0.0157 -0.1686 -0.2249
 8101W        W23995  14.390   5.261   0.218  0.1900 -0.0181  0.2885
 8102W        W23996  10.582   3.239  11.982 -0.0058 -0.0688 -0.1643
 8103W        W23997  13.610   7.211   0.533 -0.0040 -0.1850 -0.1863
 8104W        W23998   1.003   9.041   4.776  0.0202  0.2461 -0.1891
 8105W        W23999   4.203   4.613  13.320  0.2317 -0.1629  0.0102
 8106W        W24000   9.784   7.812  14.879  0.0947 -0.1089  0.2350
 8107W        W24001  18.518   8.434   3.087  0.1530  0.1150  0.2389
 8108W        W24002  17.412   7.338  12.092 -0.0724 -0.5029 -0.0696
 8109W        W24003   6.067   9.831   2.559 -0.7113  0.2984  0.0825
 8110W        W24004  11.320  12.020   1.036  0.0829 -0.0683  0.1264
 8111W        W24005   0.226  14.046   3.281 -0.3115 -0.0412 -0.0426
 8112W        W24006  17.361  14.389   5.276 -0.0454  0.0148  0.2306
 8113W        W24007   7.570  14.967   1.401  0.2407 -0.2456 -0.1171
 8114W        W24008   3.276   9.625   2.928  0.0109 -0.2170  0.1590
 8115W        W24009   3.785  15.883  14.673  0.1510  0.0916  0.2663
 8116W        W24010   7.109  17.436  14.482 -0.1807 -0.2034  0.1417
 8117W        W24011  17.914   7.524   1.465  0.1074  0.3140 -0.3001
 8118W        W24012   8.053   4.554   1.343 -0.1355  0.2380  0.1770
 8119W        W24013   2.230   5.696   1.969 -0.1493 -0.0618 -0.2274
 8120W        W24014  17.940  10.151  10.437  0.2909 -0.1246  0.1329
 8121W        W24015   4.420   4.408   3.737 -0.0915 -0.2300  0.2146
 8122W        W24016  10.103   1.222  14.864 -0.1564 -0.1475  0.0638
 8123W        W24017   8.037   4.721   4.745 -0.2492  0.4286  0.0602
 8124W        W24018   9.016  17.521  10.183  0.0819  0.1054  0.0774
 8125W        W24019   6.751  17.608   4.966 -0.2675  0.0503 -0.0726
 8126W        W24020   7.950   0.219   3.356 -0.5044 -0.0431  0.1084
 8127W        W24021   7.127   3.464  12.585 -0.1935 -0.2056 -0.2551
 8128W        W24022  15.330  14.733   2.786  0.5088 -0.1764  0.0336
 8129W        W24023   3.557  18.865  13.186  0.2836 -0.0591  0.0836
 8130W        W24024  12.763   5.654   1.853  0.1284 -0.1365  0.3040
 8131W        W24025   8.938   9.052  13.453 -0.1879  0.2407 -0.0637
 8132W        W24026  15.496   0.131  13.795 -0.0190 -0.2414 -0.0501
 8133W        W24027   0.788   5.079   4.405  0.0124  0.1548  0.1519
 8134W        W24028  16.541  11.700  10.760  0.2532 -0.2686 -0.1243
 8135W        W24029   6.077   1.566  10.645 -0.0600 -0.1381  0.2123
 8136W        W24030   5.987  14.182   1.213 -0.0259  0.0089  0.0244
 8137W        W24031   2.601   6.353  14.736 -0.3391 -0.4052 -0.2843
 8138W        W24032   6.602   5.476   1.386  0.1301  0.0564 -0.1202
 8139W        W24033   2.346  10.871  11.183 -0.1048 -0.0652  0.0630
 8140W        W24034   2.393   1.588  11.272  0.2363  0.1997 -0.6546
 8141W        W24035  15.522   2.029   6.263 -0.1417 -0.0001  0.0071
 8142W        W24036  10.579   3.306   2.642 -0.4031  0.0225 -0.1847
 8143W        W24037   6.187  13.702   1.411 -0.1857 -0.1866 -0.2837
 8144W        W24038   2.842  18.774  12.968  0.3423  0.1832  0.0867
 8145W        W24039  16.267  11.067  13.415  0.0222  0.0083 -0.0027
 8146W        W24040  18.585  18.370  10.629  0.0402 -0.3836 -0.0950
 8147W        W24041  17.313   9.831  13.477  0.2594 -0.0085 -0.2842
 8148W        W24042   0.180  17.735   4.367 -0.0788 -0.2202  0.0920
 8149W        W24043   1.415   0.779   0.766  0.0224 -0.0367  0.3695
 8150W        W24044   4.196   9.757  14.568  0.0970 -0.0649 -0.0441
 8151W        W24045  18.504   6.823  12.623 -0.0471 -0.0001  0.0061
 8152W        W24046   6.247  11.049   2.084 -0.4138  0.1045 -0.2772
 8153W        W24047   9.996   9.067   9.838 -0.0288 -0.1306 -0.2038
 8154W        W24048   4.411   7.084  13.766  0.2788  0.1518  0.1011
 8155W        W24049  18.224   2.718  14.120 -0.2957 -0.2758 -0.1727
 8156W        W24050  14.533  18.426  13.778  0.2359  0.0912  0.0616
 8157W        W24051   3.880  18.642  12.826 -0.1640  0.1148 -0.2532
 8158W        W24052  14.785   3.026  11.696  0.4789  0.2166  0.3318
 8159W        W24053  14.210   8.455  11.020  0.2628 -0.0189 -0.0257
 8160W        W24054   0.089  11.681  14.439  0.0235 -0.2912  0.0567
 8161W        W24055   0.625   1.231  12.451  0.3206 -0.1295  0.1316
 8162W        W24056   1.804  11.250   3.632  0.1550  0.2215  0.0542
 8163W        W24057   5.339  17.047   3.912 -0.0722 -0.2243 -0.1688
 8164W        W24058   8.112   6.006  11.907 -0.1268 -0.1759  0.1767
 8165W        W24059  10.248   0.291   0.125  0.2106 -0.1350 -0.1032
 8166W        W24060  12.371  13.094   3.094  0.0009  0.0836 -0.1245
 8167W        W24061  18.212  14.371   4.772  0.2518  0.1390  0.2207
 8168W        W24062   3.444   3.201   3.291  0.0387 -0.0122  0.0459
 8169W        W24063   9.717   8.759  12.442 -0.0622  0.2578  0.1497
 8170W        W24064  13.213   3.355   2.611 -0.0944 -0.2706  0.1103
 8171W        W24065  11.686  11.110   0.768  0.4224 -0.1112  0.0956
 8172W        W24066  18.127   6.123   2.063  0.0948 -0.0784  0.4528
 8173W        W24067  18.574  15.462  11.931 -0.0967 -0.1993 -0.0523
 8174W        W24068  12.605   1.580   0.680 -0.2615  0.1705  0.2202
 8175W        W24069   0.209  17.574   1.547 -0.3690 -0.1768  0.0632
 8176W        W24070  14.168  18.236   1.732 -0.0529  0.1467 -0.1010
 8177W        W24071  12.072  18.384  12.327 -0.1740  0.1802 -0.0282
 8178W        W24072  13.243   8.457   1.727 -0.1975  0.1112  0.0771
 8179W        W24073   4.843  17.067   3.851 -0.2145  0.0501 -0.0857
 8180W        W24074  16.444   2.660   2.131 -0.2672  0.2218 -0.0529
 8181W        W24075  11.835  18.619   3.068 -0.5901  0.2998  0.0589
 8182W        W24076   9.243  13.436   0.746  0.0627  0.1340 -0.1088
 8183W        W24077  10.952   8.644   5.775  0.2041  0.6354 -0.0067
 8184W        W24078   8.008  14.215   3.395  0.1676  0.0100 -0.2329
 8185W        W24079   5.771   9.985  12.107  0.1604 -0.0379  0.1045
 8186W        W24080  13.361   3.932   4.969  0.1796  0.0884 -0.1466
 8187W        W24081   9.762  14.458  14.282  0.0127 -0.0113 -0.1727
 8188W        W24082  10.312   4.124  14.910 -0.3050 -0.2193 -0.0102
 8189W        W24083   9.550   9.104   1.357 -0.0174  0.1747  0.2749
 8190W        W24084  10.998  16.919   3.818  0.0543 -0.0922  0.0093
 8191W        W24085   0.441  10.646   4.513 -0.1264  0.0115  0.4001
 8192W        W24086  11.591   8.086   4.649  0.1559  0.1287 -0.0595
 8193W        W24087   3.007   5.314  10.632  0.2111  0.1417 -0.1409
 8194W        W24088  14.225  18.564   3.208  0.0449  0.2444 -0.0134
 8195W        W24089  12.495   0.218   4.744 -0.1779  0.1703 -0.1465
 8196W        W24090  12.964   3.794   6.169  0.0066 -0.0049 -0.2894
 8197W        W24091  17.356  14.629   3.246 -0.0700  0.4288  0.1965
 8198W        W24092   6.251   0.111   5.496 -0.1878  0.1224 -0.0856
 8199W        W24093   8.590  14.962   3.362 -0.0063 -0.0448 -0.0192
 8200W        W24094   9.991   6.362  14.289  0.1453 -0.0540  0.0380
 8201W        W24095   2.794  17.423   1.239 -0.3232  0.1145 -0.0191
 8202W        W24096   2.209  10.465  14.113 -0.2169  0.5399  0.0542
 8203W        W24097  16.023  16.584   4.970 -0.2352  0.0760  0.1284
 8204W        W24098   3.858   5.529  14.359  0.0017 -0.5124  0.2616
 8205W        W24099   3.929  15.559   1.350  0.0779  0.0343 -0.4204
 8206W        W24100  11.089   6.104  14.160 -0.0653  0.0612 -0.0007
 8207W        W24101   3.664   0.077  12.761 -0.2320  0.0651 -0.1360
 8208W        W24102  13.669  17.762   4.152  0.2048 -0.0647 -0.1956
 8209W        W24103   3.785  14.700  12.585  0.0976  0.2041  0.4035
 8210W        W24104  17.955  17.917  13.644  0.0971 -0.2882  0.3866
 8211W        W24105   8.974  13.796  12.200 -0.1681 -0.2513 -0.0974
 8212W        W24106  12.622  16.642   4.848  0.1174 -0.1533 -0.1726
 8213W        W24107   5.893  10.404  14.628 -0.1936  0.3990 -0.1047
 8214W        W24108   9.222   6.468  13.216  0.0821 -0.0419 -0.0080
 8215W        W24109   5.026  13.495   5.274  0.1298 -0.2354 -0.1287
 8216W        W24110   7.993   4.198  11.332 -0.1141 -0.3742  0.1115
 8217W        W24111   5.931   9.533  14.303 -0.2165 -0.2330 -0.2567
 8218W        W24112   5.364   3.074   2.832 -0.0679  0.3148 -0.0528
 8219W        W24113  17.783   5.226  15.062  0.1472  0.1973 -0.0188
 8220W        W24114  16.591   9.018   3.735  0.1131  0.0017  0.1726
 8221W        W24115   1.767  10.677  13.886 -0.0050  0.1840 -0.0636
 8222W        W24116   6.151  18.906   4.400  0.1264 -0.1585  0.1522
 8223W        W24117   2.699   0.603   2.394  0.2136  0.0411  0.2363
 8224W        W24118   0.218   8.497   3.109 -0.0817  0.0421  0.1207
 8225W        W24119   5.687  17.244  13.522  0.1089 -0.0273  0.0078
 8226W        W24120   0.580  12.908  12.668 -0.3524 -0.0430 -0.1340
 8227W        W24121   0.334  14.880   1.471 -0.0961  0.0891 -0.1827
 8228W        W24122   9.682   9.718   1.068  0.0397  0.0594 -0.2018
 8229W        W24123   4.400   7.348   4.498 -0.0297 -0.4035 -0.0076
 8230W        W24124   4.447   9.658   0.646  0.0593  0.0380  0.1007
 8231W        W24125  14.795   6.710   9.969  0.1937 -0.1066 -0.0942
 8232W        W24126  19.109   6.421  14.024 -0.5016  0.3109 -0.1064
 8233W        W24127   0.748   8.059   2.427  0.2054  0.5485 -0.0008
 8234W        W24128   5.996   7.827  14.629 -0.4540  0.2861  0.4271
 8235W        W24129   2.971   4.329  14.226 -0.0933  0.2769 -0.0905
 8236W        W24130   5.214  12.651   1.261  0.2262  0.2503 -0.2301
 8237W        W24131   6.640  13.048  12.198 -0.0872  0.0797  0.1333
 8238W        W24132  13.167  16.862   3.055 -0.0685 -0.1715 -0.0037
 8239W        W24133  15.792  17.664  12.822  0.3355 -0.3875  0.1585
 8240W        W24134   0.302  17.114   1.202 -0.0088 -0.4231 -0.1377
 8241W        W24135   8.064  15.457   0.805  0.1037  0.0901  0.1925
 8242W        W24136  16.502  14.618  14.201 -0.2161 -0.3736 -0.0837
 8243W        W24137  16.636  14.412  13.479 -0.2911 -0.0323 -0.2910
 8244W        W24138   4.778   4.455   0.423 -0.1319 -0.0241 -0.0794
 8245W        W24139  18.002  12.537  12.144 -0.1607  0.0404 -0.1335
 8246W        W24140  15.461   7.185   2.984 -0.1209 -0.1218 -0.2193
 8247W        W24141   8.318  15.821   1.565 -0.0651 -0.0566 -0.1530
 8248W        W24142   9.035   8.520  13.409 -0.4416 -0.0774 -0.1894
 8249W        W24143   1.925   1.502   0.452 -0.1973 -0.3468  0.1787
 8250W        W24144  13.016  18.486  10.848  0.1785 -0.0788  0.2164
 8251W        W24145   4.550  16.792  10.315 -0.2323 -0.0023  0.2628
 8252W        W24146   5.586  10.241  14.073 -0.0738 -0.2162  0.1883
 8253W        W24147   8.349  18.606  12.067 -0.0260 -0.0171 -0.0262
 8254W        W24148  16.983  11.096  14.596  0.1142 -0.1314  0.4067
 8255W        W24149   0.886   5.040  12.916 -0.4150 -0.0667  0.1848
 8256W        W24150  18.209   6.679   0.799  0.1341 -0.6553  0.1438
 8257W        W24151   3.650  18.573   3.401 -0.2608 -0.1892  0.3526
 8258W        W24152   7.245  14.945   2.944  0.1709 -0.0036  0.1182
 8259W        W24153   7.478  11.485  12.476  0.4058  0.1659  0.0314
 8260W        W24154  18.082   7.199   4.228 -0.3258 -0.2452 -0.2293
 8261W        W24155  18.265  17.724   1.412 -0.3746 -0.0861 -0.2802
 8262W        W24156  18.385   2.417   0.889 -0.1622 -0.1346 -0.0153
 8263W        W24157  17.105   1.734  12.015  0.4978  0.4671 -0.0983
 8264W        W24158  10.851  13.805   4.528  0.2825 -0.0915  0.0648
 8265W        W24159   4.651  10.796   2.472 -0.2393  0.0028 -0.1759
 8266W        W24160   8.659   6.752  13.447  0.0269 -0.2136 -0.1568
 8267W        W24161   9.026  14.258  11.958  0.2186 -0.0574  0.1593
 8268W        W24162  14.039   7.005  10.932  0.1422 -0.1533  0.0392
 8269W        W24163  16.817   1.255   0.507 -0.3809  0.1686 -0.2883
 8270W        W24164   9.467  18.069  14.182 -0.1736 -0.6113  0.1213
 8271W        W24165  14.302  13.016  14.261  0.5277 -0.1331 -0.3158
 8272W        W24166  10.462   2.141   1.494  0.4310 -0.0057 -0.0812
 8273W        W24167   8.083  12.836   3.968  0.1073 -0.3802 -0.1814
 8274W        W24168   9.963  17.838  11.761 -0.1656  0.0890 -0.4935
 8275W        W24169   3.481  13.911  12.311  0.0215 -0.2018  0.3207
 8276W        W24170   3.678  15.014  12.978  0.0009  0.2047  0.2774
 8277W        W24171   5.560   5.726  12.473 -0.0688 -0.1070 -0.1826
 8278W        W24172  17.615  15.873  12.212  0.5572  0.3715  0.0278
 8279W        W24173   4.206   5.386  12.750  0.0033  0.0664  0.0885
 8280W        W24174   4.970  16.111   0.315 -0.0059  0.4093  0.2861
 8281W        W24175  15.996   7.782   5.974 -0.0554  0.0629 -0.1326
 8282W        W24176  11.417  10.983   2.987  0.0713 -0.1249 -0.2054
 8283W        W24177  17.695   3.825  14.701 -0.0212 -0.2134 -0.3058
 8284W        W24178   0.746   0.879  14.767  0.3978 -0.2522  0.2917
 8285W        W24179  16.231   1.044  14.843  0.0935  0.0861 -0.1326
 8286W        W24180   7.964  12.122   5.057 -0.1291  0.0841 -0.0318
 8287W        W24181  15.284   6.577  15.041 -0.2088  0.1395  0.1841
 8288W        W24182  13.707  13.507   1.278 -0.0776  0.1127  0.1429
 8289W        W24183   4.741   3.404  11.367 -0.0606  0.1354  0.0099
 8290W        W24184   5.380  14.527   0.163  0.0770  0.1839  0.1003
 8291W        W24185  18.415  13.407   5.089  0.0866 -0.1786 -0.2428
 8292W        W24186  17.492  12.179  14.928  0.2285  0.2335  0.1425
 8293W        W24187   1.878   8.311  12.916 -0.0477  0.2446 -0.2144
 8294W        W24188  13.809  12.144  11.756 -0.2163 -0.3442  0.0138
 8295W        W24189  17.625  18.364   5.368  0.0309  0.0482 -0.1053
 8296W        W24190   9.753  11.683   0.319 -0.2490 -0.0312 -0.0483
 8297W        W24191   1.839  16.872   3.242  0.0101 -0.1100  0.1703
 8298W        W24192   1.260   5.006   3.936 -0.0837 -0.2207 -0.2229
 8299W        W24193  18.540   2.914  11.264 -0.2595  0.1553  0.0139
 8300W        W24194  15.461   9.022   5.140  0.5119  0.0785 -0.2697
 8301W        W24195   1.336  10.626  11.041 -0.3055 -0.2427 -0.2334
 8302W        W24196   4.520   1.314  11.100  0.1338  0.0421  0.0579
 8303W        W24197  14.268   7.628  10.213  0.0809  0.1709 -0.0048
 8304W        W24198  12.231   0.236   9.595 -0.0985 -0.0576  0.1805
 8305W        W24199   3.475  12.726   1.210 -0.2426 -0.4153 -0.1067
 8306W        W24200   6.900  15.822  13.430  0.1312 -0.1070  0.0112
 8307W        W24201  12.378  11.907  14.331 -0.2376 -0.0541  0.3563
 8308W        W24202  18.633  14.034  13.273  0.2259 -0.3448  0.0595
 8309W        W24203  11.917   2.479   6.022 -0.1595  0.0331  0.0274
 8310W        W24204  13.871  13.494  10.740 -0.1834  0.0868  0.3352
 8311W        W24205  15.151  16.350  13.526 -0.0148 -0.2157 -0.0149
 8312W        W24206   1.392   4.489  13.117  0.1177  0.1763  0.2414
 8313W        W24207   5.310   9.124   3.971  0.3354  0.0451  0.1916
 8314W        W24208   2.288  13.929  11.351 -0.1410  0.1956  0.1015
 8315W        W24209   4.941  17.537   2.437 -0.0210  0.4196 -0.1588
 8316W        W24210  16.666  11.981  12.020  0.4768 -0.1234  0.0493
 8317W        W24211   4.548  18.780  11.653  0.0719 -0.4534  0.3909
 8318W        W24212  13.001  15.671   3.424  0.1415 -0.2508  0.0693
 8319W        W24213   7.523  11.440   3.861  0.1720 -0.3379  0.1708
 8320W        W24214  12.403   4.565  11.833  0.0163 -0.1714 -0.1428
 8321W        W24215  17.175   9.588   4.110  0.0038 -0.3986 -0.1926
 8322W        W24216  18.607   0.129   3.169 -0.0897  0.1993  0.0303
 8323W        W24217   5.300   4.687  15.153  0.0189 -0.0349 -0.0909
 8324W        W24218  16.120   6.657   5.212  0.4411 -0.1532  0.0503
 8325W        W24219  16.196   7.283   2.103  0.0988  0.0169 -0.0563
 8326W        W24220  16.488   5.054  10.146  0.0664  0.0609 -0.1915
 8327W        W24221   7.068  12.360  13.241 -0.1897 -0.3851  0.0333
 8328W        W24222  14.513   8.082  13.932  0.1036  0.1966  0.0120
 8329W        W24223  10.531  14.518  11.539  0.0938 -0.0958 -0.1456
 8330W        W24224   0.356   9.245   0.057  0.4014  0.0966 -0.1061
 8331W        W24225   0.196  12.468  13.901 -0.4344  0.2555 -0.0126
 8332W        W24226  18.893  16.688  13.306 -0.2589 -0.1715 -0.0851
 8333W        W24227   6.577   8.142   2.241  0.1676 -0.1073 -0.2818
 8334W        W24228   3.836  12.762  14.949 -0.2323  0.1482 -0.1390
 8335W        W24229  19.107  13.960  13.428  0.3167 -0.1527 -0.2164
 8336W        W24230   4.378  16.164   2.519 -0.1443  0.1717 -0.1456
 8337W        W24231  16.204   7.393   1.663  0.2554 -0.0456  0.0610
 8338W        W24232  15.900  13.951  11.306  0.1323 -0.0946 -0.4890
 8339W        W24233  13.965   8.179  11.369  0.1248  0.2021  0.0096
 8340W        W24234   5.493   7.272  12.628 -0.0090  0.1498 -0.2533
 8341W        W24235  17.685  17.130   4.464  0.1990 -0.0429  0.1785
 8342W        W24236  18.739  14.932  11.750 -0.2591  0.1341  0.0582
 8343W        W24237   5.213   1.784  10.658 -0.1505 -0.5467 -0.2504
 8344W        W24238  16.148  11.551  14.390 -0.0673 -0.2768 -0.1888
 8345W        W24239   5.384  12.155   0.939 -0.3629 -0.3529 -0.1889
 8346W        W24240   3.099   1.787  14.722  0.0144  0.0260  0.1668
 8347W        W24241   4.145  11.992   3.099  0.0340  0.0130  0.3163
 8348W        W24242  11.612   4.656  11.572  0.1131 -0.3089  0.1858
 8349W        W24243  11.996  11.441  11.850 -0.0560 -0.0234  0.0409
 8350W        W24244   5.633  14.135  10.112 -0.1932  0.0914  0.2913
 8351W        W24245   7.902  13.161   0.969  0.3195 -0.0904  0.1434
 8352W        W24246   8.496   7.960  13.940 -0.1535  0.2017  0.2179
 8353W        W24247  11.906   1.337  12.934  0.2822  0.1502 -0.0780
 8354W        W24248   3.467  15.654  14.985 -0.2596  0.0808  0.1223
 8355W        W24249  16.174   6.744   4.636 -0.1141 -0.1669 -0.1119
 8356W        W24250  12.174  15.427   3.454 -0.0420 -0.0223 -0.1565
 8357W        W24251  18.163   1.353   0.637 -0.1263 -0.0815  0.0220
 8358W        W24252   2.529  18.929   5.078 -0.0015 -0.0920 -0.0929
 8359W        W24253   0.777  13.726   4.928 -0.1822 -0.1016  0.0292
 8360W        W24254   4.154   0.644  12.010  0.0253 -0.0200 -0.0477
 8361W        W24255   7.492  11.945  13.879  0.0625  0.1327 -0.0965
 8362W        W24256   7.916  14.597  14.616  0.1623  0.2000  0.2957
 8363W        W24257   2.440  12.181   5.149 -0.0995 -0.0840 -0.3693
 8364W        W24258  13.076   2.921   0.497 -0.2958 -0.0624 -0.0595
 8365W        W24259  11.897   8.230  13.738 -0.2288  0.0649  0.0626
 8366W        W24260   5.071   5.062  11.301 -0.3155 -0.0499  0.0499
 8367W        W24261   8.564  17.233   2.122  0.0471 -0.0898 -0.0235
 8368W        W24262   4.430   5.225  10.108 -0.0741  0.0422  0.2917
 8369W        W24263  12.339   6.466   1.456 -0.1064  0.1608  0.1165
 8370W        W24264   0.870   1.854   2.508 -0.0453  0.0338  0.0293
 8371W        W24265   7.990  14.103   0.523  0.2980 -0.0059  0.3103
 8372W        W24266  18.721  14.653  13.121 -0.2212  0.2068  0.2149
 8373W        W24267   6.623   7.476   2.085 -0.2743  0.4023 -0.2554
 8374W        W24268   8.358  11.370  14.351  0.1881 -0.1556  0.4313
 8375W        W24269  10.676  13.040   0.400 -0.2592 -0.3032 -0.2026
 8376W        W24270  10.750   1.098  14.095 -0.1085 -0.2846 -0.3479
 8377W        W24271  13.572   0.165  11.282  0.1228  0.2282 -0.2489
 8378W        W24272  10.510  17.196   3.901 -0.2703  0.1589  0.0753
 8379W        W24273  10.913  11.057  10.118 -0.0717 -0.0797  0.0302
 8380W        W24274  14.410   6.782  14.445  0.0294  0.1567  0.0311
 8381W        W24275   1.597   5.453  15.185 -0.0470  0.0948 -0.0125
 8382W        W24276   7.878   4.610  12.396 -0.2131 -0.2089  0.3998
 8383W        W24277  15.515   4.068  14.890  0.0104  0.1113 -0.3445
 8384W        W24278  17.870  15.454  11.484  0.0151 -0.2348  0.2077
 8385W        W24279  13.116   7.286   1.951  0.0501  0.3029  0.1197
 8386W        W24280   3.466   8.121  12.439 -0.3681  0.0437 -0.3112
 8387W        W24281   7.816   4.659   2.183 -0.1376  0.0755  0.0244
 8388W        W24282   0.404  14.835   2.859  0.0388 -0.0605 -0.0976
 8389W        W24283   7.972   7.330  11.729  0.3484 -0.0897  0.0601
 8390W        W24284   7.705  17.331   0.979  0.0953  0.1115  0.1014
 8391W        W24285  18.096  16.905  14.900 -0.1241 -0.1506  0.0274
 8392W        W24286   3.664   3.429   4.577  0.0247 -0.0801  0.0346
 8393W        W24287  14.886  10.324   2.194 -0.0084 -0.0117 -0.1190
 8394W        W24288   1.950  12.888   1.383  0.2265  0.0934  0.1983
 8395W        W24289  17.479  14.499   1.488  0.2512  0.0199 -0.0805
 8396W        W24290  12.554   7.041  15.053  0.0271  0.0616  0.0509
 8397W        W24291   2.355   3.726  12.976 -0.0854  0.4103  0.2171
 8398W        W24292  17.333  10.405  13.455 -0.0191  0.0752 -0.0489
 8399W        W24293   6.078   8.449  12.888 -0.1640  0.0933 -0.1291
 8400W        W24294   8.963   6.703   0.221 -0.3304  0.1903 -0.0624
 8401W        W24295  13.276  13.899  12.860 -0.6654  0.1233  0.3430
 8402W        W24296  12.776  15.134  13.203  0.1117  0.0352 -0.1845
 8403W        W24297  16.555   0.962   0.074  0.1654  0.1670 -0.0376
 8404W        W24298   3.880  12.064   0.476 -0.4216 -0.0368 -0.1093
 8405W        W24299   3.122  15.863  10.128  0.0491  0.0282  0.0063
 8406W        W24300  10.880   4.589   0.954 -0.1717  0.2449 -0.2180
 8407W        W24301   8.917  17.188  15.114 -0.1267 -0.0513 -0.3581
 8408W        W24302  11.094  13.807  14.409 -0.2446 -0.1446 -0.0175
 8409W        W24303   9.479  16.700  10.443 -0.3593 -0.2228 -0.4593
 8410W        W24304   4.610   1.856   1.407 -0.0792 -0.0512  0.1855
 8411W        W24305   2.401   0.681   1.978  0.1456 -0.1400  0.1711
 8412W        W24306   3.534   0.110  10.236  0.0808  0.2065 -0.3296
 8413W        W24307  10.046  14.358  13.010  0.1142  0.2400  0.3187
 8414W        W24308  18.201  14.383   4.271 -0.1102  0.0302 -0.1904
 8415W        W24309   5.855   1.033  13.928  0.4215  0.4018 -0.4629
 8416W        W24310  17.423  15.029   2.897 -0.3299  0.0297  0.2014
 8417W        W24311   7.444  10.090  13.061 -0.0523  0.1432  0.0349
 8418W        W24312  10.649  10.112   3.394 -0.0353  0.0974  0.0437
 8419W        W24313   3.077   4.455  10.554  0.4853 -0.1387  0.2186
 8420W        W24314   9.509  13.607   0.409 -0.2747  0.0161  0.1782
 8421W        W24315   0.600  15.541   3.024 -0.0674  0.0660 -0.2068
 8422W        W24316   2.955  14.549   3.108  0.0110  0.2390 -0.1563
 8423W        W24317   5.444  10.205   5.438  0.2512  0.0250 -0.3217
 8424W        W24318  12.986   9.534  13.624 -0.1044  0.1528  0.0622
 8425W        W24319   2.969   0.227  11.200  0.0034 -0.2294 -0.0263
 8426W        W24320  10.212   7.802   0.443  0.1934  0.2782 -0.1213
 8427W        W24321   3.471   9.964   1.256  0.1914  0.0218 -0.1238
 8428W        W24322  16.948   0.589  12.449 -0.0137  0.0400  0.0643
 8429W        W24323  17.726   7.350   3.385 -0.1440 -0.0307 -0.3193
 8430W        W24324   9.024   5.092   4.359  0.1260  0.0989  0.0831
 8431W        W24325  17.426  18.306   9.909  0.1881  0.0243 -0.1465
 8432W        W24326  12.003   8.490  10.207  0.3066 -0.2559 -0.0858
 8433W        W24327   4.272  12.376   1.915  0.0405 -0.2227 -0.1562
 8434W        W24328   4.309  12.032  10.736  0.0015 -0.0218 -0.3870
 8435W        W24329  17.570  14.494  14.472 -0.1762  0.0152  0.4774
 8436W        W24330   8.264   0.224   4.799 -0.2134 -0.0290  0.1076
 8437W        W24331   3.591   9.755   0.835  0.1677 -0.6484  0.2041
 8438W        W24332  18.701   8.422  10.659 -0.1775  0.0204  0.0367
 8439W        W24333  13.394   0.651  11.202 -0.1940  0.0056 -0.3096
 8440W        W24334  10.903  12.291   0.113  0.1595  0.0723  0.1193
 8441W        W24335   3.950  18.452  13.312 -0.4605  0.1263 -0.0313
 8442W        W24336  13.365  17.220   2.214 -0.0615 -0.1783 -0.4351
 8443W        W24337   2.132   2.472   3.906 -0.1468 -0.1848  0.3005
 8444W        W24338   7.528   5.360  11.238 -0.2149 -0.4883 -0.6166
 8445W        W24339  18.256  15.694   4.458 -0.0471 -0.0711  0.0383
 8446W        W24340  12.885  15.946   0.663  0.0872 -0.4014 -0.0924
 8447W        W24341   7.617  15.249   3.136  0.2053 -0.2487 -0.0615
 8448W        W24342  16.479   4.963  11.499  0.0519 -0.0717 -0.0142
 8449W        W24343  16.589  17.212  15.135 -0.0688 -0.1241  0.0446
 8450W        W24344  14.904  14.434   2.718  0.0497  0.1655  0.2547
 8451W        W24345  12.205   2.923   3.497  0.0698  0.4452 -0.0997
 8452W        W24346  12.672  10.007   1.348 -0.1513 -0.1191 -0.0352
 8453W        W24347   0.901  12.287   4.289 -0.0047  0.5268 -0.0400
 8454W        W24348  12.130   8.851  10.632  0.4702 -0.0388  0.3519
 8455W        W24349  12.076  18.624   1.416  0.2896 -0.1466  0.3556
 8456W        W24350  16.044   8.749  13.041 -0.1666 -0.0519  0.1630
 8457W        W24351  12.752  18.899  14.131 -0.0072 -0.0646 -0.2571
 8458W        W24352   8.692  17.662   2.699 -0.0297  0.1962 -0.3607
 8459W        W24353  12.576  13.474  13.687  0.2508 -0.0438  0.1058
 8460W        W24354   2.705  13.608   3.468  0.3257  0.0642 -0.1480
 8461W        W24355   9.361  17.024  11.715  0.1697  0.1317 -0.4608
 8462W        W24356  13.223  17.338   3.304 -0.3061  0.0539  0.1830
 8463W        W24357  14.881   2.213  14.036  0.0425  0.1140 -0.2306
 8464W        W24358  10.274   2.733  14.414 -0.2028  0.1667  0.1781
 8465W        W24359   1.437  17.650  15.117  0.2067  0.1408  0.1974
 8466W        W24360  10.798  16.888   0.513  0.0184 -0.3194 -0.1208
 8467W        W24361  18.932  17.471   2.855 -0.1076  0.0657 -0.0626
 8468W        W24362   9.707  10.441  14.707  0.0334  0.1280  0.1431
 8469W        W24363  18.732  14.507   2.137 -0.0100  0.0096  0.1565
 8470W        W24364  12.444   4.368  15.018 -0.0970  0.0256 -0.1559
 8471W        W24365   9.566   9.341  12.233  0.2260  0.0077  0.1838
 8472W        W24366  14.796   7.174  14.390 -0.0604  0.0483  0.1287
 8473W        W24367  14.805   3.930   5.364 -0.0607 -0.0249 -0.3032
 8474W        W24368  17.037  14.518  13.108 -0.0535  0.1571  0.1945
 8475W        W24369  15.597  13.052   3.966  0.1132 -0.1558  0.1743
 8476W        W24370   9.813  18.246   4.016  0.1905 -0.1082  0.0024
 8477W        W24371   2.969  16.054   2.062  0.2107 -0.4106 -0.0565
 8478W        W24372  13.298   5.726   1.759 -0.0303 -0.3918 -0.0334
 8479W        W24373   0.892  14.067   1.880  0.2603  0.2794 -0.0621
 8480W        W24374  16.317   1.938   1.308  0.1326  0.0560  0.2382
 8481W        W24375   8.414   1.864   4.884 -0.5342  0.2413 -0.0852
 8482W        W24376  18.851  16.977   2.892 -0.1813 -0.1558  0.0655
 8483W        W24377   9.666   6.804  12.190 -0.1901 -0.3051 -0.0642
 8484W        W24378   0.705   3.822  13.454  0.2698  0.1433 -0.4187
 8485W        W24379   4.756  14.524   4.752 -0.1816  0.4355 -0.1832
 8486W        W24380   4.000   8.954   3.431  0.2512  0.1108 -0.1802
 8487W        W24381  13.280  17.584  13.398 -0.2725  0.0143  0.0275
 8488W        W24382  18.714   9.813  14.559  0.2095 -0.1543 -0.0994
 8489W        W24383  14.858  10.177   1.730 -0.1115  0.2275 -0.4071
 8490W        W24384  12.250   8.971   3.633 -0.0483  0.0461 -0.1515
 8491W        W24385  14.749   4.033   3.383  0.0945 -0.0988 -0.1081
 8492W        W24386  10.813   4.605   4.412  0.1371 -0.0587  0.3710
 8493W        W24387  17.789  15.007   0.684 -0.1555  0.1802  0.0614
 8494W        W24388  17.658   7.797   0.423  0.2217  0.2746  0.1180
 8495W        W24389  13.699  11.370  10.911  0.2341  0.0063 -0.0060
 8496W        W24390   0.678  17.046   1.701 -0.0900  0.0059  0.2987
 8497W        W24391  16.514  12.094  12.950  0.0324  0.4409  0.0059
 8498W        W24392  19.012   6.082   3.283 -0.1804 -0.1876  0.3487
 8499W        W24393  10.420  12.968   4.128 -0.0736  0.2610 -0.6494
 8500W        W24394   7.700   8.182  11.759 -0.3071 -0.0545  0.1825
 8501W        W24395   8.802  14.874  13.926 -0.2539 -0.0766  0.2931
 8502W        W24396  16.530   5.402   4.598 -0.0336 -0.1581 -0.1509
 8503W        W24397   0.890   9.002   3.724  0.3478 -0.1971 -0.3187
 8504W        W24398  11.189   4.418  12.662  0.2902  0.0019 -0.0791
 8505W        W24399  18.972   0.615  13.558 -0.1033  0.0270  0.2977
 8506W        W24400   9.058   9.972  14.328 -0.1412 -0.4235 -0.0643
 8507W        W24401  10.297  17.166  12.903 -0.0595 -0.3428 -0.1849
 8508W        W24402   5.278  11.134  12.744  0.1092  0.0421 -0.1334
 8509W        W24403   8.205   1.929  11.857 -0.3500 -0.1429  0.0278
 8510W        W24404  16.067  18.499   1.509  0.2080  0.1537  0.0849
 8511W        W24405   3.973  18.730  11.013  0.1221  0.0128  0.0290
 8512W        W24406  16.620   7.967  14.857  0.1049 -0.2345  0.1635
 8513W        W24407   4.234  12.525  13.242  0.2221 -0.0068  0.1380
 8514W        W24408   2.097  15.400  14.518 -0.1870 -0.2367  0.0114
 8515W        W24409   9.468  17.460   3.559 -0.0717 -0.2451  0.2084
 8516W        W24410  15.174  19.041   1.614  0.0979  0.1270 -0.1367
 8517W        W24411  13.741   9.386  12.311 -0.0765  0.4517  0.0082
 8518W        W24412  12.241   8.495   1.933  0.2573 -0.1131  0.1779
 8519W        W24413   5.149  19.016   0.776 -0.0478 -0.3019 -0.1478
 8520W        W24414   7.141  18.957  12.754 -0.0113  0.0392 -0.0334
 8521W        W24415   6.662   8.693   0.020 -0.1392 -0.0608 -0.0278
 8522W        W24416  11.919   8.323   1.028 -0.1130 -0.0577 -0.0133
 8523W        W24417   6.968  15.472   2.104 -0.2165 -0.1866 -0.4614
 8524W        W24418  11.911  13.401   3.086 -0.2123 -0.0136  0.0524
 8525W        W24419  13.886   7.461   0.013  0.0958 -0.0630 -0.3338
 8526W        W24420   8.452   4.650   1.680 -0.1969  0.0938  0.1795
 8527W        W24421   4.940   0.283   1.671 -0.1311  0.2599  0.1379
 8528W        W24422   4.661  13.735  10.140 -0.0282 -0.3185 -0.2706
 8529W        W24423  11.746  16.918   1.390 -0.1225  0.0644 -0.1227
 8530W        W24424   8.053  11.182   1.998 -0.1837 -0.0688 -0.2988
 8531W        W24425   5.345  14.442   3.137  0.2680  0.1183 -0.2299
 8532W        W24426  11.072  14.529  13.300  0.0963 -0.1241 -0.2285
 8533W        W24427  17.808   4.527   0.690  0.2383  0.3782  0.1682
 8534W        W24428   2.217  18.752  11.808 -0.4093  0.1686  0.0764
 8535W        W24429   0.378  17.802  13.030  0.2429  0.0354 -0.2396
 8536W        W24430  14.023  17.494  11.901 -0.1192  0.8288 -0.0398
 8537W        W24431   5.434  15.902  13.597 -0.0646  0.1827  0.0361
 8538W        W24432   2.259   0.798  12.508 -0.0631  0.0481  0.0126
 8539W        W24433   6.157  15.327   1.698 -0.1840  0.0957  0.3317
 8540W        W24434  18.151  18.629   4.109  0.2993 -0.0719  0.0622
 8541W        W24435  10.973  15.845   3.492 -0.2280  0.1080 -0.1267
 8542W        W24436   3.465   2.895   4.566 -0.0019 -0.1917  0.0655
 8543W        W24437   6.696   0.916  10.044 -0.1926 -0.0305  0.1170
 8544W        W24438   7.288  13.482   3.293  0.1547 -0.2608 -0.1304
 8545W        W24439  16.589   8.443   4.623 -0.2164  0.1115 -0.0174
 8546W        W24440   9.569  18.080  10.905  0.4172  0.1455  0.0532
 8547W        W24441  15.249   8.645  12.107 -0.1044  0.7037  0.3260
 8548W        W24442  18.295   7.477   4.951  0.1778  0.0211  0.0802
 8549W        W24443  19.097  17.580   2.373  0.3405 -0.1853 -0.1388
 8550W        W24444  16.506   8.889  14.138  0.2753  0.3469  0.1362
 8551W        W24445   4.883   9.715   4.189  0.1688  0.2101  0.1659
 8552W        W24446   0.151  16.857   1.632  0.2752 -0.2050 -0.1524
 8553W        W24447   7.632   0.108   2.985 -0.0168  0.0356  0.1972
 8554W        W24448   9.536   7.065   0.386  0.2073 -0.1363 -0.1151
 8555W        W24449   0.356   2.966   3.355  0.0492 -0.0821 -0.1395
 8556W        W24450   8.298  10.539  10.887 -0.1051 -0.1260  0.3383
 8557W        W24451   9.062  18.198   0.943 -0.1561 -0.3603  0.1727
 8558W        W24452   7.337   1.699   1.971  0.4397  0.1247 -0.0726
 8559W        W24453   6.044  17.386   1.424  0.4545 -0.1165  0.2027
 8560W        W24454   1.096  18.852   1.427 -0.0353 -0.1631 -0.0023
 8561W        W24455   5.701  11.927   4.797  0.2746  0.0167  0.0412
 8562W        W24456   9.953   1.791  10.327  0.1751  0.1080  0.0602
 8563W        W24457  17.438  12.824  10.484  0.3723 -0.1010 -0.4031
 8564W        W24458   1.121  14.965   3.453 -0.1983 -0.0500  0.1810
 8565W        W24459  10.644  11.682  11.125  0.1744  0.1647 -0.1801
 8566W        W24460  15.572  18.756  11.737 -0.1034  0.1054  0.1691
 8567W        W24461  13.925   8.015   0.183  0.2650 -0.2242 -0.1167
 8568W        W24462   4.706  11.969  12.674 -0.1360 -0.1987  0.4720
 8569W        W24463   7.504  13.133   1.322 -0.1278 -0.5626 -0.0342
 8570W        W24464   7.092   7.591  12.719  0.0933 -0.2451  0.3493
 8571W        W24465  18.693  16.822  14.720 -0.0566 -0.0107 -0.0066
 8572W        W24466   7.461  16.079   5.745 -0.2168  0.0291  0.2265
 8573W        W24467  16.601   9.876   0.026  0.0304  0.0075 -0.1070
 8574W        W24468   1.045  13.836  12.528  0.0992  0.2614  0.0242
 8575W        W24469  11.715   3.086   1.753 -0.0291 -0.2288  0.0150
 8576W        W24470   4.551  12.797  11.345 -0.3552  0.0031  0.1304
 8577W        W24471   8.831   9.873  12.561  0.2550 -0.1937 -0.2312
 8578W        W24472  13.917   6.766   2.916 -0.0316 -0.2872 -0.0576
 8579W        W24473  15.342  15.531   2.999 -0.2057  0.0512 -0.1342
 8580W        W24474   0.596  12.436  13.502  0.3375  0.1363 -0.0701
 8581W        W24475   6.625   9.896  13.394 -0.3251 -0.1710  0.0813
 8582W        W24476  17.867  14.304  13.555 -0.0257  0.1477  0.1681
 8583W        W24477  18.422   0.339   1.416  0.1820 -0.2328  0.2550
 8584W        W24478  15.482  12.710   1.157 -0.0734 -0.0884 -0.0556
 8585W        W24479   6.915  14.095   1.123 -0.0111  0.4850 -0.1439
 8586W        W24480  13.465   6.159   1.457 -0.2130 -0.3014  0.0256
 8587W        W24481  10.808  12.574  11.644 -0.0736  0.0817 -0.1046
 8588W        W24482  14.511   0.915   1.256 -0.2200 -0.1872 -0.1610
 8589W        W24483   5.702   5.911  14.219 -0.1598  0.1252 -0.0215
 8590W        W24484  16.421  11.565   3.284 -0.1442 -0.0577  0.0561
 8591W        W24485   2.714  13.883   1.604  0.1518  0.2794 -0.3398
 8592W        W24486   2.255   1.948   0.989 -0.0480 -0.1495 -0.1794
 8593W        W24487  16.998  17.215   1.747  0.0104 -0.1094  0.1422
 8594W        W24488   9.033   6.356   1.389  0.2957 -0.0508  0.1714
 8595W        W24489  17.507   6.472   4.997 -0.2270 -0.5760  0.0628
 8596W        W24490  10.371  17.642   3.556 -0.0282  0.2039 -0.0088
 8597W        W24491   9.677  12.492  14.309 -0.0039 -0.0125  0.2733
 8598W        W24492  18.619  15.946   3.939 -0.1382  0.0893 -0.1629
 8599W        W24493  18.186   6.247   2.589 -0.5637  0.1750 -0.3879
 8600W        W24494   1.981  10.524   4.128  0.0841  0.0835 -0.2966
 8601W        W24495   3.387   1.947  12.474  0.1687 -0.0271 -0.1699
 8602W        W24496   7.669   8.329  10.644 -0.1946 -0.1708  0.1063
 8603W        W24497   7.263  11.043  13.610 -0.1664 -0.1473  0.0463
 8604W        W24498  12.217   9.493   3.754 -0.1728  0.0877 -0.1410
 8605W        W24499   6.678   2.633   2.652  0.0838 -0.2681 -0.3254
 8606W        W24500  16.224   5.580  14.916  0.1501  0.3577  0.0913
 8607W        W24501  11.923   1.972  14.386  0.0885  0.1810  0.1469
 8608W        W24502   6.089   2.409   3.540  0.0854  0.1436 -0.1279
 8609W        W24503  15.023   5.307  15.158  0.3565  0.0123 -0.0965
 8610W        W24504  13.361   5.996  11.384  0.1042  0.1570 -0.2826
 8611W        W24505  13.448  15.321  13.267 -0.2188  0.0680  0.3409
 8612W        W24506  16.157  11.048   3.375  0.1183 -0.1796  0.1968
 8613W        W24507  16.737  17.902  13.261  0.1546  0.1881 -0.1269
 8614W        W24508   5.635   6.255   3.079 -0.0685  0.0559  0.0006
 8615W        W24509   8.362   0.723  12.054 -0.2913 -0.0656  0.0912
 8616W        W24510   2.891  16.805   1.691  0.3105 -0.1871 -0.1147
 8617W        W24511   4.140   8.492   4.130  0.4156  0.0266 -0.0304
 8618W        W24512   4.134  17.915   5.187 -0.3498  0.1689  0.1256
 8619W        W24513  16.143   3.147   1.280  0.3569 -0.3493 -0.1515
 8620W        W24514   8.640   0.122   2.081  0.0232 -0.0250 -0.2217
 8621W        W24515   7.299   3.971  11.856  0.1708 -0.3077 -0.3097
 8622W        W24516   5.084  14.628   1.490  0.1809 -0.1641 -0.3169
 8623W        W24517   4.574   8.194   4.945  0.0014 -0.0021 -0.2910
 8624W        W24518   0.474  17.553   2.580  0.1210 -0.3445  0.0899
 8625W        W24519   1.203   3.478  15.015 -0.1241 -0.4804 -0.0033
 8626W        W24520  15.831   4.697  12.853  0.0190  0.1910  0.1060
 8627W        W24521   1.547   7.875   1.314  0.0140  0.1050  0.0355
 8628W        W24522  17.607   3.207  14.683  0.1385  0.0479  0.2071
 8629W        W24523  10.806  18.600  14.390 -0.1098 -0.1088  0.1080
 8630W        W24524   1.103  11.636  10.950  0.0275 -0.0750  0.1516
 8631W        W24525  14.307   3.899   0.543  0.1197  0.3635 -0.1690
 8632W        W24526  13.018  14.045   1.164 -0.2166 -0.3098 -0.1276
 8633W        W24527   5.520  15.973   3.808 -0.0200  0.0990 -0.3461
 8634W        W24528   0.932   7.335  14.756  0.1491  0.1224 -0.5794
 8635W        W24529  16.964  10.792  12.626 -0.1286 -0.0061  0.5730
 8636W        W24530   3.698   5.604   3.733 -0.0482 -0.0022 -0.5031
 8637W        W24531   3.798  13.297  11.910  0.0780 -0.0755 -0.2895
 8638W        W24532   7.702  15.482   0.422  0.3682  0.5321  0.1963
 8639W        W24533  14.924   6.297   1.098 -0.3359 -0.0885  0.0228
 8640W        W24534   3.741   3.879   2.210  0.1173 -0.0059 -0.3407
 8641W        W24535   2.429  10.271  11.221 -0.2602  0.1688  0.2358
 8642W        W24536  13.697   7.371  12.523  0.2005  0.2339  0.0595
 8643W        W24537  16.052   3.630  13.550 -0.1482  0.2594  0.4891
 8644W        W24538   2.398  12.447   3.645 -0.3296 -0.2247 -0.1867
 8645W        W24539  14.705   5.096   2.273  0.1575  0.2244  0.1285
 8646W        W24540   2.066   8.002   2.733  0.0428  0.1768  0.0608
 8647W        W24541   7.339   7.090  10.334  0.1712  0.0160  0.0332
 8648W        W24542   6.152  14.130   4.808  0.0608 -0.1027  0.1893
 8649W        W24543  10.323   4.646   4.619 -0.2386 -0.0806 -0.1918
 8650W        W24544   1.919  12.231   3.598  0.1771 -0.2683  0.1778
 8651W        W24545   3.465  17.032   4.470  0.0822  0.0451  0.1207
 8652W        W24546   2.935  12.673   2.305  0.0403 -0.3162  0.1062
 8653W        W24547  15.865   7.949   2.953 -0.2718  0.2460  0.0452
 8654W        W24548  18.965  14.683  12.090  0.1693 -0.3847  0.3345
 8655W        W24549   8.456   8.160   2.710  0.3897  0.0851 -0.2859
 8656W        W24550  14.240   6.941   1.234 -0.1501  0.1921  0.2906
 8657W        W24551   6.291   6.709   0.384 -0.1709 -0.0753 -0.0326
 8658W        W24552   1.645  14.571  11.896  0.2597 -0.2909 -0.0890
 8659W        W24553  17.971   6.996  13.464 -0.2551 -0.1170 -0.2908
 8660W        W24554  14.683   8.156   2.443 -0.0813  0.2228  0.1483
 8661W        W24555   7.407  15.728   3.214  0.4069  0.1269  0.1989
 8662W        W24556  13.563  16.101  10.856 -0.1822 -0.2984 -0.0379
 8663W        W24557  15.549  14.672  10.782  0.0541  0.0449  0.2031
 8664W        W24558  12.605  14.434   2.360  0.0666 -0.1568  0.1256
 8665W        W24559   5.397   7.177  11.282 -0.0044 -0.2609 -0.1231
 8666W        W24560  17.772   6.395  14.303  0.1368 -0.0459  0.0319
 8667W        W24561   5.434   3.795  13.639 -0.1929 -0.0979  0.4429
 8668W        W24562  11.887   5.279   0.002  0.1578 -0.0373 -0.2263
 8669W        W24563   4.637  16.660   4.154 -0.2209 -0.0791 -0.1283
 8670W        W24564   0.035   0.056   5.776  0.1817 -0.0816 -0.1367
 8671W        W24565  11.651   5.005   1.930 -0.0541  0.2309 -0.1032
 8672W        W24566  12.511  14.142   1.345  0.0997 -0.2083 -0.4238
 8673W        W24567   4.020   0.364  12.878  0.1867  0.0914  0.0314
 8674W        W24568   1.686  16.061   3.971 -0.3711 -0.2883  0.0089
 8675W        W24569  18.779   2.251   0.497 -0.1924  0.1615 -0.0446
 8676W        W24570  14.118   5.865   4.988  0.0942  0.0823  0.1001
 8677W        W24571  11.960   2.971   0.197  0.1005 -0.0310  0.1440
 8678W        W24572  10.678  14.122   1.872  0.3487 -0.1590  0.0561
 8679W        W24573   2.975  11.792  12.661 -0.2032  0.0981 -0.0969
 8680W        W24574  15.448   5.611  13.907 -0.2379 -0.1862 -0.2210
 8681W        W24575  17.236   4.884   0.361  0.0827 -0.1349  0.0793
 8682W        W24576  11.178   9.168   3.690 -0.1869 -0.0038  0.0547
 8683W        W24577  12.469  13.900  11.916 -0.0822  0.0504 -0.0516
 8684W        W24578   2.979  10.912  12.840 -0.2546 -0.2462 -0.2938
 8685W        W24579   7.262   1.498  12.237 -0.1482 -0.3090  0.0166
 8686W        W24580   2.471  18.421  10.791 -0.1456 -0.0964 -0.1151
 8687W        W24581  14.473  16.670  12.558 -0.2359 -0.1223  0.0114
 8688W        W24582   2.663  13.408  14.549  0.4122 -0.0784 -0.0769
 8689W        W24583   2.016   6.986   2.871 -0.2488  0.1389 -0.1099
 8690W        W24584  17.437   8.450   2.471 -0.0592 -0.0070 -0.0272
 8691W        W24585   6.687   2.799   5.326 -0.0856 -0.0655  0.3083
 8692W        W24586  18.399   4.072   1.185  0.2148  0.1491  0.0200
 8693W        W24587   5.116   9.128  11.799  0.1674 -0.1258 -0.3058
 8694W        W24588  13.597  18.626  10.635  0.0999  0.0334  0.3017
 8695W        W24589  17.667   3.169   4.972  0.0569 -0.0427 -0.0951
 8696W        W24590  13.811  15.414   4.336  0.1907 -0.0117  0.1160
 8697W        W24591  10.661   1.221  15.015  0.0922 -0.1405  0.1084
 8698W        W24592   0.224   9.186   0.526 -0.0574  0.0724  0.1365
 8699W        W24593  10.417  17.132   0.065  0.2037 -0.2172  0.0866
 8700W        W24594   2.295  14.189   0.890 -0.1113  0.0779 -0.0002
 8701W        W24595  15.337   3.416  14.785 -0.4799  0.0702  0.4406
 8702W        W24596   9.490  13.732  13.765 -0.3078  0.2319  0.5245
 8703W        W24597   5.854  14.581   5.674 -0.2061  0.1028 -0.1355
 8704W        W24598  11.828   6.383  14.947  0.0602 -0.1029 -0.2331
 8705W        W24599  17.550  15.789   0.369 -0.1615  0.1489  0.1002
 8706W        W24600  12.047  16.426   0.214  0.3763 -0.1674  0.0988
 8707W        W24601   1.268  14.441   3.555  0.1432  0.0770 -0.0059
 8708W        W24602   1.157  13.410  13.769  0.4479  0.1302 -0.2773
 8709W        W24603   9.487  15.749  10.578 -0.0567  0.1615  0.1486
 8710W        W24604   7.553   0.715  13.203  0.1912 -0.1925 -0.0815
 8711W        W24605  13.819   0.247   1.373 -0.2477  0.0840 -0.0820
 8712W        W24606   5.777   7.278  15.104  0.2236 -0.1809  0.0353
 8713W        W24607   0.938   2.728   0.790 -0.3223 -0.0400 -0.1488
 8714W        W24608   0.261  14.211   0.199 -0.0607  0.2938  0.0925
 8715W        W24609   8.795   5.969   1.158  0.1989  0.0141  0.2083
 8716W        W24610   7.244   4.323   2.317 -0.0194  0.5455 -0.3584
 8717W        W24611   2.040  11.054   5.570 -0.0304  0.0645  0.3138
 8718W        W24612   7.943   3.776   0.096 -0.1509 -0.1033 -0.2903
 8719W        W24613   3.462  17.532   0.875  0.3630 -0.1752 -0.0225
 8720W        W24614   9.614  17.811   2.399 -0.0262  0.1638 -0.0175
 8721W        W24615   7.361   8.944  12.556  0.1736  0.0520 -0.0435
 8722W        W24616   9.525  17.090  12.297 -0.1209  0.0370 -0.2840
 8723W        W24617   7.012  12.954   1.391 -0.0142 -0.1915  0.0636
 8724W        W24618   3.186   6.411   3.556  0.1507 -0.0014  0.2005
 8725W        W24619   7.876  15.066  13.000 -0.2764  0.3363  0.2207
 8726W        W24620   5.623  18.983  12.389  0.3987  0.1013 -0.1186
 8727W        W24621   0.641  14.812   9.673  0.0791  0.2814  0.0590
 8728W        W24622   6.918  18.954   2.214 -0.2616 -0.0045  0.0976
 8729W        W24623  15.731   1.181   3.969  0.0017  0.1842 -0.1473
 8730W        W24624   5.865  14.292   2.836  0.0161  0.0429  0.1622
 8731W        W24625  10.831  18.086   1.834  0.0772 -0.0547  0.0666
 8732W        W24626   5.602  11.741  13.129 -0.0145  0.0749 -0.2277
 8733W        W24627   4.857   9.512  11.311  0.1123  0.2796 -0.0121
 8734W        W24628   6.029  10.100   4.850  0.2208 -0.4428 -0.1306
 8735W        W24629  13.013  18.236   0.978  0.1119  0.2243  0.0061
 8736W        W24630  16.157   1.588  13.594 -0.1211 -0.0788  0.2382
 8737W        W24631   2.354  18.072   4.552  0.3960 -0.1867 -0.1682
 8738W        W24632  11.819   1.337   1.486  0.2036 -0.0435 -0.1003
 8739W        W24633  16.029   7.300   9.803 -0.1356  0.0853 -0.0323
 8740W        W24634   4.139  11.156   3.581  0.0279 -0.1139 -0.0326
 8741W        W24635   4.083   1.536   2.071  0.0311 -0.0125 -0.0373
 8742W        W24636   3.353   6.871  12.840 -0.0880 -0.0210 -0.0022
 8743W        W24637   7.341   8.336  13.091 -0.1334  0.0069 -0.0224
 8744W        W24638  16.098   3.722  13.021 -0.0459  0.1644 -0.0534
 8745W        W24639   5.586  17.250  11.810 -0.0398  0.1277  0.0380
 8746W        W24640   2.103   8.977  12.460  0.0006 -0.0616  0.0172
 8747W        W24641  11.115  10.417   5.910  0.1432 -0.2734  0.2948
 8748W        W24642  14.687   1.261  13.774 -0.0538  0.0838 -0.1075
 8749W        W24643  13.369  18.166  11.476  0.1947  0.2123  0.0622
 8750W        W24644   4.719  12.652   1.997  0.0565 -0.1837 -0.2470
 8751W        W24645   4.971   4.471   1.742  0.3158  0.0630  0.1657
 8752W        W24646  10.072  12.041  11.753  0.0227 -0.0746  0.0989
 8753W        W24647   4.173  15.045  11.681  0.1344  0.2161 -0.5181
 8754W        W24648   2.758  16.317   1.719 -0.0985  0.0580  0.1477
 8755W        W24649   0.396  12.646   1.245 -0.0781 -0.1031 -0.3881
 8756W        W24650  13.554  15.549  10.951  0.1759  0.0399  0.0013
 8757W        W24651   2.398   9.623   0.480  0.3700 -0.0116 -0.3163
 8758W        W24652  12.243   6.697  11.193 -0.2532 -0.3967 -0.0700
 8759W        W24653   0.450   9.422   1.298 -0.0627 -0.0617 -0.0415
 8760W        W24654  12.049  12.255  13.637  0.2132 -0.2245 -0.1241
 8761W        W24655  10.753   0.275   0.214 -0.0366  0.2747 -0.1033
 8762W        W24656   0.351  12.018   0.487  0.4378  0.0020 -0.0550
 8763W        W24657  10.534  14.045  14.949 -0.0911 -0.0174 -0.3012
 8764W        W24658   6.553  14.845   1.692 -0.1145 -0.0149 -0.1980
 8765W        W24659   1.205   2.878  14.757  0.2323  0.0189  0.0563
 8766W        W24660  10.620   3.522  12.626 -0.1963 -0.5896 -0.0479
 8767W        W24661   4.788   9.187   3.848 -0.3389 -0.1148 -0.1707
 8768W        W24662  16.719  12.680   3.613  0.2926 -0.1681 -0.0600
 8769W        W24663  13.938  13.588   2.907  0.2677  0.1091 -0.0222
 8770W        W24664  11.294   4.389   4.234 -0.1010  0.0065 -0.1753
 8771W        W24665   4.041   8.046   3.773 -0.2329  0.2297  0.2807
 8772W        W24666   2.667  15.552   0.031  0.1291  0.1795 -0.0079
 8773W        W24667  16.308   0.602   1.668 -0.0869 -0.1743  0.0741
 8774W        W24668  13.374  18.360   2.211  0.2624 -0.1654 -0.5618
 8775W        W24669   1.833   6.450   1.109 -0.1137  0.0786  0.2376
 8776W        W24670  15.147   5.261  12.000  0.1185 -0.0744  0.0419
 8777W        W24671   1.576  14.935   3.520 -0.1571 -0.2758 -0.2629
 8778W        W24672   3.982  18.923   5.108  0.1658 -0.0108  0.0640
 8779W        W24673   6.620   8.703  14.722  0.2562  0.1135  0.0384
 8780W        W24674   0.223   7.316   3.386 -0.3391  0.2726 -0.0055
 8781W        W24675  15.108   0.557   4.058  0.1006  0.1814 -0.0795
 8782W        W24676   4.149  14.475   0.638 -0.0915  0.0610 -0.0363
 8783W        W24677   4.495   4.998  10.563  0.1873  0.7435 -0.0120
 8784W        W24678   8.912  16.841   0.821 -0.2278  0.0062 -0.1939
 8785W        W24679   9.560   5.961   1.066 -0.0641  0.2216  0.1537
 8786W        W24680  10.153   2.187   3.655  0.0929 -0.2503 -0.0947
 8787W        W24681  15.509  11.439   5.607 -0.0901 -0.3287  0.1410
 8788W        W24682   7.981  17.898  12.327 -0.0394 -0.3556 -0.4928
 8789W        W24683   2.315  18.020  13.180  0.2254 -0.0527 -0.1108
 8790W        W24684   8.568   8.507  14.110 -0.5249  0.0664  0.1373
 8791W        W24685   3.013  14.930  11.157 -0.1317 -0.0505  0.0129
 8792W        W24686  12.637  17.683   3.984  0.0766 -0.0251  0.0837
 8793W        W24687   9.949  18.382  13.256  0.2235  0.3560  0.2512
 8794W        W24688  16.491   4.505  15.059  0.0886 -0.0557  0.0019
 8795W        W24689  17.843  16.650   4.522  0.1587  0.0391  0.0058
 8796W        W24690  16.239   8.372   0.137  0.3021  0.3137 -0.1102
 8797W        W24691   3.253   9.491   1.496  0.0792  0.0151 -0.0270
 8798W        W24692  12.566  10.388  13.524 -0.2053 -0.1639 -0.2094
 8799W        W24693  12.775  13.686  12.847  0.0754  0.0580 -0.1037
 8800W        W24694  16.267   4.645   1.700 -0.1488 -0.0208 -0.3765
 8801W        W24695   5.595  13.188   0.184 -0.6458  0.0290  0.1069
 8802W        W24696   6.212  13.933   4.351  0.3061 -0.1335  0.2245
 8803W        W24697  15.996   9.392   1.865  0.3178 -0.0300  0.0495
 8804W        W24698  15.677  15.471   0.707  0.1860  0.0438  0.3756
 8805W        W24699   9.577  13.951   3.235 -0.3181 -0.2615  0.0296
 8806W        W24700   1.659   0.565   1.512  0.2052  0.0121  0.3003
 8807W        W24701   6.420   4.774   3.352  0.3773  0.1921 -0.2245
 8808W        W24702  15.679   1.026  11.621 -0.2601  0.0054 -0.1493
 8809W        W24703   3.290  16.262   3.144  0.3706 -0.3320  0.4990
 8810W        W24704   6.181   3.164   1.645  0.1759  0.3107  0.2967
 8811W        W24705  16.367  16.631  11.544  0.0230  0.0332  0.2984
 8812W        W24706  18.510   0.613  13.301  0.1808  0.0055  0.2476
 8813W        W24707   7.598   0.172  12.659 -0.1293 -0.1112 -0.2531
 8814W        W24708   1.053  12.035  13.475  0.0597 -0.0404 -0.1610
 8815W        W24709  14.529  12.960  13.173 -0.2895  0.1311  0.1950
 8816W        W24710  17.929  13.278  14.101  0.4458  0.0995  0.1296
 8817W        W24711  14.013  13.935  10.439  0.2475  0.0187 -0.1965
 8818W        W24712  10.921  10.693  11.018  0.1642 -0.3331  0.0083
 8819W        W24713   5.052   2.338   9.091  0.1882 -0.0224  0.0168
 8820W        W24714   1.323   7.113   3.373 -0.2448  0.3940 -0.1619
 8821W        W24715   8.889   5.676  12.510 -0.2130 -0.0443 -0.1788
 8822W        W24716  15.076   3.854  11.210 -0.4134  0.2827 -0.2315
 8823W        W24717   7.554  11.025   2.315 -0.1752  0.4122 -0.0059
 8824W        W24718  14.882   5.016   4.674  0.0272 -0.2111  0.2749
 8825W        W24719   8.454  10.904   2.908  0.1633  0.0666  0.1170
 8826W        W24720   3.222   6.677   4.342 -0.0184  0.1029 -0.0704
 8827W        W24721  17.189  19.107   0.167  0.0474 -0.2391  0.0673
 8828W        W24722   5.706   7.848  12.593  0.2301  0.4646 -0.3925
 8829W        W24723   5.553  10.532   3.437  0.0509  0.1127 -0.1543
 8830W        W24724   7.551  12.066   1.148  0.1328 -0.2317  0.0470
 8831W        W24725   9.068   1.920  14.456 -0.0064  0.2930  0.1126
 8832W        W24726   9.330  11.763  10.300  0.0254  0.3186 -0.4201
 8833W        W24727  15.110   8.361   2.682 -0.1352  0.3785  0.0530
 8834W        W24728  17.893  12.491  12.765 -0.1421 -0.3015  0.1559
 8835W        W24729   1.371   0.830  11.589  0.1592 -0.0520  0.2743
 8836W        W24730  18.399   7.744  15.189 -0.0966  0.1406  0.0512
 8837W        W24731   2.196  11.714  14.399  0.0292  0.0619  0.0695
 8838W        W24732   9.431  15.451  14.502  0.0333 -0.0733  0.1947
 8839W        W24733   6.234   9.618   1.972  0.1808  0.0304 -0.1070
 8840W        W24734  12.910   4.823   3.976  0.3510  0.1523  0.2979
 8841W        W24735  10.209  11.510   0.122 -0.0384  0.2269 -0.0526
 8842W        W24736   6.548  12.872   4.621 -0.1402  0.2973  0.1925
 8843W        W24737   3.260   9.658   4.931  0.0640  0.1619  0.1189
 8844W        W24738   2.215   4.026   1.110  0.1007 -0.0525  0.1991
 8845W        W24739  14.261  12.026  10.961  0.0270  0.1604 -0.0239
 8846W        W24740   6.912   9.563  13.579  0.0517  0.1579  0.0953
 8847W        W24741  12.361   4.115   5.114 -0.1628 -0.2273  0.2253
 8848W        W24742   9.312   2.016   4.522  0.1098  0.1699  0.0313
 8849W        W24743  13.661  15.231  10.563 -0.0522 -0.0210  0.0855
 8850W        W24744   0.048  10.616   0.354 -0.2901 -0.0341  0.2252
 8851W        W24745  16.700  13.555   4.505 -0.1356 -0.1005 -0.0044
 8852W        W24746   3.099   0.362   3.165  0.1229  0.1254 -0.0173
 8853W        W24747  16.144   2.307   1.707  0.0837 -0.0222 -0.1542
 8854W        W24748   9.839   2.200   3.250  0.0949 -0.0199 -0.2358
 8855W        W24749  15.847   9.245   0.208 -0.0102 -0.3147 -0.1411
 8856W        W24750  12.336  12.441  14.112 -0.1312 -0.0613  0.0898
 8857W        W24751  12.891  11.700  11.620 -0.0981 -0.0117 -0.0517
 8858W        W24752  10.967  11.126   3.893  0.1099 -0.0400 -0.1196
 8859W        W24753   5.100  14.524  11.538 -0.2616 -0.1833 -0.0486
 8860W        W24754  15.052   0.934   1.089 -0.1752 -0.1918 -0.1954
 8861W        W24755   8.515  11.013   2.458  0.1276  0.0387 -0.2174
 8862W        W24756  13.139   8.518  14.533 -0.1402  0.0579 -0.0121
 8863W        W24757   8.987  15.933  14.820 -0.3527 -0.0245  0.1354
 8864W        W24758  16.918  11.506   3.063  0.2465 -0.2579 -0.1163
 8865W        W24759  10.518   3.659   1.598 -0.2050  0.0265  0.1858
 8866W        W24760   1.995   9.296  14.301 -0.3923  0.1456 -0.0400
 8867W        W24761   7.727   4.821   4.384 -0.0810 -0.1021  0.0511
 8868W        W24762  10.109   2.652   2.198 -0.0090 -0.2737  0.0460
 8869W        W24763  11.210   3.966  10.516 -0.1542 -0.3382  0.0204
 8870W        W24764  10.560   5.951   5.388  0.1452  0.0201 -0.1436
 8871W        W24765   5.248  13.558   4.806 -0.0537 -0.1766 -0.1091
 8872W        W24766   8.375  17.900  11.588  0.0059  0.0959  0.0699
 8873W        W24767  11.044  16.364  14.243 -0.0818  0.0031 -0.2468
 8874W        W24768   5.922   6.245   2.150  0.0631 -0.0516 -0.1042
 8875W        W24769  14.341   1.718  11.128  0.1018 -0.1022 -0.0399
 8876W        W24770   8.589  11.523   1.648  0.0020 -0.0229  0.1504
 8877W        W24771   1.339   3.317   5.310 -0.0593 -0.0034  0.1562
 8878W        W24772   0.072  18.943  10.979  0.0786  0.1056 -0.1076
 8879W        W24773  15.371   3.418   0.410  0.4175  0.0871 -0.2402
 8880W        W24774   5.064   1.225  10.108 -0.0073  0.0027  0.1548
 8881W        W24775  10.586  13.534  12.747 -0.0625 -0.3176  0.0579
 8882W        W24776  15.225   4.214  12.284 -0.0948  0.2523 -0.0158
 8883W        W24777   4.826  16.406  13.896  0.1709  0.0168  0.1441
 8884W        W24778  15.690  16.716   4.435 -0.0694  0.1042 -0.3361
 8885W        W24779   5.240   5.952   9.700  0.2811 -0.2914  0.2502
 8886W        W24780   1.170   1.938  15.138  0.2484  0.1079 -0.0917
 8887W        W24781  13.516   9.331  14.727  0.0929  0.3955  0.3451
 8888W        W24782  16.328  13.735   2.647  0.1842 -0.1291 -0.2027
 8889W        W24783   8.101   3.646  14.821 -0.1346 -0.0454  0.1275
 8890W        W24784  11.332   7.622   3.371  0.1969 -0.2211  0.3966
 8891W        W24785  15.325  11.685   1.126  0.0676  0.0637 -0.1933
 8892W        W24786   8.739   5.613   2.677 -0.1063  0.2138  0.3479
 8893W        W24787  12.211   5.725   0.882 -0.1521  0.0940 -0.0226
 8894W        W24788  15.587   0.730   1.123  0.0825 -0.2488  0.0204
 8895W        W24789  16.696   2.963   4.207  0.0066 -0.1247  0.0632
 8896W        W24790   2.637   1.420  13.445 -0.0888  0.0076 -0.3690
 8897W        W24791   2.636   7.047   4.331  0.0030  0.0616 -0.1567
 8898W        W24792   4.255   7.128  12.858  0.1014 -0.1387 -0.0576
 8899W        W24793   2.147   9.724   4.084 -0.1284  0.1208 -0.1159
 8900W        W24794   9.514  17.837   3.226 -0.0706 -0.1080  0.0207
 8901W        W24795   9.325   9.060  14.361 -0.0897 -0.0965 -0.0445
 8902W        W24796  11.153  11.061  11.904 -0.1986  0.1593  0.0603
 8903W        W24797  19.103   5.908   4.218  0.3325 -0.2288 -0.0971
 8904W        W24798  14.145   5.693  10.882  0.0654 -0.2398 -0.2738
 8905W        W24799  15.317  10.064  10.822  0.2331  0.0381  0.1384
 8906W        W24800   3.453  15.351   2.181 -0.0797  0.0427  0.1448
 8907W        W24801   0.296   1.447   0.208 -0.2448 -0.2067  0.2422
 8908W        W24802   0.962  15.179  13.980  0.0650  0.0239  0.0281
 8909W        W24803  15.302  11.609   3.385  0.0513  0.2270 -0.0719
 8910W        W24804   9.616  15.992   0.894  0.1335 -0.0499 -0.2478
 8911W        W24805   1.830  17.956   4.480 -0.3737 -0.0789 -0.0838
 8912W        W24806   9.556  18.097  13.355 -0.0705  0.3603  0.0224
 8913W        W24807  18.627  11.350   2.402 -0.2606  0.1552 -0.2244
 8914W        W24808   9.104   1.047  11.300 -0.2500 -0.0751 -0.0895
 8915W        W24809   0.868  13.416  11.128 -0.1521  0.0849  0.3029
 8916W        W24810  13.371  14.877  13.062  0.0198 -0.2633  0.0037
 8917W        W24811  14.287   8.038  12.981 -0.0896 -0.2594 -0.1137
 8918W        W24812   7.826   8.344  14.712  0.2472  0.2371  0.1053
 8919W        W24813   2.320  14.209  11.833 -0.0147 -0.4334  0.2870
 8920W        W24814   2.297   1.448   4.401 -0.3461  0.3208 -0.0378
 8921W        W24815   8.328  15.326   5.242 -0.0252  0.1703 -0.3085
 8922W        W24816   1.163  18.209   3.230 -0.3215 -0.1109 -0.0490
 8923W        W24817   6.493  16.311  12.180  0.0376  0.0027  0.1449
 8924W        W24818  11.047  11.728   2.456  0.1235  0.0692 -0.1220
 8925W        W24819   8.518  17.026  14.945  0.0628 -0.4510  0.0242
 8926W        W24820  15.963  14.910  10.869  0.0090 -0.0840  0.1100
 8927W        W24821  13.037  12.512   2.023 -0.0141 -0.2482 -0.0302
 8928W        W24822   5.626  10.687  11.078  0.0526  0.2792  0.0615
 8929W        W24823  18.585  16.635   1.053 -0.1960 -0.1270 -0.2294
 8930W        W24824  12.065   0.285   0.604 -0.0779 -0.0916  0.1230
 8931W        W24825  17.685   8.763  14.338 -0.0311  0.1587  0.1597
 8932W        W24826   7.702  17.921   4.016  0.0475 -0.1440 -0.3123
 8933W        W24827  12.020  12.515   0.672 -0.0385  0.1021  0.1040
 8934W        W24828   3.101   0.075  14.970 -0.1379  0.2234 -0.0137
 8935W        W24829   5.782  18.430  10.248  0.1199 -0.0942  0.2098
 8936W        W24830  12.408  16.309  12.751  0.2635 -0.2567  0.1907
 8937W        W24831   6.779  15.391   4.247 -0.3832  0.1603  0.1001
 8938W        W24832  18.303  13.407   4.575 -0.1062 -0.1836 -0.1529
 8939W        W24833  16.828   0.573  11.017  0.2925 -0.0200 -0.1736
 8940W        W24834   7.331   1.328   2.362  0.1651  0.2874  0.1719
 8941W        W24835  14.964   5.656   3.783 -0.5429  0.1873  0.0421
 8942W        W24836  14.336   7.444   1.256 -0.0629 -0.2667 -0.1164
 8943W        W24837  11.501   0.281   0.925 -0.0741  0.3658 -0.1672
 8944W        W24838   0.928  11.642   1.535 -0.1920  0.2147 -0.1598
 8945W        W24839  14.828  15.086  11.083 -0.3746  0.3463  0.1946
 8946W        W24840   7.458  18.687   4.012  0.1297  0.1797 -0.0105
 8947W        W24841   7.736   8.422  13.855 -0.0044 -0.0441 -0.1106
 8948W        W24842  15.411  12.268   0.524 -0.0320  0.0462 -0.0892
 8949W        W24843   5.587  12.156  12.195  0.1810  0.0085 -0.1493
 8950W        W24844  17.557   9.825  12.763 -0.2183  0.0716 -0.5569
 8951W        W24845  12.074   3.945   4.646 -0.2662 -0.1039 -0.0642
 8952W        W24846   9.410  15.762   1.548 -0.0813 -0.1296 -0.0531
 8953W        W24847   9.934   0.383   2.280  0.3652 -0.2173  0.1697
 8954W        W24848  17.823   4.679   1.897 -0.1394  0.3291 -0.0008
 8955W        W24849   3.532   7.462  14.975 -0.0083 -0.0616 -0.0389
 8956W        W24850   8.402  11.552   0.651  0.0482 -0.0251 -0.3666
 8957W        W24851   5.638   1.981  12.046  0.1054  0.1142 -0.0657
 8958W        W24852   1.138   1.153   4.356 -0.0137  0.1663  0.1822
 8959W        W24853  14.554   9.236   2.233  0.3408  0.4286  0.3212
 8960W        W24854   3.502  17.612  11.606  0.0763 -0.2120  0.1774
 8961W        W24855   1.690   5.162   4.190  0.2951 -0.0361  0.1229
 8962W        W24856   0.509   7.566  12.213 -0.0203 -0.0619  0.2821
 8963W        W24857   4.186  11.031   2.418  0.0961 -0.2477 -0.2790
 8964W        W24858   8.609   9.256   3.275  0.0577  0.1121 -0.0044
 8965W        W24859   9.445   6.312  11.432  0.1660 -0.5375 -0.1209
 8966W        W24860   8.398  19.135  11.666  0.0498 -0.2467  0.2303
 8967W        W24861  18.055  11.946  14.982 -0.0381  0.2776 -0.0804
 8968W        W24862   2.805  15.272   3.829  0.4195 -0.1368  0.0437
 8969W        W24863   0.089  16.981   5.690 -0.4680  0.1805 -0.1129
 8970W        W24864  15.404   4.768  12.003  0.0534  0.0638 -0.0056
 8971W        W24865  14.364   9.132  14.357 -0.1269 -0.0745  0.3263
 8972W        W24866   1.483  15.584   1.977 -0.0114  0.2674 -0.2458
 8973W        W24867  12.402   5.279   0.088 -0.2340  0.3540  0.4660
 8974W        W24868  11.601  16.249   2.125 -0.2721  0.0045  0.0420
 8975W        W24869  18.216   4.339   1.618 -0.0858  0.0599  0.1524
 8976W        W24870  14.765  10.436   3.963  0.0064 -0.3250  0.0677
 8977W        W24871   5.664  18.883   3.363 -0.1931  0.1631  0.0798
 8978W        W24872  17.430   2.508   3.607  0.0071  0.1272 -0.3381
 8979W        W24873   0.167   6.009  11.044  0.0496 -0.0226  0.1163
 8980W        W24874   0.021  14.420  13.678  0.2221  0.1492 -0.1150
 8981W        W24875   0.021  11.083   0.565 -0.0706 -0.0473 -0.0560
 8982W        W24876   9.991  12.292   1.881  0.3068  0.2201  0.3216
 8983W        W24877  13.219  17.792  15.024 -0.2335 -0.2693  0.0295
 8984W        W24878   2.388  14.536   5.497 -0.0942  0.0952 -0.0901
 8985W        W24879   7.651  11.755  12.903 -0.1508 -0.3245  0.0693
 8986W        W24880  15.921  12.546   4.209  0.1787  0.1104  0.0016
 8987W        W24881  18.757   5.151   4.712 -0.1241 -0.1391 -0.2235
 8988W        W24882  12.722   2.891   3.791 -0.0208  0.0898 -0.0724
 8989W        W24883   0.842   0.331   4.775 -0.0748  0.1343 -0.1796
 8990W        W24884   7.062  16.726   4.111 -0.1432 -0.1113  0.0704
 8991W        W24885   2.206   5.345  12.542 -0.0998 -0.0904  0.0821
 8992W        W24886  13.896  12.323  10.461  0.0827 -0.3758  0.0231
 8993W        W24887  15.437   3.568   2.705  0.1637  0.5193  0.0705
 8994W        W24888   7.695   3.797  12.071 -0.0066  0.2684 -0.0433
 8995W        W24889  15.972   5.600  13.891  0.2170 -0.0411  0.2266
 8996W        W24890  13.244   4.238   4.190  0.2068 -0.1938  0.1538
 8997W        W24891  16.422   3.198   5.967  0.2309  0.1430 -0.0179
 8998W        W24892  18.633  18.841   4.599  0.1678 -0.0262 -0.1033
 8999W        W24893  15.736   7.352   1.993 -0.0185 -0.0764 -0.0677
 9000W        W24894   2.568  11.781  10.447 -0.1312 -0.2933  0.1789
 9001W        W24895  15.007   6.649   1.831 -0.1505 -0.1693 -0.0805
 9002W        W24896  13.335  13.635  11.508 -0.1289 -0.1746  0.2085
 9003W        W24897  16.703  18.979  14.443  0.2657  0.0031  0.0802
 9004W        W24898  12.961   5.853   2.267 -0.2108  0.1506 -0.1324
 9005W        W24899   4.954  15.086  11.376 -0.1325 -0.2425 -0.0360
 9006W        W24900  13.356  10.997   3.811 -0.1801 -0.5243  0.2634
 9007W        W24901  11.112   6.406   4.246 -0.1196  0.0187 -0.2884
 9008W        W24902  15.716  18.933   1.607  0.0406 -0.1396  0.0490
 9009W        W24903  16.886  16.303   4.650 -0.1464 -0.1096  0.0903
 9010W        W24904  14.373  16.770   4.963 -0.0596  0.2943  0.0146
 9011W        W24905  17.124  13.345   0.788 -0.4010 -0.1167  0.3120
 9012W        W24906  18.753  13.003   1.088 -0.2012 -0.1852 -0.1209
 9013W        W24907  16.645   0.825   1.972  0.3287  0.0302  0.0833
 9014W        W24908   0.009   6.189  11.487  0.2666 -0.2976  0.2138
 9015W        W24909   2.935   4.831  10.817 -0.1085 -0.1036  0.0101
 9016W        W24910  18.193  10.110  12.932 -0.1639  0.1654  0.2333
 9017W        W24911   3.425   6.995  11.302 -0.0865  0.1618 -0.3757
 9018W        W24912  18.119  16.901  11.733  0.0074 -0.1137 -0.2993
 9019W        W24913  11.719   4.998  12.999 -0.1482  0.3446  0.2323
 9020W        W24914  10.250  17.824  14.542  0.0769 -0.1475  0.0078
 9021W        W24915  19.030  18.718  11.866 -0.0519 -0.2127  0.1718
 9022W        W24916   0.851   6.439  10.574  0.2339 -0.1245 -0.1384
 9023W        W24917   2.866   4.833   3.354  0.0056  0.2015 -0.0936
 9024W        W24918  17.974  11.104  13.127 -0.3612  0.1330 -0.2328
 9025W        W24919  16.846  18.016   4.337  0.0923 -0.1949  0.0825
 9026W        W24920  18.330   1.204  13.221  0.1302 -0.0716 -0.1251
 9027W        W24921   6.593  12.337   0.163  0.1237 -0.0150 -0.0711
 9028W        W24922   5.406   7.222  14.045  0.1165 -0.0025 -0.2493
 9029W        W24923   4.823  12.249   4.712 -0.0765  0.2088 -0.0646
 9030W        W24924   2.462   0.760   0.793  0.2296 -0.1537 -0.1600
 9031W        W24925   4.054  15.392   3.002  0.1439 -0.1124  0.1774
 9032W        W24926   0.219  10.754  12.667 -0.3947  0.3647  0.1332
 9033W        W24927  14.300   9.075  12.399  0.0546 -0.0880  0.4650
 9034W        W24928   3.383  14.559   3.391  0.0666  0.1204 -0.2592
 9035W        W24929   4.880   3.765  10.341 -0.1232  0.1276  0.1446
 9036W        W24930   3.073   0.887   2.969  0.1932  0.0233  0.1077
 9037W        W24931   4.901   4.931  13.675  0.2207 -0.2498 -0.1688
 9038W        W24932  12.352  15.307  10.350  0.0675 -0.0208  0.1766
 9039W        W24933   1.127   0.699   4.496 -0.1827  0.2113 -0.0983
 9040W        W24934   7.238  15.860  15.001  0.0309  0.4282 -0.0428
 9041W        W24935  16.379  18.325   1.146  0.1693  0.1079 -0.1332
 9042W        W24936   3.429  10.683   4.965  0.1494 -0.1372  0.0824
 9043W        W24937  17.468   7.831   4.295  0.0692  0.0750  0.1063
 9044W        W24938  12.404   8.475   5.776 -0.1701 -0.0911  0.0412
 9045W        W24939  14.599  13.068  10.540 -0.0724 -0.2152  0.1577
 9046W        W24940   2.011   8.324   0.122  0.2627  0.2669  0.1879
 9047W        W24941   5.059   0.275  10.138 -0.0435  0.0358 -0.0630
 9048W        W24942   5.751  15.684  13.125 -0.2824 -0.0276 -0.0257
 9049W        W24943  18.069   3.498   2.229 -0.3738  0.0624 -0.3461
 9050W        W24944  12.904   7.811   5.044 -0.2591  0.0780  0.2552
 9051W        W24945  10.763   9.061  12.459 -0.0315 -0.1160 -0.2257
 9052W        W24946  16.633  11.460  14.233  0.0961 -0.0238 -0.0015
 9053W        W24947   1.865  17.715   5.451 -0.0387 -0.1389  0.4642
 9054W        W24948  12.104  19.149   2.780 -0.1313  0.0926  0.3120
 9055W        W24949  11.296  14.381   3.175 -0.0089  0.0949 -0.1391
 9056W        W24950  12.391  19.096   5.144 -0.0264 -0.1062  0.3062
 9057W        W24951   6.702  14.430  10.718  0.1263 -0.1594  0.0027
 9058W        W24952   8.099  16.543  13.416  0.0377 -0.1366  0.0646
 9059W        W24953  14.296   8.155  10.584  0.0110 -0.0558  0.0680
 9060W        W24954  15.906   6.523  10.658  0.0134  0.1563  0.1687
 9061W        W24955  12.920   0.625   1.472  0.2945  0.0585  0.3075
 9062W        W24956   8.646   6.171  11.331 -0.2006  0.1059 -0.1397
 9063W        W24957   8.429  16.627   1.652  0.2316  0.0372  0.1013
 9064W        W24958  16.925   9.509  11.001  0.0581  0.0250 -0.1020
 9065W        W24959   9.343  12.240   0.352  0.2155  0.3478 -0.0888
 9066W        W24960   0.180  13.623   0.200  0.0192 -0.1218  0.1081
 9067W        W24961  11.197  18.034  11.669 -0.1259  0.3083 -0.5593
 9068W        W24962   8.458  16.563  10.233 -0.2558 -0.1763 -0.0335
 9069W        W24963   3.974   8.102  10.296  0.0743  0.0537 -0.0611
 9070W        W24964   0.737   6.342   3.387  0.0150 -0.0576 -0.0985
 9071W        W24965  12.076   0.391  11.315 -0.2911  0.1786 -0.0518
 9072W        W24966  11.057  12.633   0.438 -0.1068  0.0565  0.0204
 9073W        W24967  18.349  18.976   2.010  0.1162  0.1122  0.0702
 9074W        W24968   7.215  11.971  10.546  0.0327 -0.2584  0.1029
 9075W        W24969  17.699   2.505   1.189  0.0229 -0.2011  0.1192
 9076W        W24970  11.692  13.796   0.083  0.2690  0.0768  0.1227
 9077W        W24971  17.259  17.966   6.203  0.2674  0.0105 -0.1214
 9078W        W24972   1.153   8.318   5.404  0.1858  0.3888  0.0773
 9079W        W24973   1.701  18.973  15.074 -0.1552 -0.4386 -0.0319
 9080W        W24974   4.791   2.574   3.878 -0.4643  0.1570  0.2595
 9081W        W24975   3.053   2.757  12.056  0.3003 -0.3685 -0.0803
 9082W        W24976   6.224  14.076   3.893 -0.0397 -0.4048  0.3674
 9083W        W24977  12.062  16.519  13.124 -0.1152  0.0851 -0.1521
 9084W        W24978   5.082  18.937  11.604  0.0791  0.0896  0.2183
 9085W        W24979  14.816  12.996  13.644 -0.0890 -0.0204  0.0986
 9086W        W24980  17.108   8.140   4.222  0.1830 -0.1015  0.0759
 9087W        W24981   3.906  13.786  12.101  0.1011 -0.0650  0.1037
 9088W        W24982  17.617  16.895   3.555  0.1456 -0.1299  0.1738
 9089W        W24983   9.560  14.736  12.902 -0.0777 -0.2990  0.0911
 9090W        W24984  10.686   0.897  12.304 -0.5332  0.1444  0.3295
 9091W        W24985   7.976  15.166   1.206 -0.1844 -0.0095 -0.1371
 9092W        W24986  19.040  10.119  15.185  0.2634 -0.1387  0.1713
 9093W        W24987   9.678  12.126  12.026 -0.0035 -0.0888  0.1919
 9094W        W24988  17.240  10.055   1.514 -0.0292  0.2599 -0.0264
 9095W        W24989  13.003  11.129  11.757 -0.2169 -0.1301  0.1398
 9096W        W24990   0.146  10.730  13.170 -0.0576 -0.1743  0.2954
 9097W        W24991  18.102   8.225  13.961  0.0198 -0.1230 -0.2965
 9098W        W24992   3.446   3.010  12.874  0.3924  0.2693  0.1317
 9099W        W24993   7.295   3.061  14.425  0.1223  0.0441  0.0560
 9100W        W24994  10.133   1.646   0.140  0.2888  0.0072 -0.0758
 9101W        W24995  18.119  11.040  12.579  0.0347  0.1518  0.2551
 9102W        W24996  11.760  18.652   4.770  0.2078  0.1256 -0.0689
 9103W        W24997  18.968   5.095   0.277 -0.1946  0.1052  0.1540
 9104W        W24998   1.274   6.458  12.093  0.1375 -0.2275 -0.3291
 9105W        W24999  10.296  18.177  11.856  0.1210  0.1429 -0.1116
 9106W        W25000  18.331   5.195   1.327 -0.1680 -0.2202  0.0165
 9107W        W25001   2.563  16.360  12.509  0.0217 -0.3467  0.1007
 9108W        W25002   8.074   9.591  14.724  0.2544 -0.2281  0.2371
 9109W        W25003  15.395  15.590   2.489  0.0718 -0.1884 -0.1685
 9110W        W25004   1.275   0.708  10.666  0.3880  0.4320  0.3402
 9111W        W25005   2.138   4.594  11.903  0.2288  0.0329  0.0878
 9112W        W25006  16.520  18.943  11.759  0.0648 -0.1888  0.0097
 9113W        W25007  16.637  12.012   0.868  0.0917  0.1284 -0.0581
 9114W        W25008   3.524  12.782  13.111 -0.0369 -0.0296 -0.1149
 9115W        W25009  12.466   1.948   5.340 -0.0109 -0.1277 -0.2869
 9116W        W25010  14.919  10.969   4.637 -0.2809  0.0862 -0.2918
 9117W        W25011  15.206   8.537   4.190 -0.0646 -0.1934 -0.0763
 9118W        W25012   2.609  11.864   3.670  0.0401 -0.1386 -0.1033
 9119W        W25013   9.665   4.533   5.128  0.0859 -0.2297 -0.0691
 9120W        W25014   0.905  10.423   1.510  0.1262 -0.3039 -0.0213
 9121W        W25015   3.818   2.534  14.658  0.1303 -0.0093  0.1390
 9122W        W25016   6.108  11.720  12.943  0.0445 -0.1127 -0.1232
 9123W        W25017   1.879   5.705  10.847 -0.0546 -0.0108  0.1834
 9124W        W25018  17.509   5.682   1.589  0.0105  0.2319 -0.2790
 9125W        W25019  13.290   3.763  10.667 -0.0298 -0.2571  0.2571
 9126W        W25020  14.969  12.188   2.562  0.0495 -0.1971 -0.2805
 9127W        W25021   8.988   4.140  15.041  0.1438  0.1854  0.0531
 9128W        W25022  12.206   0.493  13.888 -0.0646  0.0193  0.0867
 9129W        W25023  15.494   7.299   3.592 -0.0266  0.0192 -0.2013
 9130W        W25024   6.048   5.786  13.606 -0.0178 -0.0132 -0.1446
 9131W        W25025   0.616  10.881   1.467 -0.1739 -0.0319 -0.2134
 9132W        W25026   0.191   1.829  11.876 -0.0738  0.3473  0.3383
 9133W        W25027  14.733  16.693   4.079 -0.0643 -0.3342  0.2128
 9134W        W25028   3.439  17.394  10.477  0.0792 -0.1194  0.0547
 9135W        W25029  10.221  18.012   3.834 -0.0168  0.0066 -0.0388
 9136W        W25030   1.465   5.167   3.118  0.1189 -0.1013  0.1929
 9137W        W25031   7.063   2.774  15.115  0.3810 -0.1940  0.0819
 9138W        W25032   0.249  12.468   1.789 -0.1146 -0.0525 -0.0442
 9139W        W25033   2.476  12.599   4.162 -0.2852  0.3242  0.2333
 9140W        W25034   5.492   2.860  12.489 -0.6490  0.0746  0.0936
 9141W        W25035  10.273   8.850   0.816 -0.0690 -0.2226  0.1100
 9142W        W25036   1.383  18.336  13.333  0.0698 -0.3068 -0.1804
 9143W        W25037  11.555   0.996  12.094 -0.1712 -0.1347 -0.2191
 9144W        W25038  18.907  15.927   1.683  0.0195  0.0457  0.3640
 9145W        W25039  18.721   2.446  12.425  0.0832  0.1098 -0.1232
 9146W        W25040   3.792   2.114  12.282 -0.1639  0.0451 -0.3770
 9147W        W25041  11.462   7.167   3.584 -0.2584  0.0726 -0.2305
 9148W        W25042   3.004  19.019  12.437 -0.4571  0.0825 -0.0248
 9149W        W25043   8.421   7.048  14.327  0.0384 -0.0302  0.0360
 9150W        W25044   0.635  10.860  10.384  0.0952  0.1657  0.0191
 9151W        W25045   1.749  10.862   3.302  0.0576 -0.1306  0.4399
 9152W        W25046   6.316  14.708  14.276 -0.0837  0.2178  0.3781
 9153W        W25047  11.926  15.899  14.886  0.1366  0.3493  0.0216
 9154W        W25048   6.791  12.524  11.844 -0.1737  0.2539 -0.0727
 9155W        W25049   8.658   3.291   3.520 -0.2901  0.0858  0.1087
 9156W        W25050   8.076   9.520   5.488  0.1847 -0.2600  0.1677
 9157W        W25051   5.492   1.761  11.143 -0.0852  0.1044 -0.4054
 9158W        W25052  11.282  10.394  13.313  0.1326  0.2880 -0.0955
 9159W        W25053  11.178   2.395   2.776  0.1484  0.3858  0.0668
 9160W        W25054  10.586  18.735   2.070  0.2038  0.1936 -0.0096
 9161W        W25055   1.592  18.517  11.070  0.0691  0.1686 -0.0633
 9162W        W25056  11.914  16.002  12.531 -0.1196 -0.3215 -0.3108
 9163W        W25057  15.717  12.574  14.693  0.0826 -0.0224  0.0355
 9164W        W25058  18.640  18.390  13.195  0.2176  0.3589 -0.0721
 9165W        W25059   4.266   9.972  12.625 -0.1980 -0.1696  0.0173
 9166W        W25060   9.623   2.867   3.010  0.0529 -0.1515 -0.0887
 9167W        W25061   7.964   4.260   4.335 -0.0774 -0.2667  0.0755
 9168W        W25062   5.631   8.141   5.689 -0.1114  0.1453  0.1306
 9169W        W25063   9.761   3.339   3.318 -0.0126 -0.2270  0.0159
 9170W        W25064  10.116  16.065  10.189 -0.1416  0.2040  0.1078
 9171W        W25065   8.465  11.915  11.524  0.0467 -0.1428  0.3524
 9172W        W25066  16.911   4.433  11.927  0.4681  0.2562  0.1082
 9173W        W25067   5.672   3.963   1.881  0.0947  0.1773 -0.2156
 9174W        W25068   5.452   4.152   3.788 -0.1183 -0.0706  0.2166
 9175W        W25069   6.497  11.554   4.510 -0.0438 -0.0299  0.2898
 9176W        W25070   6.153  10.168  15.062 -0.0121  0.0956 -0.1203
 9177W        W25071   2.705   7.472   9.435  0.1628  0.0312  0.1520
 9178W        W25072   5.478   3.167   3.710 -0.0971  0.2223 -0.0966
 9179W        W25073   6.466  13.019   0.568 -0.0593 -0.1379 -0.2346
 9180W        W25074   6.224  16.122  10.857  0.0273 -0.1274  0.3529
 9181W        W25075   0.367  13.465  11.800 -0.1183  0.2255  0.0335
 9182W        W25076   3.375   4.087  11.047 -0.2128  0.0370 -0.1396
 9183W        W25077   2.521  15.573   4.269  0.2583  0.3480  0.0310
 9184W        W25078   9.764  12.006  14.495  0.2740 -0.0326 -0.0681
 9185W        W25079   9.210   3.486   0.311  0.0911 -0.0815 -0.0110
 9186W        W25080  15.510   3.438  10.825 -0.1734 -0.4276  0.3615
 9187W        W25081   1.447  15.454   4.499 -0.1982  0.5081 -0.0009
 9188W        W25082  11.844   5.763   2.870  0.0851  0.1717  0.2389
 9189W        W25083  16.545   1.321   3.262 -0.2561  0.0379 -0.2582
 9190W        W25084  10.669   0.423   2.957  0.5579  0.0681 -0.1563
 9191W        W25085  15.597   8.398  12.362 -0.0994 -0.0962 -0.5014
 9192W        W25086  10.994   7.094   3.663 -0.0297  0.2301  0.2852
 9193W        W25087   8.623   1.909   0.100  0.1507 -0.3230  0.3343
 9194W        W25088   7.375   9.759  15.181  0.0195 -0.0928 -0.3097
 9195W        W25089  15.586   3.435  14.058  0.1193  0.1481 -0.1883
 9196W        W25090   2.728   6.838  15.072 -0.0815 -0.1574 -0.1535
 9197W        W25091  18.339  12.537  12.467  0.1490  0.0437 -0.3247
 9198W        W25092   2.925  19.161  13.858  0.0074 -0.0550 -0.0294
 9199W        W25093   0.119   5.855  14.767  0.2060  0.1854 -0.0976
 9200W        W25094   5.772   2.111   4.505 -0.0291  0.4199  0.0246
 9201W        W25095  13.851   2.085   4.556  0.0128  0.2072  0.0079
 9202W        W25096   4.368   5.401  14.454 -0.0137  0.0530  0.2130
 9203W        W25097   9.635  16.566   0.112  0.1321 -0.0747  0.3159
 9204W        W25098  10.412   3.815   5.003  0.2206 -0.1553  0.1511
 9205W        W25099  18.279  12.437   1.602  0.0497  0.3489  0.0529
 9206W        W25100   3.194   5.357  12.352  0.2630 -0.0875 -0.0130
 9207W        W25101  18.379   2.310  12.089 -0.0930 -0.1397 -0.3226
 9208W        W25102   4.032  15.583  11.477  0.0298 -0.2844 -0.4381
 9209W        W25103   5.312   0.486   5.242 -0.2109 -0.0058  0.0071
 9210W        W25104  12.284   7.332  13.687  0.1051 -0.2703  0.0372
 9211W        W25105  11.265  15.385   3.354  0.1013  0.0931 -0.0470
 9212W        W25106  16.586  11.627   3.729 -0.0133  0.0952  0.1335
 9213W        W25107   0.356  10.971   2.735  0.1725 -0.1549  0.0311
 9214W        W25108  11.374  15.915  11.970  0.2662  0.1784 -0.1018
 9215W        W25109  17.320   6.508   2.754  0.0405 -0.1083  0.2181
 9216W        W25110  14.629  16.559   1.148  0.1607 -0.2072  0.1195
 9217W        W25111  14.151   3.595  13.068 -0.1671  0.3515  0.1121
 9218W        W25112  16.912  18.527   2.927  0.1867 -0.0564 -0.1826
 9219W        W25113  16.697   3.241   1.402  0.1063 -0.0025 -0.1473
 9220W        W25114   9.980  15.130  11.763 -0.0616 -0.1492  0.3131
 9221W        W25115  18.128   7.005   2.702 -0.4400  0.0823 -0.0448
 9222W        W25116   9.623  16.707   3.104 -0.2860  0.0639  0.0764
 9223W        W25117  16.437   9.193  11.656 -0.0808 -0.0950 -0.1568
 9224W        W25118  15.824  15.687   2.883  0.1113  0.1503  0.0669
 9225W        W25119   8.483  14.165  12.977 -0.2213 -0.0346  0.1454
 9226W        W25120  12.987   4.356   5.576 -0.0587 -0.0719 -0.2125
 9227W        W25121   4.759   0.918  10.820 -0.0270  0.1409  0.0834
 9228W        W25122   9.468  14.245   5.048  0.1736  0.0644 -0.0796
 9229W        W25123   6.717   9.584   3.890  0.0464  0.0151  0.0612
 9230W        W25124   2.068  14.197   3.181 -0.0792  0.1996  0.1149
 9231W        W25125   3.292   2.319   3.961 -0.0391 -0.2574  0.0130
 9232W        W25126  16.016   1.381  12.366 -0.3907  0.0386  0.0768
 9233W        W25127   6.365   8.976  10.564 -0.1688 -0.0531  0.0041
 9234W        W25128   0.133   1.873  13.632 -0.4020 -0.2790  0.2398
 9235W        W25129  16.359   3.628   1.363  0.3506 -0.0355 -0.0976
 9236W        W25130   9.767  14.573  11.334 -0.0699 -0.1663 -0.1599
 9237W        W25131  10.112   7.669  14.482  0.0635  0.2574 -0.0701
 9238W        W25132   8.498   1.838   4.212 -0.3431  0.1997 -0.2326
 9239W        W25133   0.617  15.654   5.042  0.3418  0.1000  0.1229
 9240W        W25134   7.323   8.959   3.740 -0.1687  0.1315 -0.0828
 9241W        W25135   0.748  10.080  11.105  0.0674 -0.5022 -0.2619
 9242W        W25136   5.965   2.802   3.854  0.4786  0.1754  0.0868
 9243W        W25137  17.463  13.625  12.796 -0.3117 -0.0569  0.0950
 9244W        W25138   1.547  15.872  12.257 -0.0686  0.1454  0.2743
 9245W        W25139  15.759   4.215  14.397 -0.2890  0.0644 -0.3341
 9246W        W25140   4.693   7.910  14.836 -0.1560 -0.1006  0.2289
 9247W        W25141   0.097  18.767   3.415 -0.1518 -0.1527  0.3589
 9248W        W25142  16.006  11.804  11.132 -0.1541 -0.1401  0.0217
 9249W        W25143  18.795   9.821   2.376  0.3160 -0.2209 -0.3801
 9250W        W25144   9.629  10.205  11.387 -0.3226  0.1190  0.4341
 9251W        W25145  13.797   3.610  13.809  0.0447 -0.1793  0.1413
 9252W        W25146  13.926   0.819   4.695  0.3154  0.2189  0.0558
 9253W        W25147   5.641   4.503  12.927  0.0942 -0.1234 -0.0708
 9254W        W25148   8.502  17.396  11.361 -0.0004  0.0029 -0.1031
 9255W        W25149   4.518   6.935  14.656 -0.3744  0.0359  0.0970
 9256W        W25150   9.539  15.255   0.215 -0.2447  0.1397  0.1496
 9257W        W25151   2.230   1.669  12.528 -0.0140  0.1706  0.1634
 9258W        W25152   5.151   4.003   3.343 -0.0041  0.0936 -0.0466
 9259W        W25153  10.909  17.110  15.166 -0.2728  0.0957 -0.2787
 9260W        W25154   4.018   3.413   0.157 -0.0032 -0.0380 -0.3696
 9261W        W25155   4.535   3.694   4.400  0.3480 -0.3791 -0.2061
 9262W        W25156   2.681   3.458  13.353 -0.0313 -0.3546 -0.1782
 9263W        W25157  12.970   2.915   2.764 -0.1415 -0.0901  0.2768
 9264W        W25158   8.151  18.717   2.851 -0.1024  0.2447  0.2258
 9265W        W25159  14.366   6.510  13.946  0.0148 -0.0882 -0.1991
 9266W        W25160   9.446  18.098  14.977 -0.1068  0.0426 -0.0198
 9267W        W25161   2.345  13.619   3.022  0.0713 -0.0147 -0.0132
 9268W        W25162   7.936  16.572  10.970 -0.1432 -0.0124  0.1296
 9269W        W25163  17.614  10.734  13.217 -0.0394  0.0964  0.2087
 9270W        W25164  10.174  18.905   1.742 -0.0060  0.1456 -0.1203
 9271W        W25165  16.096   5.451  10.954 -0.0729  0.3440 -0.3015
 9272W        W25166   5.559   0.090  10.106 -0.0638  0.1072 -0.2598
 9273W        W25167   4.965  17.561   1.928  0.1399  0.2451 -0.3369
 9274W        W25168   2.746   4.768   2.845  0.1500  0.1584 -0.2633
 9275W        W25169   3.916  16.382   0.230 -0.1622  0.5122 -0.0191
 9276W        W25170  13.977  16.498  14.637  0.0125 -0.1633  0.1947
 9277W        W25171   8.679   9.181   2.768 -0.2319  0.1645  0.1542
 9278W        W25172   4.064   8.078  12.610  0.0545 -0.0418  0.2926
 9279W        W25173  16.600  16.544  11.973 -0.2363 -0.0618 -0.1272
 9280W        W25174  15.706   5.716   0.128  0.0307  0.2685 -0.0985
 9281W        W25175  14.622   4.481  15.069 -0.2793 -0.0877  0.4249
 9282W        W25176   2.721   7.833  14.267 -0.0164  0.3029 -0.3104
 9283W        W25177  17.880   7.336  11.715 -0.1518 -0.2418  0.2211
 9284W        W25178   5.212  14.785  14.425 -0.3456  0.0608  0.1194
 9285W        W25179   8.514  10.011  11.193  0.2367  0.0014  0.3827
 9286W        W25180  15.346  12.984   3.441  0.3020  0.1088 -0.0393
 9287W        W25181   2.173   0.256   1.702  0.0478 -0.0491 -0.0181
 9288W        W25182   0.849  17.810  12.062  0.1682  0.2325 -0.0302
 9289W        W25183  12.066  18.148   2.314  0.1381  0.3771  0.0901
 9290W        W25184   1.581   5.727   3.262  0.2083 -0.2068 -0.2682
 9291W        W25185   0.084   5.358   4.840 -0.1591 -0.0972  0.0068
 9292W        W25186   2.201  17.522  11.903 -0.0235 -0.3547  0.2001
 9293W        W25187   0.973  14.451  11.349 -0.1927  0.0099  0.4160
 9294W        W25188  18.775  12.943  14.768 -0.2885  0.0722  0.1641
 9295W        W25189  10.654  17.563  11.053  0.2624  0.1639 -0.1820
 9296W        W25190   1.801  17.416  14.800 -0.0929  0.2125  0.1793
 9297W        W25191   5.763  12.605  13.655 -0.1221 -0.0885  0.1941
 9298W        W25192   9.727  15.985  12.582  0.0954 -0.0425 -0.1909
 9299W        W25193  10.595   8.602  12.647  0.1176  0.0756 -0.2112
 9300W        W25194  11.978  10.574  14.148  0.1033  0.0396  0.0475
 9301W        W25195  16.826  18.890   4.815 -0.1670 -0.0157 -0.1216
 9302W        W25196   7.350  18.136   4.884 -0.0622  0.0296  0.0620
 9303W        W25197  14.438   3.368   2.087  0.0456 -0.0147 -0.0008
 9304W        W25198   7.708   3.372   3.898  0.1553 -0.1014  0.1252
 9305W        W25199  18.312  11.008   2.630 -0.0008 -0.3524 -0.2908
 9306W        W25200   1.826  10.558  15.049 -0.1623 -0.1600  0.1674
 9307W        W25201   9.636   9.025   4.640 -0.0712 -0.0708 -0.2631
 9308W        W25202   0.578  12.398   4.851 -0.2398 -0.3254 -0.1478
 9309W        W25203  14.833   0.173   3.222  0.1602 -0.3912  0.1150
 9310W        W25204   8.903   5.230  14.177  0.2589 -0.2036 -0.2393
 9311W        W25205   5.113   7.318  11.855 -0.0864 -0.0276 -0.2079
 9312W        W25206   7.545   4.226   1.887 -0.4963 -0.1247 -0.0380
 9313W        W25207   6.909  11.353   4.373 -0.3539  0.0238 -0.1903
 9314W        W25208   9.311   7.676  12.161  0.1691 -0.3064 -0.2890
 9315W        W25209  10.470   3.110  12.866 -0.2350  0.2028 -0.0566
 9316W        W25210   6.815   1.681  13.795  0.2812  0.0263  0.0322
 9317W        W25211   3.066   2.127   2.516  0.2337 -0.0381 -0.2304
 9318W        W25212   5.682   1.036  11.285  0.0564 -0.0739  0.1854
 9319W        W25213   1.631  17.270   0.794  0.3578  0.0277  0.0051
 9320W        W25214  14.833   8.893   4.435 -0.4285 -0.0547 -0.0134
 9321W        W25215   4.918   6.845   0.373 -0.0992  0.1270 -0.2732
 9322W        W25216  18.224   1.532   3.135  0.2372 -0.3339 -0.1726
 9323W        W25217  15.520  14.369   3.247  0.0851 -0.0919  0.1439
 9324W        W25218  12.631   6.995   1.578  0.2487  0.1313 -0.0775
 9325W        W25219  12.325   9.598   0.007 -0.0063 -0.0675  0.0763
 9326W        W25220   5.919   3.625   0.284  0.0515 -0.1412  0.1424
 9327W        W25221  18.714   1.656   4.009  0.1016  0.3141 -0.2711
 9328W        W25222  15.305   5.799   1.752  0.0391 -0.1562  0.2954
 9329W        W25223   6.001   6.798   2.816  0.1084 -0.1558  0.0150
 9330W        W25224   4.298  18.830   4.665  0.2568 -0.0565 -0.3470
 9331W        W25225   5.451   6.490   1.871 -0.2796 -0.4200  0.1825
 9332W        W25226   8.147  15.691   3.956  0.2971 -0.0338 -0.1820
 9333W        W25227  15.351   6.968   3.945  0.1198  0.0231  0.0469
 9334W        W25228   6.345   1.899   0.983  0.3021 -0.0864 -0.1390
 9335W        W25229  18.786  16.021   3.089 -0.2443  0.0069 -0.0006
 9336W        W25230   3.347  12.928   4.457  0.0137  0.0815 -0.5433
 9337W        W25231   1.285  15.826  10.905 -0.3482  0.1068  0.1068
 9338W        W25232   3.462   2.795  11.735  0.0553 -0.2894  0.3742
 9339W        W25233   4.610  13.182   0.533  0.0228 -0.1425 -0.0939
 9340W        W25234  14.831  11.369  13.584  0.0370 -0.1000 -0.0189
 9341W        W25235  11.547  18.464   2.382 -0.2236  0.0069 -0.0647
 9342W        W25236  15.752   7.386  12.240  0.1431 -0.0611  0.1434
 9343W        W25237   5.367  17.794   9.996  0.2969  0.1764  0.2162
 9344W        W25238  12.274   1.754   0.263  0.0114 -0.2380  0.1155
 9345W        W25239   3.614   9.582  13.293 -0.1391  0.3336  0.1165
 9346W        W25240   4.822  11.323  15.102  0.1947 -0.0155  0.1325
 9347W        W25241  11.912   2.889   4.142 -0.2030 -0.1977 -0.1980
 9348W        W25242   5.209   6.903   9.518 -0.1380 -0.0907 -0.2413
 9349W        W25243   8.839  15.678  12.189 -0.0198  0.0847  0.3035
 9350W        W25244  17.121  14.673   2.532  0.3130 -0.0854  0.0673
 9351W        W25245   0.562   4.416  11.936 -0.0772 -0.1421  0.1952
 9352W        W25246  17.260   3.960  11.927 -0.0020 -0.1158 -0.0028
 9353W        W25247   3.058   9.668   2.295  0.1581  0.2443 -0.4012
 9354W        W25248  13.986   7.955   4.959 -0.0489  0.0036  0.0278
 9355W        W25249   7.059  16.988   0.336 -0.3275 -0.1974  0.0981
 9356W        W25250  11.509  13.373  11.299  0.0044  0.1043 -0.0307
 9357W        W25251  14.690  18.008   2.187 -0.0957  0.0988  0.0359
 9358W        W25252   3.552  16.729  11.283 -0.1222  0.0493 -0.3308
 9359W        W25253  11.046  11.684   0.125  0.0323 -0.0159  0.0853
 9360W        W25254   4.227   6.748   1.075  0.1214  0.2838 -0.0963
 9361W        W25255   7.393   6.450  12.747  0.0582 -0.0607 -0.3004
 9362W        W25256  11.322   3.003   4.023 -0.1249  0.1826  0.3196
 9363W        W25257   2.836   6.204   0.656  0.1616  0.3380 -0.3141
 9364W        W25258  19.153  14.533   2.889 -0.1841 -0.1303  0.0604
 9365W        W25259   2.150  18.310   5.010  0.0099 -0.5048 -0.1580
 9366W        W25260   7.309   3.774  10.792 -0.0090 -0.1998 -0.0159
 9367W        W25261   9.927  15.686  13.169 -0.0601  0.4437  0.0535
 9368W        W25262  17.698  15.614   4.262 -0.1593  0.1984  0.3761
 9369W        W25263  18.772   3.149   3.599 -0.2664 -0.0239  0.0402
 9370W        W25264  12.161  13.395  13.993 -0.0955 -0.3105  0.2084
 9371W        W25265  15.250   0.670  14.842 -0.0479  0.3003  0.1869
 9372W        W25266  15.476   1.135   0.239  0.2143 -0.1758  0.3945
 9373W        W25267   6.512   1.588   1.396  0.2071 -0.1775 -0.2178
 9374W        W25268   8.143   6.349   5.277  0.1499 -0.1082 -0.0367
 9375W        W25269  15.013   7.547   9.739 -0.3685 -0.0001 -0.1809
 9376W        W25270   0.035  12.590  12.606  0.1622  0.1578 -0.0296
 9377W        W25271   2.153   9.469   2.464 -0.1177 -0.2161 -0.0562
 9378W        W25272   5.517   7.656   0.227 -0.1836 -0.0364  0.0287
 9379W        W25273   4.354  15.004   3.066 -0.1431  0.2776  0.0404
 9380W        W25274  17.532  14.745  11.109  0.4498 -0.1372 -0.0205
 9381W        W25275  12.563  14.404  15.077 -0.3478 -0.0604 -0.0831
 9382W        W25276  15.810   5.580   0.595  0.0708  0.2941 -0.0004
 9383W        W25277   3.429  12.046   0.811 -0.2138  0.0205  0.0585
 9384W        W25278   3.400   2.994  13.367  0.2649  0.0208 -0.2419
 9385W        W25279   2.522   6.115   3.050 -0.2690  0.3572 -0.0742
 9386W        W25280  18.643   7.803  14.585  0.0238  0.2337 -0.0557
 9387W        W25281  15.411   6.586   0.754 -0.0005 -0.1931  0.0352
 9388W        W25282  17.195  13.042  14.439  0.2026 -0.0758  0.1429
 9389W        W25283   7.352  15.990  10.213 -0.2453 -0.0906 -0.0257
 9390W        W25284   5.799   8.016  13.634 -0.0883  0.0235  0.2129
 9391W        W25285  13.853  12.383   2.481 -0.5241 -0.2858 -0.1862
 9392W        W25286   7.734   1.154   1.428  0.1603 -0.1284  0.2289
 9393W        W25287   7.102  10.429  14.504 -0.1055 -0.1021 -0.1040
 9394W        W25288   1.186  14.301  12.489 -0.1330 -0.0021  0.0873
 9395W        W25289   0.763  13.301   4.249  0.1087 -0.2999 -0.1323
 9396W        W25290  18.240  17.844  14.719 -0.3531  0.3954 -0.0784
 9397W        W25291  18.350  16.064  14.992  0.2806  0.1722 -0.1367
 9398W        W25292   1.233   4.701   1.621  0.2427 -0.2905 -0.1056
 9399W        W25293   3.166  10.745   4.014 -0.0414  0.0652  0.0683
 9400W        W25294  17.626   0.556   4.609 -0.1881  0.0738 -0.0193
 9401W        W25295  15.299   8.229  14.695 -0.0887 -0.2680  0.1939
 9402W        W25296  11.780  15.091   2.630 -0.3494 -0.1710  0.1896
 9403W        W25297   5.408  15.459  15.076  0.1446  0.0580 -0.1712
 9404W        W25298   6.619  17.880  11.462  0.0420 -0.0282 -0.4023
 9405W        W25299  18.071   0.107   1.200 -0.2581  0.1984 -0.0803
 9406W        W25300  16.586  12.604  10.277  0.0819 -0.0113  0.1821
 9407W        W25301   9.520   8.681   9.611  0.4764 -0.0884  0.0597
 9408W        W25302   0.087  17.179   5.169  0.4230  0.1478  0.0452
 9409W        W25303   2.219   7.984  13.343  0.1021 -0.0904  0.1447
 9410W        W25304  10.118   0.776   3.579  0.0083  0.1265  0.2834
 9411W        W25305   5.934  13.211  13.636 -0.2195 -0.2208  0.1215
 9412W        W25306   7.794   7.383   4.696  0.0234 -0.0614  0.2246
 9413W        W25307   0.925  15.938   0.462  0.1223  0.0006 -0.0319
 9414W        W25308  14.052  17.191   3.539  0.2255  0.0882  0.3759
 9415W        W25309  12.943  14.686  12.461  0.2538 -0.0995 -0.1807
 9416W        W25310   4.678   1.015   4.308  0.2243  0.1535  0.1000
 9417W        W25311   7.737   6.620   3.938 -0.2042 -0.1615 -0.2950
 9418W        W25312   0.919   5.610  13.643 -0.6071  0.3018  0.0001
 9419W        W25313   1.568   9.339   0.776 -0.2034  0.4434 -0.3871
 9420W        W25314  11.857   8.904  11.524  0.1504 -0.3224  0.2141
 9421W        W25315  11.291  12.837   1.837 -0.0128 -0.1437 -0.0587
 9422W        W25316  11.788  15.070   3.204  0.0596  0.0016 -0.0488
 9423W        W25317  13.706  15.915  11.301 -0.3628  0.0645  0.2824
 9424W        W25318  12.152   5.197   4.268  0.2231  0.2176 -0.1234
 9425W        W25319   5.888  12.714   3.239  0.3796 -0.0526 -0.1994
 9426W        W25320   6.950   5.786   1.138  0.1223 -0.1712 -0.1218
 9427W        W25321   9.057  17.179   1.984 -0.0087 -0.1423 -0.0852
 9428W        W25322   0.213   7.275   5.613  0.1060 -0.0267 -0.3698
 9429W        W25323   2.941   9.103   4.270  0.0706  0.0641 -0.1109
 9430W        W25324  13.722  11.335  14.377 -0.0357  0.3370  0.0546
 9431W        W25325  13.850  18.328  12.053  0.0687  0.0953 -0.1343
 9432W        W25326   6.401   1.318  13.965  0.1494  0.0437  0.1995
 9433W        W25327  15.748   4.117   0.318 -0.0150 -0.1430  0.0065
 9434W        W25328  17.143   8.337   1.148  0.0940 -0.2561  0.2915
 9435W        W25329   3.054  16.866  11.488 -0.0305  0.0433 -0.2232
 9436W        W25330  11.800   7.003   3.928 -0.0293  0.0119 -0.1081
 9437W        W25331   0.908   5.221   2.333  0.2964  0.0434 -0.0984
 9438W        W25332  10.454  11.193   2.616  0.0969 -0.0070 -0.0177
 9439W        W25333  17.393   8.224   2.901 -0.0657 -0.0461  0.1286
 9440W        W25334  15.187   9.999  15.159  0.0451  0.2849 -0.0339
 9441W        W25335  18.417   5.897  12.127 -0.1158  0.2134 -0.0255
 9442W        W25336   0.112  13.049  12.380  0.2438  0.2028 -0.1512
 9443W        W25337  14.712   1.155  11.396 -0.0667  0.0105 -0.3276
 9444W        W25338  17.237  10.328   1.078 -0.0999 -0.0293 -0.2000
 9445W        W25339   8.916  14.060   2.625 -0.0638 -0.3879 -0.0210
 9446W        W25340  14.570  16.931  13.319 -0.1284  0.0487  0.2455
 9447W        W25341   8.482   0.239  11.251  0.0273  0.1621 -0.0422
 9448W        W25342   7.117  15.370   1.159  0.1129  0.0202 -0.2558
 9449W        W25343  13.019   8.943   2.549  0.0813 -0.0224 -0.4086
 9450W        W25344  12.630  12.105   3.220 -0.0343  0.2058  0.0123
 9451W        W25345  12.857   0.585  11.002  0.2354 -0.2696 -0.0201
 9452W        W25346   3.908   7.677   2.276 -0.0050 -0.0516 -0.1660
 9453W        W25347   9.650  12.351  13.206  0.3139  0.4715  0.3522
 9454W        W25348  17.696   5.144  13.763  0.2974 -0.1429 -0.4577
 9455W        W25349  18.963   4.077  12.435  0.1647  0.0664 -0.2047
 9456W        W25350  18.781   1.000   2.556  0.0879  0.0868 -0.1214
 9457W        W25351  17.688   8.629   3.744  0.1769 -0.0778 -0.3864
 9458W        W25352   0.285   5.021   1.200  0.1453  0.0558 -0.1153
 9459W        W25353   4.582  13.308  11.538 -0.0409  0.2404 -0.0444
 9460W        W25354  10.178  16.228   3.087 -0.2076  0.0061  0.2248
 9461W        W25355  10.983   2.877  11.908 -0.2208  0.1968 -0.2923
 9462W        W25356  11.276  12.918   0.077 -0.2033  0.1121  0.1015
 9463W        W25357  17.587   8.138   0.795  0.1077  0.0621  0.1222
 9464W        W25358  18.151  18.246   1.437 -0.0256  0.2165 -0.0668
 9465W        W25359  15.806  15.770  13.814  0.1519 -0.0923  0.0723
 9466W        W25360  17.198   4.279  13.663  0.0512 -0.1601  0.1721
 9467W        W25361   6.815   7.861   1.277  0.1698 -0.1518  0.4401
 9468W        W25362   1.175  14.411   0.345  0.0280 -0.1326 -0.4786
 9469W        W25363  10.889  10.001  12.813  0.2689  0.0371  0.0243
 9470W        W25364   2.223   8.911  11.088  0.0348  0.0798 -0.3709
 9471W        W25365  11.775   0.915   3.747 -0.2231 -0.1586 -0.2005
 9472W        W25366  15.916   2.356   4.443  0.0446 -0.1439  0.0564
 9473W        W25367   0.235  17.325   3.546 -0.1234  0.0103 -0.0395
 9474W        W25368  14.236  17.382   1.085 -0.1552  0.1227 -0.1701
 9475W        W25369   4.208   0.966   2.875 -0.3633  0.2240 -0.2814
 9476W        W25370   4.317  11.695   0.612 -0.0019  0.1659  0.2265
 9477W        W25371  17.342   9.227   0.050  0.2272 -0.2339  0.4761
 9478W        W25372   0.454   2.199  12.142 -0.0652  0.2139 -0.1403
 9479W        W25373   8.054   1.340   0.364  0.0434  0.0939  0.1607
 9480W        W25374  11.957   9.310  14.940 -0.1485 -0.0354 -0.0091
 9481W        W25375   8.137   4.815   0.850 -0.7500  0.0387 -0.3133
 9482W        W25376  15.468  14.295  11.234  0.2614  0.1247 -0.0679
 9483W        W25377   4.988   7.638  10.657  0.0571  0.1551  0.0903
 9484W        W25378   3.452   4.453  14.029  0.1185 -0.1977  0.2299
 9485W        W25379   5.916   2.482  10.737 -0.0751  0.2642  0.3463
 9486W        W25380   1.101  14.998  14.429  0.1188 -0.4145 -0.0897
 9487W        W25381   3.847   4.602  14.384  0.0627  0.0228  0.0569
 9488W        W25382  14.802  13.026  14.208 -0.0022 -0.3225  0.0522
 9489W        W25383   2.382  15.539   1.639 -0.1476  0.3198 -0.0720
 9490W        W25384  18.819  19.012   4.091  0.2201  0.3261  0.2354
 9491W        W25385   3.703   7.337   3.223 -0.1557 -0.0737  0.3210
 9492W        W25386   8.445  11.548   0.120  0.0995  0.2032 -0.1330
 9493W        W25387   6.135   8.404   2.844 -0.0692 -0.0458 -0.3110
 9494W        W25388  18.925   3.195   1.781  0.0521  0.2149 -0.1756
 9495W        W25389   7.498  15.130  12.591  0.1369 -0.1080  0.0366
 9496W        W25390   6.781  17.787  14.800 -0.0215 -0.2371 -0.1572
 9497W        W25391   7.051   1.761  14.803 -0.2156  0.0739 -0.2343
 9498W        W25392  10.366  13.391  13.640  0.1852  0.2994 -0.0266
 9499W        W25393  12.688  13.420   4.019  0.1184 -0.2542  0.3114
 9500W        W25394  13.298  15.168   1.302 -0.0961  0.1530  0.0345
 9501W        W25395   0.169  18.564   1.618 -0.0626 -0.1465 -0.1342
 9502W        W25396  16.250  13.258  12.192  0.1273  0.3512  0.1524
 9503W        W25397  12.291   4.635   3.343  0.0215  0.2334  0.4251
 9504W        W25398  12.802  14.739   3.481  0.0458  0.3968  0.0262
 9505W        W25399  18.259   3.936   4.524  0.0852  0.1906 -0.2451
 9506W        W25400  15.102   2.831   4.909  0.1524 -0.1899  0.1328
 9507W        W25401  13.450   0.719   1.717 -0.1671 -0.1173 -0.2744
 9508W        W25402  17.906   6.643   4.200  0.0088 -0.3512 -0.1605
 9509W        W25403   2.870  12.849  14.646  0.1287  0.1492  0.0886
 9510W        W25404   5.244  10.105   0.732  0.2229 -0.0571  0.2003
 9511W        W25405   2.830   9.205  11.753  0.0669 -0.0688  0.2091
 9512W        W25406  16.545   4.576  12.709 -0.3437 -0.1709  0.0379
 9513W        W25407   4.794  13.991   4.692  0.1542  0.0465  0.5155
 9514W        W25408   8.308  13.253   0.503  0.1936  0.0671  0.0678
 9515W        W25409  15.480  10.122  10.325 -0.0902 -0.0126  0.2110
 9516W        W25410  17.621  17.448  14.234  0.1283 -0.0190 -0.2720
 9517W        W25411  10.443   2.798  11.781  0.2675  0.3565  0.1460
 9518W        W25412   4.539  14.173   2.061  0.0260  0.1415  0.1153
 9519W        W25413   6.940  13.734  10.420  0.0336  0.3560  0.2658
 9520W        W25414   9.109  12.310   0.810  0.1232 -0.0020 -0.3018
 9521W        W25415  14.712  10.903   3.662  0.0037  0.1669  0.0231
 9522W        W25416   5.712   6.612  15.098  0.2788 -0.1999  0.3431
 9523W        W25417   0.663  17.749  10.242 -0.0580  0.1204  0.0888
 9524W        W25418  10.252  11.208  12.703  0.1133 -0.0620  0.0846
 9525W        W25419  12.806   3.825   1.804  0.2547  0.0215  0.2302
 9526W        W25420   3.311  10.527   4.450  0.0192 -0.0191 -0.0853
 9527W        W25421   8.177   7.479  15.187 -0.1667  0.1069 -0.4111
 9528W        W25422   6.724  18.975  11.793 -0.0939  0.1044 -0.0804
 9529W        W25423   0.160  10.772   2.228  0.0962  0.2320  0.0144
 9530W        W25424   8.388   2.789  12.897  0.0647 -0.2607  0.0215
 9531W        W25425  14.443  18.667  11.262  0.0668  0.0290 -0.2376
 9532W        W25426   5.738   0.511  13.667 -0.1350 -0.0837  0.2111
 9533W        W25427  16.828  10.851   1.896  0.1213 -0.0436  0.0156
 9534W        W25428   2.750  18.727  14.890 -0.1822 -0.0653  0.2217
 9535W        W25429   0.503   6.827   3.496  0.4056  0.0578  0.1544
 9536W        W25430  18.554   4.897   2.803 -0.0175 -0.1709 -0.0733
 9537W        W25431   4.198   0.484  11.362  0.0955  0.8178 -0.1058
 9538W        W25432   2.688   6.263  13.716 -0.0282 -0.0833  0.2044
 9539W        W25433   6.450  17.753   4.617 -0.4158 -0.0804  0.0623
 9540W        W25434  17.655   8.885  12.600  0.0442  0.1490  0.2804
 9541W        W25435  11.413  14.772   4.318 -0.0753  0.1416  0.0257
 9542W        W25436  15.981   5.092  13.914 -0.2141  0.0313  0.1010
 9543W        W25437  15.533  16.994   2.537 -0.1353  0.0954 -0.3846
 9544W        W25438   3.758  11.541   5.036 -0.0483  0.1543  0.1138
 9545W        W25439   3.376  13.592   5.108  0.0898  0.3083  0.2771
 9546W        W25440   7.630  11.272   1.167 -0.1010 -0.1018 -0.1275
 9547W        W25441   0.117  14.342  11.780  0.0602  0.4070 -0.0423
 9548W        W25442  14.698   0.768   2.558 -0.0693  0.0051 -0.1624
 9549W        W25443   7.468  16.977   4.024  0.1649 -0.0958 -0.1447
 9550W        W25444   2.646  14.239  10.973  0.1185  0.2187  0.0384
 9551W        W25445  13.790   8.417   1.614 -0.3780 -0.0047 -0.1115
 9552W        W25446  13.246   5.671  14.721  0.0075  0.0350  0.1900
 9553W        W25447   3.745   6.823   4.137  0.2726  0.2384 -0.2562
 9554W        W25448  13.477  17.489  14.548 -0.2248 -0.1103  0.0558
 9555W        W25449   7.125  14.056   0.235  0.0100  0.1139 -0.0119
 9556W        W25450  16.943  10.987   3.933 -0.3645 -0.1725  0.3735
 9557W        W25451   1.065   2.301   1.074 -0.1187  0.2433  0.1639
 9558W        W25452   2.887  11.980  14.641 -0.1237 -0.3304 -0.2206
 9559W        W25453   9.968   8.601   0.489 -0.4513 -0.0648 -0.2193
 9560W        W25454   8.365   9.552  11.078 -0.1192  0.2659  0.0758
 9561W        W25455   0.707  15.134   3.745 -0.1200  0.2063 -0.1870
 9562W        W25456  17.243  15.729   2.234 -0.0372  0.0783  0.1925
 9563W        W25457   5.579  13.030   1.540  0.1240  0.0203  0.1646
 9564W        W25458  12.142  18.624   0.840  0.0294  0.1133  0.1303
 9565W        W25459  12.087   4.830   2.866 -0.0446  0.0358 -0.2003
 9566W        W25460   9.735   3.144   0.098 -0.0399  0.0906  0.0766
 9567W        W25461   2.391  19.006   2.989  0.0387 -0.3403  0.1669
 9568W        W25462   2.297  15.720  14.891 -0.2010  0.1155  0.4043
 9569W        W25463  18.054   2.075  13.309  0.4536  0.2074 -0.0408
 9570W        W25464   5.964   4.497  12.498 -0.2636  0.1137  0.3324
 9571W        W25465   6.263   0.576  11.902 -0.0511  0.2266 -0.2437
 9572W        W25466   2.989  17.022   5.702 -0.3679 -0.0057  0.1194
 9573W        W25467   7.508   6.117   2.584  0.0741  0.0016  0.1166
 9574W        W25468  14.777   6.283  12.124 -0.1245  0.2181  0.2984
 9575W        W25469  10.617  10.080  11.558 -0.1446  0.0811 -0.2057
 9576W        W25470   4.696   4.231   9.294 -0.0919  0.1026 -0.4212
 9577W        W25471  14.768  16.747  11.112  0.0007  0.0849  0.1907
 9578W        W25472   2.549   3.101  14.384 -0.2771  0.1457  0.0986
 9579W        W25473   6.475   4.088  13.605  0.2041  0.0131 -0.2044
 9580W        W25474   2.977  11.459  13.504  0.3009  0.1821 -0.1075
 9581W        W25475  16.316  12.078   0.023 -0.0579 -0.0032 -0.2666
 9582W        W25476  10.706  12.981   2.318 -0.1132  0.1026 -0.2997
 9583W        W25477  17.281  19.094   3.352 -0.1654  0.3574 -0.0669
 9584W        W25478   4.929   2.789  11.509 -0.3961  0.0648 -0.3009
 9585W        W25479  11.983   8.119  13.136  0.1928 -0.0745  0.2867
 9586W        W25480   0.022   7.529  10.075 -0.1807  0.0818 -0.0741
 9587W        W25481  14.107  15.697   1.753 -0.1674  0.3260 -0.3559
 9588W        W25482   5.736   8.370  14.593  0.0271 -0.3563  0.1226
 9589W        W25483  10.895   6.039   1.291 -0.2134 -0.0343 -0.5891
 9590W        W25484   5.656  11.221   0.287 -0.4178  0.3742 -0.1645
 9591W        W25485  10.184  16.613   2.191  0.0373  0.1174 -0.3817
 9592W        W25486   6.744  12.848   3.761 -0.2011 -0.0208  0.0563
 9593W        W25487  14.595   9.192  11.638 -0.1687  0.4064 -0.1219
 9594W        W25488  16.108  18.053  11.512  0.0016 -0.1776 -0.0919
 9595W        W25489   0.560   8.745   4.505 -0.1235  0.0002 -0.1690
 9596W        W25490  10.575   9.630  13.193  0.2463 -0.0217  0.4073
 9597W        W25491   3.919  18.213   3.256  0.1928  0.3393 -0.1105
 9598W        W25492   8.166  13.748   3.006  0.2727 -0.0747 -0.0536
 9599W        W25493  18.253   7.711   2.054 -0.0088 -0.0087 -0.2222
 9600W        W25494   5.592   3.245   0.990 -0.1880  0.1396 -0.2181
 9601W        W25495   6.907  16.491   4.971 -0.1162  0.3057  0.0619
 9602W        W25496  10.779   8.547   3.118 -0.1624  0.1452 -0.0707
 9603W        W25497   5.311   0.095   3.317  0.1913  0.2479 -0.0451
 9604W        W25498   7.238  13.396  10.204 -0.1263 -0.0278 -0.5136
 9605W        W25499  14.888   9.361   1.818 -0.3772  0.2589  0.3451
 9606W        W25500  16.690  16.016  14.397  0.0293  0.0705 -0.0285
 9607W        W25501   5.938   7.748   4.550 -0.0916 -0.3026  0.2514
 9608W        W25502   5.003   6.992  10.390  0.0175  0.1553  0.4949
 9609W        W25503   3.564  14.220  12.727 -0.0579 -0.2015  0.0638
 9610W        W25504  12.145  14.140   0.470 -0.0494  0.0411  0.2937
 9611W        W25505   1.776  11.215   0.688  0.2123  0.0218  0.1769
 9612W        W25506   6.010  12.091   1.399 -0.1031 -0.1737  0.0413
 9613W        W25507   7.792  14.390  11.841  0.2493 -0.0583 -0.2279
 9614W        W25508   4.216   6.845   4.275  0.0137 -0.1308  0.0726
 9615W        W25509  12.296   5.121   2.558 -0.4035  0.0512  0.1820
 9616W        W25510   5.735   4.565   5.086  0.1914 -0.1668  0.3156
 9617W        W25511  14.762  15.382   9.704  0.3555 -0.1792  0.2104
 9618W        W25512  11.680   4.251   0.462  0.1517 -0.1128 -0.3640
 9619W        W25513   0.753   6.216  12.232  0.0989  0.0361 -0.0111
 9620W        W25514   9.935  17.861  13.631 -0.0080  0.3494 -0.2198
 9621W        W25515   2.136   4.740  15.150  0.3219 -0.2180  0.0457
 9622W        W25516   4.015   7.604   4.666 -0.1572  0.0870  0.0318
 9623W        W25517  15.836  18.656   1.991 -0.0975  0.1257  0.0826
 9624W        W25518   2.534  10.493   2.631  0.0619  0.0575 -0.0926
 9625W        W25519  11.572   5.063  12.492  0.1081 -0.1578 -0.0736
 9626W        W25520  10.777   6.575  12.185 -0.2201  0.1011 -0.1862
 9627W        W25521  11.235   0.420  13.571  0.1465 -0.1166 -0.0768
 9628W        W25522  16.664   8.168   0.244  0.1843 -0.4882 -0.0046
 9629W        W25523   7.897  19.175   0.910 -0.0461  0.3548  0.0485
 9630W        W25524  13.194  12.097  14.173  0.0129 -0.3106 -0.1098
 9631W        W25525   8.174   1.104  11.787 -0.3862  0.2349 -0.0989
 9632W        W25526   4.517  13.062   3.304  0.1622 -0.0157  0.4039
 9633W        W25527   4.196  10.402  12.297  0.3072  0.0089 -0.1075
 9634W        W25528   5.849   0.705   1.746  0.0463 -0.0466 -0.0597
 9635W        W25529  16.169  12.864  10.383  0.1139  0.0068 -0.0284
 9636W        W25530   8.134  16.447  12.818  0.1331 -0.0714  0.0769
 9637W        W25531   5.795   0.111   2.999  0.1069  0.0757 -0.0795
 9638W        W25532   7.406  14.762  11.684  0.1540  0.0698  0.1409
 9639W        W25533  13.403   6.884   3.938  0.0498  0.2031  0.0006
 9640W        W25534  17.912   3.097   2.637 -0.1509  0.1771  0.6497
 9641W        W25535   2.607   4.400  10.287 -0.2263  0.0071 -0.1162
 9642W        W25536   9.137   8.658  10.627  0.1374  0.2323  0.2086
 9643W        W25537  19.005   2.182   3.166 -0.0023  0.0513 -0.0255
 9644W        W25538   1.301   8.677   2.926 -0.1088 -0.2016 -0.2732
 9645W        W25539   3.941  12.487  12.838 -0.1452  0.1574  0.0687
 9646W        W25540   2.351  17.632   1.393  0.0665  0.0840 -0.3669
 9647W        W25541  11.140  16.137  10.108  0.0700 -0.0065 -0.2431
 9648W        W25542   0.134   7.061   5.118 -0.0154  0.3527 -0.1424
 9649W        W25543  10.374  11.822  13.792  0.2183 -0.2941 -0.5313
 9650W        W25544   8.400   7.632   2.751 -0.0766 -0.1421  0.0445
 9651W        W25545  12.106  12.783   1.593  0.0654 -0.2365  0.3410
 9652W        W25546  11.327   9.884  10.495  0.2238 -0.0324  0.0922
 9653W        W25547  17.071   0.693   4.546 -0.0231 -0.0409 -0.3390
 9654W        W25548   5.166   2.643   4.490  0.1210  0.2061 -0.0551
 9655W        W25549   1.816   2.474  13.970  0.0243  0.0999 -0.1909
 9656W        W25550  18.806  18.705  11.320 -0.0468  0.2302  0.2995
 9657W        W25551   1.721  10.262   0.235 -0.0088 -0.0033 -0.2354
 9658W        W25552  17.838  16.224  12.476 -0.0709 -0.6368  0.0704
 9659W        W25553  14.631  15.381  13.388  0.1964  0.3210  0.1849
 9660W        W25554   2.757  11.468   3.362  0.4143  0.2263 -0.3553
 9661W        W25555  15.748   7.149   0.622  0.1296 -0.2811  0.3805
 9662W        W25556   6.497   6.480   2.503 -0.0019  0.0172 -0.1470
 9663W        W25557  15.457   0.628   3.354 -0.0844 -0.2551 -0.0281
 9664W        W25558  15.314   6.922  11.081 -0.0354 -0.0786  0.2527
 9665W        W25559   3.837  14.609   1.703  0.1919  0.1465 -0.2447
 9666W        W25560  15.841   9.263  10.968 -0.1738  0.0173  0.1062
 9667W        W25561   7.943  15.811  12.034 -0.3494 -0.0540 -0.0381
 9668W        W25562   6.648  17.332  14.540 -0.1400 -0.0366 -0.0407
 9669W        W25563  12.592  10.114  11.533  0.2983  0.0104 -0.3408
 9670W        W25564  17.771  11.560  15.027  0.0513  0.1672 -0.1501
 9671W        W25565   8.621  13.476   4.854  0.4128 -0.3887  0.1668
 9672W        W25566  10.703   6.383  12.994 -0.1148  0.2253  0.0192
 9673W        W25567   9.075  14.068   1.166  0.1265  0.2967 -0.0007
 9674W        W25568  12.180   1.210   4.449 -0.1512  0.2880  0.2969
 9675W        W25569  13.756  12.689   5.166 -0.1195  0.0356  0.2106
 9676W        W25570   1.955   6.588   3.741 -0.1153 -0.0666 -0.0939
 9677W        W25571  13.630   8.486   4.185 -0.2340  0.3015 -0.2053
 9678W        W25572   3.292   0.389   5.466 -0.1505  0.1390 -0.0409
 9679W        W25573  16.351   3.659  11.830  0.2210  0.2118  0.0702
 9680W        W25574  18.948  15.547   4.891  0.0232  0.1199  0.5168
 9681W        W25575  10.848   4.149  14.833  0.1863 -0.2964 -0.1279
 9682W        W25576   7.476  12.312   2.372 -0.1107  0.1942  0.0779
 9683W        W25577  10.160  18.795   0.222  0.1338  0.0075  0.1129
 9684W        W25578  12.660  13.871  12.400 -0.5102 -0.1030  0.1550
 9685W        W25579  11.217  17.866   2.137  0.1833  0.0170 -0.1784
 9686W        W25580  15.564  14.132   1.009  0.4192 -0.0296 -0.2514
 9687W        W25581  12.531   2.491   3.556  0.2379 -0.3883  0.2106
 9688W        W25582   8.492   5.782   1.646  0.1666  0.2336 -0.0901
 9689W        W25583  11.055  13.465  13.663  0.1413 -0.4513 -0.0624
 9690W        W25584   9.736   1.398  14.046 -0.2259  0.2448 -0.2272
 9691W        W25585  10.433   7.306  12.222  0.1396  0.2775  0.3646
 9692W        W25586  15.698  15.119   4.584  0.4304 -0.1320 -0.0358
 9693W        W25587  18.377  10.710  14.909 -0.0727  0.1855 -0.1905
 9694W        W25588  17.875   7.014  15.050 -0.1491  0.0454  0.1501
 9695W        W25589   5.838   7.895  13.195 -0.0878 -0.1059 -0.0502
 9696W        W25590   7.220   8.632  10.096 -0.1365  0.1171 -0.0432
 9697W        W25591  16.432   7.412  11.661 -0.0900 -0.2705  0.0412
 9698W        W25592  12.331  14.911   2.441 -0.3422  0.0430  0.0117
 9699W        W25593   5.806  11.034   3.373 -0.1743 -0.3827  0.1220
 9700W        W25594  18.503   5.778   1.847 -0.1457  0.0953 -0.3061
 9701W        W25595  16.532  15.521   4.546  0.1106  0.0600 -0.0043
 9702W        W25596   8.601   8.177  12.497  0.2429 -0.2217  0.3445
 9703W        W25597  12.335   4.955  12.800 -0.3481  0.3586  0.1791
 9704W        W25598   7.046  18.760   4.347 -0.5183 -0.1068  0.2993
 9705W        W25599   9.040  17.747  12.120 -0.0013 -0.0136  0.0070
 9706W        W25600  11.084  18.666   2.592 -0.1515 -0.1835  0.2435
 9707W        W25601  15.519  17.472   2.451  0.1704 -0.0934  0.2266
 9708W        W25602   9.155   6.038  13.535  0.0550 -0.0748  0.3987
 9709W        W25603   6.380   1.367  14.483  0.0456  0.3137  0.1556
 9710W        W25604  17.367   5.659  13.769  0.0583  0.0647 -0.2291
 9711W        W25605   9.462   2.517  10.296  0.0636  0.0108  0.0660
 9712W        W25606   0.483   0.600   4.466 -0.0518  0.1620 -0.3458
 9713W        W25607  12.084   0.385  10.511 -0.0987  0.0182 -0.1537
 9714W        W25608   4.984  16.186  13.083 -0.0223  0.4433  0.1053
 9715W        W25609   7.102  18.214  12.142  0.1029  0.2522  0.2197
 9716W        W25610  17.373   2.441  13.783  0.3946  0.1119 -0.2792
 9717W        W25611  14.269   4.368  12.632 -0.1260  0.0576  0.1539
 9718W        W25612  11.812  12.832  12.473  0.1533 -0.0091 -0.0664
 9719W        W25613  13.736  17.144  11.168 -0.1976  0.0644 -0.1928
 9720W        W25614   8.660  11.174  13.205 -0.0912 -0.1123 -0.1221
 9721W        W25615   2.679   0.402  12.238 -0.0678 -0.1829 -0.1012
 9722W        W25616  14.358  14.863  11.812 -0.2255 -0.0660  0.0593
 9723W        W25617   7.843  18.222   4.638  0.2595  0.0564  0.2166
 9724W        W25618   3.697   5.120  11.387  0.2160  0.0333  0.1959
 9725W        W25619  10.279  14.920  12.507 -0.2862 -0.1707  0.3790
 9726W        W25620  12.825  10.217  14.938  0.0997  0.3412 -0.3703
 9727W        W25621  12.869  14.163  12.799  0.2740  0.0822  0.0581
 9728W        W25622   1.912   1.992   3.963 -0.0118  0.4297 -0.0418
 9729W        W25623   9.498  12.399  14.784 -0.1027 -0.1785 -0.0054
 9730W        W25624  13.667   0.931  14.002  0.1412 -0.2795  0.4854
 9731W        W25625   7.482   0.715   0.734 -0.2801 -0.1637 -0.1874
 9732W        W25626   8.381  10.407  13.841  0.0049 -0.1005 -0.1402
 9733W        W25627   7.718   5.671   1.969 -0.0473  0.0344  0.1640
 9734W        W25628  14.414   4.810   2.614 -0.1093 -0.1199  0.1908
 9735W        W25629   6.916   3.463  14.148 -0.0310 -0.0670 -0.0184
 9736W        W25630  17.290   4.576   2.602 -0.2664 -0.1568 -0.1919
 9737W        W25631   6.897   7.685   3.509 -0.1132  0.1354  0.2535
 9738W        W25632  11.215   4.606   4.744 -0.1540  0.4196  0.0016
 9739W        W25633   8.401   9.558  12.500  0.1668 -0.5428 -0.1425
 9740W        W25634  10.825   5.825  14.537 -0.1430  0.1310  0.0266
 9741W        W25635   4.348   4.705  14.750 -0.0005  0.2881  0.1941
 9742W        W25636  14.918  12.965  14.735  0.1735  0.0124  0.0023
 9743W        W25637  10.433  10.169   5.391  0.0153  0.0422  0.2083
 9744W        W25638   9.651  10.854   0.666  0.0160  0.2305  0.0682
 9745W        W25639   7.437  15.425  14.794  0.2647 -0.0438 -0.0557
 9746W        W25640   7.250   9.639   2.548 -0.2508 -0.1793  0.0395
 9747W        W25641  15.209  14.809  12.879  0.1885  0.3122 -0.2367
 9748W        W25642   8.191  14.115  11.713  0.2946 -0.0527  0.2005
 9749W        W25643  13.099  13.649  14.835  0.3458 -0.3002 -0.2882
 9750W        W25644  12.441  16.769  10.811  0.4100  0.0549  0.0623
 9751W        W25645   2.743   6.968   0.394 -0.1149 -0.2602 -0.1925
 9752W        W25646   3.077   4.503   0.340  0.4010 -0.0590 -0.2245
 9753W        W25647   2.586  18.853   1.628  0.0335 -0.2414 -0.1744
 9754W        W25648  15.344  17.383   3.006 -0.3603  0.0478 -0.0456
 9755W        W25649   9.494   3.886  12.132 -0.2095 -0.3484 -0.0079
 9756W        W25650  13.847   8.036   0.674  0.3582  0.0424 -0.3292
 9757W        W25651  15.587   6.617  13.983  0.3860  0.1567  0.1687
 9758W        W25652  11.577   0.326  15.136  0.1219  0.2491  0.1627
 9759W        W25653   7.694   1.692   1.586 -0.0539 -0.2437  0.0590
 9760W        W25654   4.388  17.905  11.975  0.3780 -0.0764 -0.0377
 9761W        W25655   1.540  11.106   1.193  0.0756 -0.2015  0.2606
 9762W        W25656   6.742  15.825   3.829 -0.0488  0.1280 -0.0853
 9763W        W25657   0.753   6.771   3.956 -0.0676 -0.2415 -0.0122
 9764W        W25658  14.474  18.932  14.807  0.0433 -0.1204  0.0389
 9765W        W25659   1.456  15.858  11.760 -0.0189 -0.0597 -0.2911
 9766W        W25660   2.116   2.487  13.128  0.1030 -0.0134 -0.1271
 9767W        W25661   2.093   7.413  10.682 -0.0298 -0.4452 -0.1025
 9768W        W25662   4.454   0.258   4.504 -0.1722  0.0552  0.0756
 9769W        W25663   5.767   8.169   4.534 -0.0562 -0.3897 -0.1432
 9770W        W25664  13.471   3.449   4.883 -0.1085  0.1273 -0.0696
 9771W        W25665  18.981  19.171   3.487  0.1797 -0.2448  0.0932
 9772W        W25666   1.388   8.836   3.486 -0.1819 -0.1290 -0.1484
 9773W        W25667  12.389  17.313  10.785  0.4636 -0.3803  0.2267
 9774W        W25668   1.802   2.383   4.312 -0.2676  0.3056 -0.2330
 9775W        W25669   1.537  10.393   3.251  0.1131 -0.0231  0.2733
 9776W        W25670  16.668   4.505  11.489 -0.1961  0.2980  0.1140
 9777W        W25671  11.331  12.016   3.836  0.0939  0.2530 -0.0861
 9778W        W25672   8.788  16.319   1.467 -0.0094 -0.3746 -0.0456
 9779W        W25673  18.281  13.227   5.582  0.2197  0.1445  0.4313
 9780W        W25674   7.299   9.179   2.702  0.1515  0.3604 -0.1410
 9781W        W25675   0.789  13.718  11.947 -0.2366  0.0575  0.1666
 9782W        W25676  12.065  15.739   2.763  0.0421  0.0541  0.0511
 9783W        W25677   2.301  13.636  10.011 -0.0185  0.0142  0.1790
 9784W        W25678   8.054  15.955   0.764 -0.0591 -0.1124 -0.1703
 9785W        W25679   6.958  15.445   2.900  0.0111 -0.0448  0.2483
 9786W        W25680  16.674   2.560  12.254  0.0966  0.0108  0.0378
 9787W        W25681   2.675   2.840   0.403  0.2442  0.1151  0.1995
 9788W        W25682  18.581  13.663   1.359  0.0001 -0.2579  0.3233
 9789W        W25683   2.300  18.123  14.880  0.3159 -0.1734  0.0084
 9790W        W25684   6.992  17.783  11.862  0.2098  0.0261  0.0932
 9791W        W25685  13.321  15.692   3.783  0.0428  0.1388 -0.0836
 9792W        W25686  14.463   2.319  11.157 -0.0494 -0.0496  0.1256
 9793W        W25687   6.526  10.135   4.716  0.1339  0.2893  0.2531
 9794W        W25688   0.574  12.721  11.249 -0.0956 -0.1503  0.0856
 9795W        W25689   3.010   8.573   0.668 -0.1417  0.2694 -0.0714
 9796W        W25690   2.804  12.555   5.234  0.0445  0.5055  0.0703
 9797W        W25691  18.479  17.841   3.474  0.1690  0.1082 -0.1010
 9798W        W25692   7.364   4.445  14.641 -0.0553  0.0106  0.2177
 9799W        W25693   0.981   1.595  13.302  0.0011 -0.1208  0.1282
 9800W        W25694  17.692  17.891  14.082  0.0866 -0.0560 -0.2364
 9801W        W25695  12.040   8.714  12.597 -0.3768  0.1158  0.1187
 9802W        W25696  16.542  14.634   4.507  0.1844  0.0538 -0.1144
 9803W        W25697   8.094   9.419  11.510 -0.1735  0.1231 -0.3263
 9804W        W25698  17.029  16.199   0.272  0.0031  0.2183  0.2526
 9805W        W25699   6.378   1.530   1.887  0.0230  0.3235  0.1431
 9806W        W25700   6.035   6.112  11.239 -0.1904 -0.1067 -0.1663
 9807W        W25701   4.097  10.866  11.457  0.0526 -0.0359 -0.2745
 9808W        W25702   8.725  15.255   2.230  0.0923 -0.0046 -0.0728
 9809W        W25703  13.861  18.379   4.669 -0.3549 -0.1556 -0.4014
 9810W        W25704  15.429  17.763   3.401  0.1948  0.0154 -0.0674
 9811W        W25705  12.628  12.754  11.842  0.2850  0.3278  0.0061
 9812W        W25706   5.233   8.419  11.891 -0.1361  0.1898 -0.3674
 9813W        W25707   4.518  16.573  14.368  0.1212 -0.1260  0.0879
 9814W        W25708   9.006   3.826   1.049  0.0366  0.3092  0.2742
 9815W        W25709  15.050   3.420   0.778  0.1052  0.0984 -0.1709
 9816W        W25710  11.095   1.325   0.034 -0.0999 -0.0765 -0.0630
 9817W        W25711  16.809   6.516  12.069  0.0006  0.2108 -0.1034
 9818W        W25712  19.022   7.370  13.836  0.0324 -0.0903 -0.0396
 9819W        W25713   8.411  16.891   4.036 -0.5188  0.1422 -0.3518
 9820W        W25714   5.594   0.095  14.770  0.0687 -0.1356  0.3735
 9821W        W25715  17.458   2.228  13.319 -0.0765 -0.2108 -0.0974
 9822W        W25716   4.527   0.953  14.150  0.4847 -0.2542  0.0773
 9823W        W25717  11.158   1.609   1.869  0.1912 -0.0371  0.0841
 9824W        W25718   7.140  13.774   0.742 -0.1411  0.1221 -0.1588
 9825W        W25719  16.988   6.075   5.716  0.1253 -0.2885 -0.0774
 9826W        W25720   9.777  11.228  14.365 -0.1022  0.1380 -0.1450
 9827W        W25721  17.679  10.876  10.759 -0.4178  0.0832 -0.0085
 9828W        W25722   0.210   1.605   4.716  0.2682 -0.2745 -0.2364
 9829W        W25723  11.569   1.957   4.016 -0.0104  0.2303  0.1616
 9830W        W25724  17.137  13.720  13.938  0.1114 -0.0309  0.1176
 9831W        W25725   3.904   9.809   3.452 -0.0043  0.0087 -0.2174
 9832W        W25726  18.601  11.876  11.819  0.2325 -0.0803 -0.2952
 9833W        W25727  11.059   7.167   2.698 -0.2111 -0.1393 -0.2812
 9834W        W25728   2.378   3.053  13.750  0.1190 -0.1622  0.0943
 9835W        W25729   5.806  18.307   0.582 -0.0557  0.2084  0.2074
 9836W        W25730  14.165  14.337   4.620 -0.1192 -0.0082 -0.1548
 9837W        W25731  17.727   4.958  14.257  0.1954 -0.0254 -0.0875
 9838W        W25732   0.407   6.835   2.564  0.1849  0.2846  0.1981
 9839W        W25733  16.568   9.843  12.365  0.1863  0.0995  0.1384
 9840W        W25734  17.064  18.207   0.236 -0.0084 -0.1814  0.0354
 9841W        W25735  10.335   4.094   2.745 -0.0268  0.0106  0.4189
 9842W        W25736  18.831  13.063   2.636 -0.0826 -0.2861 -0.1263
 9843W        W25737   4.553  11.585  11.343  0.1740  0.1798  0.2398
 9844W        W25738   6.215  12.798  13.620 -0.1952  0.2392 -0.3025
 9845W        W25739   9.672   6.712   4.211 -0.5613 -0.0950  0.1452
 9846W        W25740   9.115  17.389   1.511  0.1963  0.4812 -0.0821
 9847W        W25741   1.188  18.961  11.143  0.0413  0.1874  0.0676
 9848W        W25742  14.761  16.011  13.753  0.0772 -0.0446 -0.0110
 9849W        W25743  10.723   3.484  14.181 -0.1122 -0.2465  0.3019
 9850W        W25744  12.794  15.454   5.602 -0.2656 -0.0140  0.3824
 9851W        W25745  16.578   6.818   0.708 -0.0653 -0.1571  0.1245
 9852W        W25746  12.127  17.715   4.133  0.1981 -0.4077  0.0640
 9853W        W25747  19.105   9.118  13.515  0.1048 -0.1376 -0.0423
 9854W        W25748   2.466  13.640   1.165 -0.1315 -0.1582 -0.1677
 9855W        W25749  18.835  10.979  10.258 -0.2052  0.2501  0.1543
 9856W        W25750  18.638  17.418  14.112  0.3577  0.3603 -0.1364
 9857W        W25751   1.108  18.058   0.711  0.0425  0.0230 -0.0718
 9858W        W25752  11.060   1.741  12.827 -0.0240 -0.3858 -0.0208
 9859W        W25753  18.585   1.798   5.547  0.4354 -0.1073 -0.1964
 9860W        W25754   8.428   0.462  12.949  0.3943  0.4377 -0.0006
 9861W        W25755   4.017  17.108  12.858 -0.5792 -0.3283 -0.0376
 9862W        W25756   2.500   3.180   4.688 -0.0013  0.2683 -0.2504
 9863W        W25757  17.770   9.941  14.669 -0.2022 -0.1388  0.0107
 9864W        W25758  11.118   6.767   0.693  0.1261  0.2650 -0.2745
 9865W        W25759  10.330  18.610  14.072 -0.0454  0.0630  0.2707
 9866W        W25760   1.066  13.414   9.837 -0.2428  0.1288 -0.0073
 9867W        W25761   2.337   1.843  10.787  0.1010  0.1497  0.2222
 9868W        W25762  16.328  15.958   1.530  0.0764  0.0761  0.1000
 9869W        W25763   5.370  10.664  12.872 -0.0385 -0.0137 -0.3837
 9870W        W25764  12.558   1.111   5.920 -0.0035  0.4344  0.4787
 9871W        W25765   3.598   5.915  11.213  0.2881 -0.1452 -0.1013
 9872W        W25766  18.825  11.868   5.713 -0.1267 -0.1631  0.1863
 9873W        W25767  10.023  12.374  11.265 -0.1838  0.0282  0.0299
 9874W        W25768  17.287  11.364   1.279 -0.0627 -0.3200  0.1818
 9875W        W25769  17.085  19.015  12.718  0.1849  0.5313  0.0854
 9876W        W25770   2.060  11.668  10.640  0.1179  0.2324  0.0154
 9877W        W25771   1.757   0.938   3.082  0.6158  0.1332  0.0886
 9878W        W25772  16.359   4.775  14.687 -0.0566 -0.2839 -0.0356
 9879W        W25773  18.996  17.716   3.334  0.1689  0.0989 -0.0084
 9880W        W25774  11.279   5.873  14.785  0.1116 -0.1487 -0.4016
 9881W        W25775  14.833  11.296   1.867  0.2642 -0.1095 -0.1228
 9882W        W25776  14.084  15.774  13.902 -0.0272  0.3046  0.3032
 9883W        W25777  13.586   0.638  15.107  0.7498  0.0596 -0.0590
 9884W        W25778  13.957   0.798  13.113 -0.3481 -0.2119 -0.1109
 9885W        W25779   5.739  15.124  13.149  0.0439 -0.0115 -0.3990
 9886W        W25780  13.652   3.532  12.907 -0.0336  0.0228 -0.0234
 9887W        W25781  15.085  12.200   4.069 -0.1994 -0.0022 -0.0835
 9888W        W25782   9.286  10.249  13.365 -0.1671 -0.3404  0.1903
 9889W        W25783   8.765   5.244  10.832 -0.3091  0.0444 -0.0107
 9890W        W25784  17.292  13.786  13.377  0.2805 -0.2872 -0.0823
 9891W        W25785  12.675   6.599  14.197 -0.0328 -0.1278 -0.2725
 9892W        W25786   0.381  10.115  14.199 -0.0099  0.1303 -0.1797
 9893W        W25787  12.444   8.816  11.893 -0.2217  0.1909  0.1256
 9894W        W25788   4.106  13.120  11.173  0.2561  0.3273 -0.3067
 9895W        W25789  18.498  18.248   2.242  0.1467 -0.2124 -0.2523
 9896W        W25790  12.437  12.036  13.805  0.0462  0.0965 -0.3725
 9897W        W25791  11.550   2.940   0.851  0.2644  0.1728  0.4032
 9898W        W25792   4.871  15.104   1.739  0.0186 -0.1279  0.1261
 9899W        W25793  15.151   3.840  10.701  0.0407  0.1624  0.2308
 9900W        W25794   4.091  11.228   0.446 -0.1445 -0.3485  0.1598
 9901W        W25795  14.016   8.940   3.264 -0.0536  0.0644  0.0044
 9902W        W25796   0.922   9.305   5.196  0.0616  0.0261  0.2550
 9903W        W25797  15.426  14.694   4.481 -0.1407 -0.3420  0.2030
 9904W        W25798   0.697   9.139   0.544 -0.1035 -0.2719 -0.0932
 9905W        W25799  14.534   0.646  14.310 -0.0077  0.0546 -0.0492
 9906W        W25800  10.310   1.738  10.972  0.2790  0.2851 -0.0953
 9907W        W25801  14.776  19.043  13.020  0.0891  0.1582  0.1873
 9908W        W25802  18.359   2.735  10.181 -0.2977 -0.1615 -0.3608
 9909W        W25803  18.616   2.510   0.028  0.1763  0.0614 -0.0427
 9910W        W25804  10.749  12.029   4.425  0.1749  0.1354 -0.0609
 9911W        W25805   0.729  13.987  13.232 -0.0065  0.0548  0.0947
 9912W        W25806  15.133   8.115  12.262  0.0171  0.3188 -0.0300
 9913W        W25807   1.199  11.119  13.617  0.0076 -0.0829 -0.3079
 9914W        W25808   2.915   7.215   2.463  0.0554  0.3363 -0.0567
 9915W        W25809   7.808  10.666  10.772  0.0560 -0.1513 -0.2222
 9916W        W25810  16.826  12.097   0.210  0.0860 -0.1324 -0.1145
 9917W        W25811  18.391   8.901   4.017  0.0252  0.0361  0.2029
 9918W        W25812   5.794   6.634   4.241  0.2450  0.1433  0.0974
 9919W        W25813   9.718   8.452  14.359 -0.0525 -0.2234  0.2723
 9920W        W25814   9.529  13.914  14.541  0.1081  0.0379  0.0006
 9921W        W25815  17.656  12.645   4.743  0.1461 -0.0740 -0.0221
 9922W        W25816   5.805  13.437   2.166  0.1369 -0.1005  0.2174
 9923W        W25817   8.856  18.400  11.432  0.0107 -0.0436 -0.1363
 9924W        W25818  11.230   1.586   9.756 -0.0895  0.0297 -0.3626
 9925W        W25819  11.532  18.886   2.795  0.1055 -0.1283 -0.0420
 9926W        W25820  16.451   7.862   2.529 -0.0388  0.2392 -0.1741
 9927W        W25821   7.067   2.054  11.601  0.2203 -0.0227  0.1688
 9928W        W25822   4.311  16.705  13.279 -0.0656  0.1998 -0.0880
 9929W        W25823  16.591   7.079  13.803 -0.1769 -0.1780  0.2807
 9930W        W25824   3.977   6.302  10.384  0.3957  0.2383 -0.0155
 9931W        W25825  18.287  14.751   1.172 -0.1309  0.2010 -0.1520
 9932W        W25826   0.297   9.836   1.772 -0.3632 -0.2743 -0.0934
 9933W        W25827  16.395  11.043   1.039 -0.0829 -0.0965  0.1369
 9934W        W25828  14.985  17.593   2.169  0.0718  0.3031 -0.0299
 9935W        W25829  12.733   0.128  13.220 -0.2285  0.2104 -0.1861
 9936W        W25830  16.333  10.723  14.807  0.3307  0.3240  0.4001
 9937W        W25831  16.001  16.732  11.962 -0.3538 -0.4596 -0.0421
 9938W        W25832   6.923   8.383   1.767  0.1700 -0.0984 -0.0508
 9939W        W25833   7.597  18.519  10.478 -0.2286  0.1744 -0.1467
 9940W        W25834  18.970  17.708  13.827 -0.0405 -0.1080  0.1968
 9941W        W25835  13.978  10.370  12.685 -0.2240 -0.0306 -0.1810
 9942W        W25836  16.593  11.915   1.371  0.1263 -0.2987  0.1763
 9943W        W25837  11.720   6.994   1.219  0.1258 -0.1593 -0.0931
 9944W        W25838   9.810   2.761   0.446 -0.2459 -0.0817 -0.5112
 9945W        W25839  13.933   7.304   1.043  0.2033 -0.0410  0.1252
 9946W        W25840  17.029  10.597   4.311  0.0784  0.0072  0.2423
 9947W        W25841   4.605   9.181   5.214  0.1272  0.4859 -0.0790
 9948W        W25842   0.140   0.850   1.393  0.0436  0.1987  0.1641
 9949W        W25843   8.309   8.280  14.803 -0.0014 -0.0743 -0.0639
 9950W        W25844  11.925   3.761  13.337 -0.1043 -0.2144  0.0931
 9951W        W25845  11.595   4.064   1.831 -0.1664  0.0659  0.0652
 9952W        W25846   3.254  15.571  12.055 -0.1148 -0.1806 -0.0404
 9953W        W25847  11.535  16.187   4.435  0.2978 -0.2282 -0.3373
 9954W        W25848  13.885  16.404  10.518  0.1481  0.1137  0.1439
 9955W        W25849   1.070  17.588  13.594  0.1635 -0.1983 -0.1099
 9956W        W25850   2.942  15.657  10.575 -0.1932  0.0207  0.0524
 9957W        W25851  13.192   6.720   4.400 -0.0705 -0.2401 -0.1162
 9958W        W25852   3.670  12.173   1.266 -0.2500 -0.2921  0.3895
 9959W        W25853   5.653  14.496  14.484  0.0097  0.1190  0.0648
 9960W        W25854   6.838   0.683   4.698  0.0057  0.3528 -0.2775
 9961W        W25855   1.630  15.385  12.595  0.0095 -0.0188  0.1766
 9962W        W25856   4.857  10.440  14.746 -0.0703 -0.2474  0.0590
 9963W        W25857  18.479  13.179  15.151 -0.0140 -0.0947 -0.1111
 9964W        W25858  17.684   3.402   1.353  0.1952  0.0952 -0.1336
 9965W        W25859  18.317  15.687  11.487  0.4274  0.0443  0.0583
 9966W        W25860   0.288   7.949   0.421  0.1941  0.2296 -0.1825
 9967W        W25861  18.888  10.362  13.673 -0.0398  0.6074 -0.0321
 9968W        W25862   4.186   3.692   0.875  0.3332  0.2085  0.0366
 9969W        W25863  13.719   9.955  14.173 -0.0023 -0.2605 -0.0114
 9970W        W25864   9.866  13.709  11.330  0.0542 -0.0403 -0.5842
 9971W        W25865  16.754  14.173  13.957 -0.1884  0.0392  0.1325
 9972W        W25866   1.439  11.718  14.183 -0.2683 -0.2512  0.2776
 9973W        W25867   9.106  12.562   4.260  0.0871  0.1727 -0.2994
 9974W        W25868   4.046   0.483   4.278  0.3813 -0.3272 -0.2995
 9975W        W25869  15.119  16.394   1.996 -0.2389 -0.1833  0.1545
 9976W        W25870   3.056  17.161  13.560  0.0560 -0.3311 -0.1455
 9977W        W25871  10.372   8.298   0.552  0.0053 -0.1283  0.3894
 9978W        W25872   2.731  14.750  14.044  0.2231 -0.1148 -0.1062
 9979W        W25873  11.075  10.800   1.592  0.0051  0.0263  0.3865
 9980W        W25874  10.299   6.261  12.447 -0.1691  0.0640 -0.2105
 9981W        W25875   9.373  12.545  11.392 -0.0543 -0.0598 -0.0022
 9982W        W25876  13.168   4.818   2.554 -0.3559  0.1526 -0.1076
 9983W        W25877   1.801  14.136   4.836 -0.0452 -0.1201  0.1679
 9984W        W25878   3.554  14.096  13.324  0.0883 -0.1421  0.2513
 9985W        W25879  12.425  11.238   9.870  0.1615 -0.1594  0.1341
 9986W        W25880   9.316   0.468   1.386 -0.3140  0.0221 -0.0252
 9987W        W25881  14.628   8.329   3.464 -0.2216  0.0236 -0.0112
 9988W        W25882  14.285  17.980  13.681  0.0972 -0.2262  0.1280
 9989W        W25883  15.103   3.402  14.332 -0.0157  0.0478  0.0776
 9990W        W25884  17.340   1.155   5.405  0.3982 -0.0229 -0.1638
 9991W        W25885   7.517  11.493  13.617  0.0484  0.1385  0.0011
 9992W        W25886   0.127  12.427   0.220  0.4380  0.2893  0.0638
 9993W        W25887   4.379  15.235   1.398 -0.0504 -0.1042  0.2905
 9994W        W25888  11.606  17.207   5.432 -0.0293 -0.1351 -0.2466
 9995W        W25889   6.425   9.626  15.124 -0.3471 -0.0815 -0.1612
 9996W        W25890   8.591   8.348  10.663 -0.2703 -0.0383  0.3583
 9997W        W25891  15.902  16.658   2.555 -0.1092 -0.1678  0.1280
 9998W        W25892  15.682   8.737   4.077 -0.0172  0.1294 -0.1125
 9999W        W25893   0.826   9.103   0.004 -0.0908  0.1750 -0.0557
10000W        W25894   0.954  13.636  14.433  0.6044  0.1627 -0.1313
10001W        W25895  11.744   9.055   5.365  0.1249  0.2016  0.1625
10002W        W25896   2.560   4.362   0.189  0.2481 -0.0574  0.1007
10003W        W25897   9.502   6.127   1.511  0.0132 -0.0500  0.1709
10004W        W25898   7.065   9.600  11.078 -0.3127 -0.0599  0.1980
10005W        W25899  16.442  10.614   1.305 -0.2138  0.1288  0.0686
10006W        W25900  18.590   4.435   3.007  0.1994  0.1998  0.0085
10007W        W25901   2.372  11.700   4.165  0.0006 -0.1057  0.2105
10008W        W25902  15.868  18.129   5.104 -0.0315  0.2692 -0.0283
10009W        W25903  18.975   1.007  13.905 -0.1700  0.0030  0.0604
10010W        W25904  18.914   2.925  12.756 -0.2932 -0.2914 -0.0179
10011W        W25905  16.940  12.946   3.986  0.2155 -0.1466 -0.2970
10012W        W25906   5.268   1.634   3.994 -0.0201  0.1394  0.2177
10013W        W25907   3.339  15.987  13.852 -0.1774 -0.0110  0.2334
10014W        W25908   1.749  15.480  14.924 -0.0805 -0.0818  0.1215
10015W        W25909   3.275   3.309   2.248  0.2886 -0.0728 -0.0053
10016W        W25910   9.109  17.904   3.513 -0.0988 -0.2680 -0.0582
10017W        W25911   9.447   4.262  14.855 -0.1354 -0.0278 -0.0039
10018W        W25912   1.515   0.343  12.184 -0.1129  0.0740 -0.0898
10019W        W25913  15.438  11.222  15.029  0.0170 -0.2218  0.2413
10020W        W25914   6.938  11.760   1.055 -0.1228 -0.1703 -0.2213
10021W        W25915   5.275  11.609   0.062  0.0633  0.1499 -0.2671
10022W        W25916   3.591   6.893  10.277 -0.2140  0.0516  0.2011
10023W        W25917  15.493  10.902   2.450 -0.0001 -0.3180 -0.2832
10024W        W25918   8.253  13.548  14.889 -0.1698 -0.0009  0.1468
10025W        W25919  16.318  17.434   3.590  0.1118 -0.0375  0.1760
10026W        W25920   2.491   2.452   1.777  0.2888  0.4190 -0.1167
10027W        W25921   8.476   7.445   0.959 -0.0314 -0.1866 -0.2066
10028W        W25922  16.126   7.256   4.905 -0.5056 -0.0156 -0.1040
10029W        W25923  12.479  10.799   1.153  0.0827  0.1765  0.2366
10030W        W25924  16.364  13.125   3.537  0.2125 -0.0681 -0.1208
10031W        W25925   8.965   4.229   1.498  0.0369  0.1612 -0.1374
10032W        W25926  10.772  11.934  12.344 -0.0977 -0.0166 -0.0354
10033W        W25927  12.225   6.447   2.347  0.1032 -0.0215  0.1352
10034W        W25928  11.381  12.220  11.846  0.1366 -0.0038  0.0691
10035W        W25929  18.880  11.398   0.233  0.1066 -0.3358 -0.1638
10036W        W25930  17.575   6.734  14.664  0.0700 -0.0505 -0.1835
10037W        W25931   9.904   5.897  10.533  0.0237  0.0508 -0.0348
10038W        W25932  11.413   2.491   0.993 -0.0016  0.1556 -0.1687
10039W        W25933   3.957   6.595  14.608  0.2222 -0.0563  0.0856
10040W        W25934   4.670   2.415  12.896 -0.2066  0.2479 -0.1829
10041W        W25935   4.591   9.187   0.062  0.0134  0.3632 -0.4332
10042W        W25936  13.512  11.764   0.531  0.0622  0.2496 -0.3583
10043W        W25937   8.960   2.457  13.822  0.0674 -0.2515 -0.0118
10044W        W25938   5.788  11.913  10.096 -0.0611 -0.1717 -0.3573
10045W        W25939  13.793   9.255  11.834  0.0740  0.3370 -0.0369
10046W        W25940  14.634  18.346   3.955 -0.1799 -0.0607 -0.1590
10047W        W25941  15.694  14.406   2.599 -0.0687 -0.0720 -0.0350
10048W        W25942  15.088  15.198   4.568 -0.4118 -0.0062  0.3835
10049W        W25943  13.129  12.836  13.108  0.1803  0.4178 -0.1758
10050W        W25944   5.500  13.344   1.155  0.3891  0.1453 -0.1180
10051W        W25945   4.004  17.740   2.428  0.0790  0.2510  0.0784
10052W        W25946  11.396  11.157   3.661 -0.0336  0.3933  0.0788
10053W        W25947  18.801   7.177   1.034  0.3161  0.1840 -0.1213
10054W        W25948  14.707  12.147  12.930 -0.3648 -0.3456 -0.1469
10055W        W25949  11.783  18.165  11.018  0.1270  0.1752  0.0915
10056W        W25950  15.248   1.520   3.645 -0.2578 -0.0591 -0.0988
10057W        W25951   2.472  10.139  15.009  0.1839 -0.2049  0.0515
10058W        W25952  13.194   5.294  12.668 -0.1948 -0.2021 -0.2041
10059W        W25953   3.181   6.993  14.872 -0.0653  0.1790 -0.3169
10060W        W25954   6.374  18.126   2.138  0.1888  0.1811  0.0907
10061W        W25955   5.065   1.527   4.738  0.2090 -0.1073  0.1631
10062W        W25956   2.173  14.511  11.494  0.1040 -0.3953 -0.0722
10063W        W25957  10.042   1.777   4.951 -0.1271 -0.0084 -0.3557
10064W        W25958   6.269   2.535   0.056 -0.1534  0.2855  0.1348
10065W        W25959  11.899  15.948  11.925 -0.2540  0.0363 -0.1055
10066W        W25960  15.131  15.407  14.762 -0.0702  0.2568 -0.0254
10067W        W25961   6.191   4.792  14.010 -0.1253  0.1497 -0.1934
10068W        W25962  12.353   1.737   4.656 -0.3424 -0.2970 -0.2986
10069W        W25963  11.966  18.795   5.201  0.1694  0.2498  0.2258
10070W        W25964   6.141  16.390   3.330  0.0259 -0.0906  0.1004
10071W        W25965  18.376   9.969  14.870 -0.0154 -0.0802 -0.0022
10072W        W25966   7.290  10.921  11.477  0.0931  0.3032  0.1083
10073W        W25967   6.917  11.044   5.097 -0.6400  0.1446  0.0256
10074W        W25968   4.964   9.109   2.836 -0.0138  0.1115 -0.4494
10075W        W25969   1.807  13.780  14.060 -0.4603 -0.2542 -0.2926
10076W        W25970   6.724   3.639   4.350  0.1609 -0.0991 -0.1238
10077W        W25971   0.749  14.636   3.674  0.3914  0.3082  0.0115
10078W        W25972  10.627   3.505   0.196 -0.1413  0.0214  0.0292
10079W        W25973   0.539   0.250  12.757  0.2702  0.2051  0.2869
10080W        W25974  11.126   7.387  14.628  0.2042 -0.0665 -0.1346
10081W        W25975  18.337  11.510  11.969 -0.3201 -0.1522  0.1943
10082W        W25976   0.584  12.772   4.092  0.3336 -0.3152 -0.0884
10083W        W25977   7.110   0.295  12.519 -0.1622  0.2140  0.0297
10084W        W25978  15.176  17.020  11.090 -0.1482 -0.2435  0.0327
10085W        W25979  17.346  14.565  12.659  0.4197 -0.3713  0.3004
10086W        W25980  11.425   3.308  10.661  0.1366 -0.0422  0.1022
10087W        W25981   4.071   1.580   0.735 -0.1455  0.0001 -0.2490
10088W        W25982   9.739  15.357   1.473  0.0155  0.0298 -0.0571
10089W        W25983   2.911   3.108   4.172 -0.2727  0.0181 -0.0731
10090W        W25984   4.962  16.041  13.554  0.2894 -0.0594  0.0701
10091W        W25985  12.090  17.733  10.801 -0.0463  0.0650  0.0143
10092W        W25986  17.853   2.353   4.557  0.0218 -0.0021 -0.0644
10093W        W25987   9.877  15.994  10.836  0.1241  0.0834 -0.3556
10094W        W25988  13.509  16.102  13.924  0.0331  0.1075  0.2081
10095W        W25989   4.043   7.927  12.136 -0.1096  0.0891 -0.2235
10096W        W25990   6.995   9.773  14.339 -0.0804 -0.0056 -0.1129
10097W        W25991  18.528   7.122  13.050 -0.0596  0.1521  0.0332
10098W        W25992  15.221  11.546   1.662 -0.0685 -0.0302 -0.0310
10099W        W25993   7.174  16.878  10.255 -0.0747 -0.0223  0.1503
10100W        W25994   0.479  14.383  14.856 -0.1750  0.0511  0.1670
10101W        W25995  12.933   2.175  10.835 -0.2904 -0.1133 -0.0661
10102W        W25996  12.724   8.782  14.759  0.3351 -0.2133 -0.1435
10103W        W25997  10.364   6.187   2.064  0.0814 -0.1424  0.2556
10104W        W25998   2.657   0.178   1.539 -0.1594  0.1672  0.0463
10105W        W25999  18.011   6.037   1.433  0.1376 -0.2060 -0.2830
10106W        W26000  13.159  18.749   0.834  0.1860 -0.0045  0.2263
10107W        W26001  18.430  13.782  10.775  0.3009 -0.2193 -0.0246
10108W        W26002  14.977   1.966   3.500 -0.1439  0.3149  0.0842
10109W        W26003  14.724  19.078  11.416  0.0046  0.1555  0.0467
10110W        W26004   0.656  15.256   5.451  0.0605  0.0099  0.0425
10111W        W26005   9.575   1.192   5.006  0.2305  0.1509  0.0016
10112W        W26006  16.108  12.887  11.663  0.0247 -0.0923 -0.1240
10113W        W26007   1.681   7.050   3.709  0.0868 -0.2647  0.0426
10114W        W26008   7.319   1.444   1.354  0.0674 -0.0129  0.0986
10115W        W26009  14.376  13.466  12.392 -0.3335 -0.0336 -0.2164
10116W        W26010   7.708   3.280  14.584 -0.1021 -0.2288  0.4638
10117W        W26011  13.236   9.858   1.273  0.5048  0.1365  0.1123
10118W        W26012  13.177   4.648  13.155  0.2462  0.2850 -0.0356
10119W        W26013   8.120   6.583  10.179 -0.2614  0.0935  0.1447
10120W        W26014   4.754   2.091  12.340 -0.2397 -0.0847 -0.1582
10121W        W26015   0.074  13.739   2.248 -0.1015 -0.0902  0.0743
10122W        W26016   4.774   3.211  11.802 -0.1700  0.2106 -0.1887
10123W        W26017  14.110   3.007  12.296  0.0850 -0.2917  0.0243
10124W        W26018  18.998   7.852   1.098  0.0887 -0.4356  0.0531
10125W        W26019  14.854  18.346  11.216  0.2053 -0.0064 -0.1283
10126W        W26020   2.943  18.478   0.138 -0.0814  0.0703  0.1111
10127W        W26021   1.106   9.516  12.618  0.1355  0.0225 -0.2253
10128W        W26022  12.405  14.770  12.098 -0.0712  0.0118 -0.2097
10129W        W26023   3.777  10.138   1.741  0.4222 -0.0278 -0.0049
10130W        W26024  16.444  11.229  12.804  0.0510 -0.0113 -0.1538
10131W        W26025   8.451   5.199   0.537 -0.0774  0.1963  0.1660
10132W        W26026   7.876   6.052   4.390 -0.1368 -0.0896 -0.0766
10133W        W26027  13.743   5.033   9.993  0.0619 -0.0481  0.0761
10134W        W26028  17.182   5.791   6.211  0.0813  0.1104  0.2598
10135W        W26029  13.558   2.979   0.229 -0.2529  0.1678  0.0766
10136W        W26030   3.502  10.712   1.185  0.3018  0.1413 -0.0646
10137W        W26031   5.786  17.605  13.125 -0.5349  0.1032  0.1037
10138W        W26032   7.176  11.774  12.103  0.0193  0.1572  0.0286
10139W        W26033   1.268   9.341   3.416 -0.0738  0.1973  0.2030
10140W        W26034  11.331  15.737  11.393 -0.0757  0.1207  0.0227
10141W        W26035  13.550   3.058   5.732 -0.1356  0.0842  0.0371
10142W        W26036  12.482  16.878   3.856 -0.0949  0.0131  0.0041
10143W        W26037   6.090  10.445   2.124 -0.1712  0.2057 -0.0261
10144W        W26038   1.164  18.252   1.600 -0.1861  0.0116  0.2114
10145W        W26039  14.736   3.269   4.305 -0.2920 -0.2213 -0.0393
10146W        W26040  13.615   6.444  13.068 -0.0073  0.1072  0.0381
10147W        W26041   9.272  15.225   5.051 -0.1311 -0.0742  0.0228
10148W        W26042   0.878   8.482   2.725 -0.0900  0.0560 -0.3477
10149W        W26043   4.455  17.639   2.516 -0.0716  0.1537  0.0930
10150W        W26044   3.100  16.106   1.364  0.0158 -0.0786 -0.3552
10151W        W26045  18.937  12.226   5.263  0.1200 -0.2925 -0.0221
10152W        W26046  12.141   7.377   3.743 -0.1460  0.2207 -0.2119
10153W        W26047   2.755  14.567   2.538 -0.4155 -0.4741  0.0702
10154W        W26048   9.983   2.869  12.751  0.2638  0.0908  0.0250
10155W        W26049   6.586  17.538   4.194  0.3782 -0.0877 -0.0528
10156W        W26050  11.200  15.117  14.089 -0.0315 -0.0210 -0.4216
10157W        W26051  15.951   7.316   1.087 -0.0568  0.0845  0.1111
10158W        W26052  16.433  14.677  12.978 -0.0325 -0.0703 -0.0831
10159W        W26053  12.096  12.555  13.176  0.3512  0.1479  0.0584
10160W        W26054  16.269  19.018   4.869  0.2080 -0.1274  0.0085
10161W        W26055   1.999   3.762  12.603 -0.1226 -0.0980 -0.1382
10162W        W26056   9.233  18.339  10.675 -0.2814  0.1599  0.2179
10163W        W26057   0.391  15.513   2.204  0.2991 -0.0854  0.2467
10164W        W26058  10.789  17.186  12.017 -0.1132 -0.0140 -0.1336
10165W        W26059   9.986   2.360   4.147  0.0409  0.0356  0.2469
10166W        W26060  15.024   0.100   2.760  0.1491  0.0700  0.0881
10167W        W26061   1.817  18.755   9.714  0.2372  0.0523  0.1758
10168W        W26062   3.173   1.065  10.968  0.1328  0.0537 -0.0354
10169W        W26063  15.033  19.082   2.230 -0.0299  0.3700 -0.1571
10170W        W26064   0.537   4.876   2.858 -0.0038  0.1939  0.1291
10171W        W26065  13.428  17.463  12.132  0.0295  0.0667 -0.3754
10172W        W26066  16.851  13.005  11.238 -0.2502  0.0382  0.2110
10173W        W26067   8.101   8.092  10.658 -0.0486 -0.2013 -0.0702
10174W        W26068  16.047   6.426   2.356 -0.3262 -0.2553 -0.1648
10175W        W26069   6.602   1.153   1.726 -0.1342  0.1260  0.1230
10176W        W26070  17.245   7.030  15.031  0.1750 -0.1066  0.3903
10177W        W26071   3.298  17.784   0.425  0.0636 -0.0048 -0.1845
10178W        W26072   9.766  10.587   3.270 -0.1943  0.0074  0.2374
10179W        W26073   3.323  10.713   3.282  0.3818 -0.1076  0.0981
10180W        W26074  10.268   2.925   4.070  0.0245 -0.5522 -0.0597
10181W        W26075   8.426  17.065   2.848  0.1104  0.1696  0.2337
10182W        W26076  14.949   4.582  13.345 -0.1394 -0.1534  0.0707
10183W        W26077   8.223   8.979  11.127 -0.0352 -0.1062 -0.1302
10184W        W26078   1.781   2.167  14.899  0.1043  0.0644  0.0447
10185W        W26079  12.413   9.450   3.331 -0.1543  0.1743  0.2430
10186W        W26080   0.887   2.872  13.735 -0.0685 -0.2168  0.4479
10187W        W26081   4.699  12.987  14.786  0.1141  0.1917 -0.3186
10188W        W26082   1.456  13.638   9.497  0.0320 -0.2021 -0.4085
10189W        W26083   2.676  16.657  11.762  0.0849 -0.1009  0.1671
10190W        W26084   3.269   8.512   3.215 -0.2657  0.1302 -0.0495
10191W        W26085   3.725   1.063   2.756 -0.2538 -0.2870 -0.0704
10192W        W26086  11.274  14.890   3.305  0.1606  0.1455 -0.0678
10193W        W26087  17.649   6.296  13.018 -0.2165  0.0385  0.0567
10194W        W26088  14.166   7.815  14.244 -0.2940 -0.1782 -0.3061
10195W        W26089  10.380   1.013  12.754 -0.3024  0.0582 -0.1010
10196W        W26090   8.959  11.298   2.528  0.4952 -0.0657 -0.2212
10197W        W26091   3.028   8.944  12.159  0.0598  0.0811 -0.2513
10198W        W26092   7.623   9.347   4.643 -0.2196  0.1731 -0.1496
10199W        W26093  11.699   5.652   1.091  0.1624  0.0865 -0.0526
10200W        W26094  13.418   0.176   2.546 -0.0448  0.0394  0.0899
10201W        W26095   6.422  19.009  11.293  0.2756  0.1157  0.0591
10202W        W26096  13.827  18.986  12.462 -0.0206 -0.1556 -0.0828
10203W        W26097   2.709   6.273  13.173  0.2843 -0.2571 -0.0323
10204W        W26098  10.043   8.573  14.956  0.0204 -0.0952  0.1592
10205W        W26099  15.411  18.683   1.278 -0.4571 -0.0112  0.1151
10206W        W26100   3.507   3.687  13.541 -0.0979 -0.2137  0.3467
10207W        W26101   8.989  16.444  14.979  0.2137  0.1386 -0.2477
10208W        W26102   8.050   9.944   0.970 -0.5409 -0.2334 -0.1203
10209W        W26103   5.289   9.474   1.168  0.1844 -0.1056 -0.1673
10210W        W26104  16.736  17.341   3.201 -0.0742 -0.1751 -0.0004
10211W        W26105   5.371   7.162   9.938  0.2054 -0.3600 -0.3561
10212W        W26106  10.380   9.011  10.845  0.1691 -0.1137 -0.1220
10213W        W26107  10.230  13.714  10.150 -0.3093  0.2533 -0.0834
10214W        W26108  16.188   1.918   3.971 -0.1887 -0.0860  0.0652
10215W        W26109  17.685   0.128  12.073  0.1860  0.1354  0.0278
10216W        W26110  16.554  12.247   1.965  0.1735 -0.3084  0.0310
10217W        W26111   9.862   2.098  11.750 -0.0504 -0.2878 -0.1663
10218W        W26112  15.980   2.552   9.837 -0.2459 -0.1181 -0.0653
10219W        W26113   4.400   7.751  13.973 -0.0195  0.2281  0.1487
10220W        W26114   9.348   6.106  12.514 -0.2063  0.2097 -0.0107
10221W        W26115   6.276   9.590   4.872 -0.1358 -0.2675 -0.0871
10222W        W26116   4.799   1.551   5.160  0.0417 -0.3178  0.2650
10223W        W26117   5.407   7.140   0.839  0.0338 -0.1510  0.1945
10224W        W26118   9.538   9.620   4.705 -0.0999 -0.0412  0.4825
10225W        W26119  15.838   3.628  11.776 -0.0790 -0.0247 -0.2479
10226W        W26120  17.988   8.621  13.205  0.0011  0.0621  0.2022
10227W        W26121  10.073  10.813  14.596 -0.1708 -0.3006 -0.1326
10228W        W26122  19.180  18.078   5.153  0.1764  0.3108  0.4413
10229W        W26123  12.310  18.654  14.299 -0.2734  0.2629  0.1567
10230W        W26124  16.253   5.001   0.889 -0.0749  0.1468  0.0552
10231W        W26125   4.678  10.836   4.373 -0.1536 -0.2382 -0.1835
10232W        W26126   4.396   8.304  14.247  0.1915  0.1060 -0.0664
10233W        W26127   3.288   5.356   3.944  0.0074  0.0565  0.2009
10234W        W26128  12.104  18.929   1.901 -0.0942  0.1354 -0.0905
10235W        W26129   4.748   8.628   1.767  0.0477 -0.2788 -0.2638
10236W        W26130   8.607  13.581   3.854 -0.0675  0.4468 -0.0684
10237W        W26131  10.175   8.351   2.446  0.1740  0.0519 -0.1237
10238W        W26132  13.106  16.405  14.047 -0.0247  0.1603  0.2321
10239W        W26133   4.149   6.313   4.281  0.1294  0.0236  0.0532
10240W        W26134  14.467   4.880   1.161  0.1786 -0.1024  0.1648
10241W        W26135  17.242  14.053  12.962 -0.2934 -0.1047 -0.2030
10242W        W26136   2.048  18.988  14.312 -0.2679  0.2390  0.2703
10243W        W26137  13.106   9.389   0.542  0.3462  0.0261  0.0727
10244W        W26138   9.485   4.714  13.880  0.0765 -0.4109  0.0312
10245W        W26139  17.488   9.826  14.054  0.0406  0.3018 -0.2353
10246W        W26140   0.500   1.360   5.637 -0.1918  0.2936 -0.2698
10247W        W26141  11.334   4.666  12.022 -0.0137  0.3585 -0.0108
10248W        W26142   1.674  18.339   1.946 -0.0351 -0.0392  0.4075
10249W        W26143   1.417  12.866   2.603  0.1754 -0.4135 -0.1015
10250W        W26144   2.109  15.335   4.543 -0.0626  0.0651 -0.0098
10251W        W26145  12.411   9.000   4.158  0.1262 -0.0202  0.1283
10252W        W26146   8.569   3.175  13.686  0.0612  0.1838 -0.0057
10253W        W26147  14.914   0.331   0.450 -0.1908 -0.0071 -0.2755
10254W        W26148   2.731   8.609  10.352 -0.2027 -0.1999 -0.2183
10255W        W26149   3.671   2.036  11.800 -0.2103  0.2970 -0.1421
10256W        W26150   4.064  18.867   4.161  0.0077 -0.1053 -0.1622
10257W        W26151  10.284  18.236  13.749 -0.2098  0.0981  0.0272
10258W        W26152  12.434   2.645   0.739  0.0393  0.0645 -0.0456
10259W        W26153  10.804   6.760   2.558  0.3636  0.3365  0.1063
10260W        W26154  10.277  10.006  11.180 -0.0916  0.0827  0.1264
10261W        W26155   4.326   5.866  14.451 -0.1078 -0.3016  0.2529
10262W        W26156   3.315  16.595   4.140 -0.1117  0.1453  0.0064
10263W        W26157  11.279   1.697  14.428  0.3537  0.0790  0.1399
10264W        W26158  11.593   4.434  12.908 -0.2908 -0.0208 -0.2872
10265W        W26159   3.173   3.906  12.578 -0.0365  0.2588  0.1835
10266W        W26160  18.758  18.471   0.514  0.5226 -0.0500 -0.1796
10267W        W26161  16.061   3.086  11.653  0.0776  0.1999  0.1203
10268W        W26162  11.363   9.849   4.304  0.2309  0.0022 -0.0632
10269W        W26163   0.294   3.100   0.098  0.0535  0.2028 -0.1392
10270W        W26164   5.628   4.835  11.297  0.0022 -0.0372 -0.2222
10271W        W26165   2.071  13.904   1.254 -0.1444  0.2336  0.0180
10272W        W26166  16.988   4.456   4.053  0.3191  0.3253 -0.3279
10273W        W26167  12.768   2.534  14.850 -0.4462  0.3740  0.1695
10274W        W26168  10.628   8.894   1.238 -0.0146 -0.0566  0.0648
10275W        W26169  18.124   2.938  11.040  0.2639  0.2581 -0.2045
10276W        W26170  16.782  15.837   4.854  0.2262 -0.0328 -0.0567
10277W        W26171  16.424  11.556  13.656  0.3308 -0.2304  0.0281
10278W        W26172   6.160  16.122  13.922 -0.0155 -0.2344  0.1584
10279W        W26173   4.259   8.695  12.640  0.0544  0.2409  0.1838
10280W        W26174  13.420   4.576   3.745 -0.0603 -0.4574  0.1377
10281W        W26175   1.498  18.978   1.729 -0.1850 -0.0329  0.2286
10282W        W26176   9.563   4.597  14.477 -0.2453  0.0266  0.0076
10283W        W26177   7.467   0.520   0.173 -0.0375 -0.2822 -0.2037
10284W        W26178   7.856   2.718   2.521 -0.1724 -0.0225  0.0307
10285W        W26179  15.894   2.747   3.725 -0.0900 -0.2641 -0.1504
10286W        W26180   8.329   4.842  13.653  0.0795  0.2081  0.2785
10287W        W26181   0.523  16.139  12.349 -0.0542  0.0461 -0.0429
10288W        W26182  15.931   7.270  14.036 -0.0111  0.2753 -0.0857
10289W        W26183   2.116   1.023  13.273  0.0682  0.5251 -0.3349
10290W        W26184  17.864   8.639   2.292 -0.1309  0.1035  0.2758
10291W        W26185   4.018   0.288   4.847 -0.1219 -0.2021  0.2514
10292W        W26186   3.197   1.814   3.708  0.2966 -0.0040  0.0414
10293W        W26187  17.933   8.454  10.370 -0.2330  0.1956  0.2536
10294W        W26188  18.307   2.625   5.400  0.0536 -0.0822 -0.1409
10295W        W26189  12.791   6.531  12.178 -0.0573 -0.1361  0.0620
10296W        W26190  17.683   1.927  15.096  0.0069 -0.0534  0.0316
10297W        W26191  11.511  14.248  10.330 -0.0158 -0.1740 -0.1713
10298W        W26192  17.797   3.540  15.141  0.1173  0.1368  0.2444
10299W        W26193   4.203  18.700   3.410  0.0209  0.3597 -0.0253
10300W        W26194  14.786   4.706   1.876 -0.1639  0.1357  0.0219
10301W        W26195  10.369   5.774  11.437 -0.2384 -0.3087  0.0593
10302W        W26196  12.869  17.317  13.970  0.5551  0.2192 -0.0624
10303W        W26197   6.903   8.914   2.772 -0.0070 -0.3695 -0.1505
10304W        W26198   2.346  12.113   1.598 -0.0344  0.0476  0.1319
10305W        W26199  17.268   7.109   4.858 -0.1334 -0.0547 -0.0349
10306W        W26200  10.525  13.477   1.313  0.1001 -0.1625 -0.4788
10307W        W26201   1.138   6.740  11.507  0.0434  0.0715 -0.1516
10308W        W26202  14.320   1.083   0.855  0.0064  0.2121  0.0533
10309W        W26203   0.916  12.439  13.109  0.0927 -0.0947 -0.4760
10310W        W26204  11.308  10.411  14.340  0.0204  0.1573  0.1766
10311W        W26205  12.667   1.890   1.152  0.0012 -0.0946 -0.0330
10312W        W26206  16.405   7.382   0.673 -0.1354 -0.0353  0.1204
10313W        W26207  18.535   4.294  10.636  0.1900  0.2780 -0.1357
10314W        W26208  17.468  12.211  12.705 -0.1967  0.1276 -0.0752
10315W        W26209   1.840  13.189  14.852  0.0643 -0.1674  0.0749
10316W        W26210  16.811   2.892   5.749 -0.0809 -0.1111 -0.2314
10317W        W26211   0.233   7.052  12.566  0.0136 -0.1313 -0.3065
10318W        W26212   2.746  15.891   4.667  0.1678  0.1321 -0.0059
10319W        W26213  10.802  15.554   0.668 -0.0622 -0.2421  0.0653
10320W        W26214   1.027   5.967   0.756  0.0038 -0.1643  0.1881
10321W        W26215  10.021  14.460   0.360  0.1119 -0.0517 -0.1938
10322W        W26216   0.939   8.013   3.291  0.2067 -0.0940  0.0705
10323W        W26217  18.323  15.667  13.859  0.1238  0.6261  0.1201
10324W        W26218  18.527  17.822   2.994 -0.0047 -0.0751  0.2485
10325W        W26219  10.235  19.057   4.633  0.0780  0.2255 -0.1712
10326W        W26220   1.492  14.209   3.954 -0.2702 -0.0366  0.0630
10327W        W26221   7.095   0.170   9.096 -0.1440  0.0803 -0.4023
10328W        W26222   5.406  10.835   2.341 -0.2692 -0.1097  0.0296
10329W        W26223  10.417  10.317   3.908  0.0618  0.3939 -0.4179
10330W        W26224  15.025  11.983   3.137  0.2728 -0.1755  0.0585
10331W        W26225   7.308  11.159   4.788 -0.0181  0.0477 -0.2529
10332W        W26226   1.687  17.201  11.764 -0.0961 -0.1109  0.0772
10333W        W26227  11.809  10.672   3.937  0.0495  0.2779  0.0397
10334W        W26228  10.426   6.440   3.680  0.0614 -0.3028  0.3320
10335W        W26229   7.206   2.512   5.166  0.0637 -0.1309  0.1053
10336W        W26230   9.446  15.888  12.960 -0.0067 -0.1699 -0.0967
10337W        W26231  17.556  16.960  10.973  0.2499 -0.1903 -0.0301
10338W        W26232   6.351  19.066  14.069 -0.0719  0.3433 -0.2109
10339W        W26233  14.144   4.378  13.637  0.1939 -0.1625  0.0686
10340W        W26234  11.951   1.809   1.140 -0.5315  0.0403 -0.1431
10341W        W26235   3.114  11.396  10.998 -0.4512 -0.2410 -0.1018
10342W        W26236   3.492   2.228   9.630 -0.1934 -0.1034 -0.1444
10343W        W26237   5.018  12.714  14.014  0.1737 -0.4776 -0.0310
10344W        W26238  18.292   5.368   2.034  0.2146  0.2099  0.3656
10345W        W26239   8.300  10.875  14.588  0.1491  0.0548 -0.0802
10346W        W26240   5.460   2.656   1.125  0.0360 -0.2650 -0.0353
10347W        W26241   0.511   9.551  11.764  0.0082 -0.0084  0.0889
10348W        W26242  11.425   3.575  11.089  0.2227 -0.1195 -0.0904
10349W        W26243  18.676   0.395   4.202 -0.1485  0.2727 -0.2813
10350W        W26244   6.943   7.424  10.337  0.0548  0.0783 -0.1120
10351W        W26245  18.234   1.903  15.127 -0.0308  0.1404 -0.1059
10352W        W26246   4.914   9.588  11.829 -0.0507  0.1373 -0.2920
10353W        W26247  13.104   0.168  15.033 -0.2467  0.2359 -0.1569
10354W        W26248   5.208   8.676  12.453 -0.3579  0.2731 -0.0909
10355W        W26249   5.215  12.931   0.853  0.1159  0.0009 -0.0240
10356W        W26250  17.337   3.027  13.375 -0.0462 -0.0905  0.0095
10357W        W26251   4.021   1.034   4.884 -0.0301  0.0263  0.1157
10358W        W26252   5.898   1.494   1.716  0.2074  0.0904 -0.0357
10359W        W26253   5.511   3.880   0.414 -0.0124  0.1136 -0.2390
10360W        W26254   9.041   2.993   3.799 -0.0209  0.5175 -0.0345
10361W        W26255  11.375  10.203   1.032 -0.1176  0.1395 -0.1899
10362W        W26256   1.622  12.882   4.107  0.0993  0.2376 -0.3839
10363W        W26257  17.733   8.902   4.173  0.0766 -0.2276 -0.0842
10364W        W26258   6.511   6.215   3.294 -0.1559 -0.0153  0.1914
10365W        W26259  16.755  11.474   1.187 -0.0298 -0.1846  0.2890
10366W        W26260  11.313   5.395   1.274  0.2412 -0.1771  0.0319
10367W        W26261  18.621   0.053  12.556 -0.3363  0.0956 -0.1400
10368W        W26262  11.956  12.107  13.196 -0.0499  0.0950  0.0972
10369W        W26263  14.851   8.990  14.452  0.2632 -0.0170 -0.3654
10370W        W26264  11.061  10.067   0.000  0.3093 -0.4387 -0.0745
10371W        W26265   4.994  17.857   5.057 -0.1545  0.1521  0.0129
10372W        W26266   5.423   0.964  13.717 -0.0106  0.2705 -0.1491
10373W        W26267   0.101  17.139  13.443 -0.1673  0.2655 -0.1978
10374W        W26268   9.688  15.418   2.942  0.1091 -0.2119  0.0214
10375W        W26269  12.812   3.964   9.939  0.1863 -0.2700  0.4773
10376W        W26270   8.782  10.538  10.950  0.1148 -0.3022 -0.1957
10377W        W26271   5.736  11.938  11.687  0.0451 -0.0032 -0.0315
10378W        W26272   6.834  16.464   2.031  0.0362  0.2971  0.1381
10379W        W26273  10.008  16.731   2.749  0.3606  0.2790  0.0879
10380W        W26274  12.018   9.720  11.510  0.1376 -0.2333  0.2577
10381W        W26275   4.226  16.435  11.023  0.0017  0.2599  0.2080
10382W        W26276  16.868  18.329   5.214  0.0099  0.1999  0.0901
10383W        W26277   8.828  11.449   0.877 -0.2422  0.2084 -0.0351
10384W        W26278   4.273  19.070   0.850  0.2013  0.0176  0.0690
10385W        W26279   0.312  17.962   2.366 -0.1412  0.1893  0.1298
10386W        W26280  11.121   6.528  13.296 -0.2541 -0.0207 -0.1082
10387W        W26281  16.316  10.526  13.490  0.1200 -0.0305 -0.0452
10388W        W26282  15.617   0.778  15.147  0.0258  0.0870  0.1984
10389W        W26283   7.013   0.227   1.405  0.0842 -0.1876  0.0754
10390W        W26284   0.942   8.138  10.728  0.0682  0.0220  0.2591
10391W        W26285  11.598   0.201  11.318  0.1681 -0.3327 -0.0541
10392W        W26286  19.062   3.678   2.976 -0.0147 -0.0670 -0.0519
10393W        W26287   5.591  16.557   3.836  0.2556 -0.2966 -0.0384
10394W        W26288  17.657  19.169   5.046  0.1004  0.2717 -0.0703
10395W        W26289  17.956   2.541  12.040  0.1582  0.1744 -0.4246
10396W        W26290   0.661  12.939   0.950 -0.2761  0.2597 -0.0240
10397W        W26291   2.558   5.863   3.478 -0.0733  0.0055 -0.1771
10398W        W26292   8.676  12.613  13.621  0.1924 -0.1776  0.1588
10399W        W26293  16.423   0.085  10.782  0.1368 -0.2346  0.1065
10400W        W26294  18.218  13.958  13.610 -0.0137  0.0264  0.1222
10401W        W26295   6.718   8.629  13.688  0.0335  0.0608  0.1059
10402W        W26296  18.476   4.209  14.564  0.2372  0.0425 -0.0938
10403W        W26297   6.968   2.964   2.274  0.0230 -0.4747 -0.2508
10404W        W26298  12.763  10.078  10.237  0.1786 -0.0176 -0.1428
10405W        W26299   6.998  13.526   1.296  0.1678 -0.0700  0.5300
10406W        W26300   6.971  14.625   2.603 -0.0823 -0.0370  0.0611
10407W        W26301  12.466  12.040   4.560  0.0577  0.1128 -0.4125
10408W        W26302  16.131   3.422  12.626 -0.1038 -0.2495 -0.0317
10409W        W26303  10.482  15.877   2.651 -0.1305  0.1299 -0.2510
10410W        W26304   7.559   3.679  15.010  0.2385 -0.0880 -0.1224
10411W        W26305  15.425  17.271   5.147  0.2325  0.1425 -0.3178
10412W        W26306   9.769  18.318  11.884 -0.3282 -0.0303  0.1387
10413W        W26307   4.650  11.788   3.159  0.0605  0.0953  0.0678
10414W        W26308   8.652   6.577  11.004 -0.2469 -0.3179 -0.2699
10415W        W26309   8.300  19.164  10.494  0.2901  0.1193  0.0736
10416W        W26310  13.853   0.207   2.843  0.0332 -0.2223  0.0813
10417W        W26311   0.008   9.603  11.945  0.0442  0.3115  0.1192
10418W        W26312  12.875  10.474   0.179  0.0765  0.1501 -0.1574
10419W        W26313   5.236  15.236   3.235  0.1164 -0.0972 -0.0735
10420W        W26314   6.414   0.212  11.040  0.0081  0.0550  0.0679
10421W        W26315  10.787  14.957  13.905  0.0850  0.1887 -0.1784
10422W        W26316  17.894   5.625   1.995  0.3123 -0.3597 -0.0260
10423W        W26317  11.188  18.745   3.709 -0.1463  0.1067 -0.2079
10424W        W26318   8.478  18.163  10.586  0.2070 -0.1786 -0.2826
10425W        W26319  16.220  16.217  11.879  0.1129  0.0514 -0.1750
10426W        W26320   7.342   3.722   4.974 -0.3461 -0.2117  0.1714
10427W        W26321   5.914  10.489  11.653  0.2725 -0.3082 -0.3100
10428W        W26322   4.501   0.167   2.053 -0.1648  0.3266 -0.3886
10429W        W26323  14.460   6.472  13.039 -0.1324 -0.2968  0.0145
10430W        W26324   9.525   9.441   0.421 -0.2070 -0.2239 -0.0399
10431W        W26325  12.082  17.618  14.535 -0.1766 -0.1341  0.0607
10432W        W26326  10.039  15.103   2.721  0.0705 -0.0973  0.1327
10433W        W26327  15.259   1.843  15.167  0.0088  0.4172 -0.2080
10434W        W26328  15.248  17.943  15.042 -0.0885  0.1088  0.2778
10435W        W26329   7.784   4.877  10.691 -0.2469  0.0886 -0.0865
10436W        W26330   8.713   0.063  15.163  0.1585  0.0223 -0.0779
10437W        W26331   0.954   7.518  11.381 -0.1560  0.1311 -0.2105
10438W        W26332   1.503  10.305  12.898 -0.2593  0.0633 -0.1519
10439W        W26333  11.992   3.335   1.138 -0.0686  0.1218 -0.1576
10440W        W26334  11.606  13.485  13.398  0.2090 -0.1889  0.0702
10441W        W26335  17.279   1.793   2.717 -0.2055 -0.2616  0.2689
10442W        W26336   0.144   3.702   4.026  0.2414  0.0159 -0.0839
10443W        W26337  10.844   9.768   3.070 -0.1021  0.1864 -0.1408
10444W        W26338  15.063  14.638  12.388  0.2696  0.0462 -0.0452
10445W        W26339   4.135  11.115   5.715 -0.2664 -0.3334 -0.0606
10446W        W26340   7.749  17.296  14.462 -0.0503  0.1469  0.2138
10447W        W26341  12.696   7.358   2.578  0.0480  0.3397  0.0685
10448W        W26342   0.254  11.952   2.751 -0.0691  0.1109 -0.0223
10449W        W26343  13.370  12.805   0.058 -0.4793  0.2222 -0.0129
10450W        W26344  17.971   5.605  14.751  0.1881 -0.4168 -0.0630
10451W        W26345  18.159   7.276   0.108  0.0308 -0.1188 -0.0354
10452W        W26346   0.992   2.412   4.830 -0.2476  0.1660  0.2341
10453W        W26347   5.394  18.395  14.211 -0.2843 -0.0213  0.1281
10454W        W26348  14.484   4.338   4.512 -0.2792  0.0835 -0.0166
10455W        W26349   5.460  10.872   4.740 -0.4416  0.0385  0.1748
10456W        W26350   5.759  10.733  14.116  0.2631 -0.1784  0.3593
10457W        W26351   0.761  12.422   1.678 -0.0803 -0.0713  0.1560
10458W        W26352  15.184  18.489   4.844  0.0137 -0.0456 -0.0301
10459W        W26353   3.368   1.025   1.901  0.0218 -0.0700  0.0460
10460W        W26354  14.912   2.999   1.037  0.0211 -0.1722 -0.2383
10461W        W26355  15.951  17.729   2.499  0.0765  0.0559 -0.2778
10462W        W26356   9.410  10.284   3.008  0.6126  0.2746 -0.1904
10463W        W26357   5.968   6.510  12.520  0.3100 -0.0211  0.0069
10464W        W26358   5.492   4.305  12.349  0.0521 -0.1805 -0.4268
10465W        W26359   8.580  15.633  14.749  0.0373 -0.0857 -0.1137
10466W        W26360  15.161   4.375   5.013 -0.0238 -0.2610  0.0914
10467W        W26361  18.915   5.795  10.900 -0.2694  0.1298 -0.1022
10468W        W26362  12.759   5.928  11.258  0.2376 -0.0752 -0.0079
10469W        W26363   4.684   6.801   2.410 -0.1562  0.2506 -0.1960
10470W        W26364  18.058   6.718  10.906  0.1997  0.0347 -0.3887
10471W        W26365   4.115   1.699  12.270 -0.1677  0.0649 -0.2252
10472W        W26366   3.050  13.240  10.654  0.1633  0.1119  0.1483
10473W        W26367   6.831   4.372  14.326  0.2117  0.0703 -0.0878
10474W        W26368  12.851  13.175   5.166  0.1589  0.4736  0.1997
10475W        W26369   6.823   4.663  13.366 -0.1719  0.0202  0.0508
10476W        W26370   3.383  16.558   0.182 -0.0523 -0.2241 -0.1090
10477W        W26371   4.699   0.699  11.311 -0.0930 -0.2551 -0.1739
10478W        W26372  10.582  15.268   2.749 -0.1080  0.1396 -0.2023
10479W        W26373  14.606  11.034   2.685 -0.0062  0.1679 -0.0349
10480W        W26374  13.922  18.145  12.868  0.1455 -0.0462  0.0941
10481W        W26375   2.661   7.983   0.648 -0.3034  0.0080  0.0510
10482W        W26376   4.102  11.786  14.577 -0.2379  0.0245 -0.0770
10483W        W26377  10.774  14.331  11.951  0.1543  0.2896 -0.2903
10484W        W26378   5.242  16.281   3.105 -0.0760  0.2258 -0.2312
10485W        W26379   9.882  18.634   2.105  0.0006  0.2326 -0.2045
10486W        W26380   0.072   5.927   2.796 -0.4066  0.3229  0.2417
10487W        W26381  18.188   1.196  12.220  0.0726  0.1757  0.1410
10488W        W26382   3.832  14.080  10.028 -0.0759 -0.1243  0.1351
10489W        W26383   9.785   1.943   2.228 -0.2579  0.3092 -0.4367
10490W        W26384  13.846   6.240   2.919 -0.3113 -0.1768 -0.1159
10491W        W26385   3.820  11.963  12.614  0.1528  0.1364 -0.0798
10492W        W26386  14.808   2.512   1.102 -0.0936 -0.2611 -0.3662
10493W        W26387  12.837  10.655   2.612  0.0667  0.0361  0.0549
10494W        W26388  12.253   7.969   3.939  0.2875 -0.2323  0.1978
10495W        W26389   0.256  12.191  14.401  0.2593 -0.1993  0.2111
10496W        W26390   2.213  15.884   0.175 -0.2403  0.1339 -0.4645
10497W        W26391   9.189   8.009  14.328 -0.0013 -0.4324 -0.1218
10498W        W26392   0.768  14.725   5.941  0.1129  0.2724  0.0046
10499W        W26393  17.875   6.207   0.947  0.0642  0.1974  0.2765
10500W        W26394   1.514  18.144   5.477  0.0980  0.0229  0.3363
10501W        W26395   1.473   8.818  12.139 -0.1023  0.0555 -0.2449
10502W        W26396  17.149  16.594   4.978 -0.0656 -0.1141  0.2886
10503W        W26397   0.288   7.898  10.863  0.0600 -0.2594  0.3074
10504W        W26398  17.537  18.949   5.495  0.3840  0.1014 -0.5197
10505W        W26399  11.429   0.586   3.871  0.1765  0.1528  0.3288
10506W        W26400  18.977   2.947  14.637 -0.1047  0.3083  0.0068
10507W        W26401   1.017  15.997  10.429  0.2350 -0.0203  0.0008
10508W        W26402  18.766  15.083   3.517  0.0520 -0.0612  0.2836
10509W        W26403  12.009  17.252  13.709 -0.0024  0.0551  0.0406
10510W        W26404  18.234  13.845   4.900  0.1317  0.0335 -0.1257
10511W        W26405  17.082  10.706  13.120  0.1425 -0.0100 -0.0772
10512W        W26406  18.454  15.605   5.392 -0.4473  0.1744 -0.3013
10513W        W26407  10.796  12.047  13.956  0.2279  0.0918 -0.2920
10514W        W26408   0.552   3.648   4.326 -0.3650 -0.2290  0.1003
10515W        W26409   7.119  18.282   3.801  0.2486  0.1429 -0.0049
10516W        W26410   8.581  11.788  14.606  0.3635 -0.0567 -0.0623
10517W        W26411   3.842  12.212   5.509  0.3361  0.2141  0.1586
10518W        W26412  11.633   3.540  11.601 -0.0048  0.1122 -0.4970
10519W        W26413  11.095   9.116   5.942 -0.0308 -0.2400 -0.1953
10520W        W26414  17.841   8.077   4.105 -0.2619  0.0678  0.1680
10521W        W26415  12.847  13.112  13.528 -0.1704 -0.3024 -0.0680
10522W        W26416   7.346  18.066   1.766 -0.2772 -0.0865  0.0426
10523W        W26417   0.689   6.833  12.479 -0.1974 -0.0042  0.0097
10524W        W26418   3.381  13.368   2.452  0.0658  0.0264  0.0142
10525W        W26419  13.341   4.483   3.164  0.2361  0.1653  0.0791
10526W        W26420   5.623   9.870   4.897 -0.3352  0.1706  0.0839
10527W        W26421   1.526  17.199  13.693 -0.0782  0.0364 -0.2289
10528W        W26422   6.412  16.796  11.438 -0.2551  0.1586 -0.1647
10529W        W26423   9.245   8.015  13.440  0.3163  0.0636 -0.1577
10530W        W26424   0.525   5.130  10.809 -0.2398  0.2459 -0.1446
10531W        W26425  12.867   1.776   0.235 -0.1342  0.3217 -0.2086
10532W        W26426   8.025  10.524  10.293 -0.0640 -0.0527  0.0502
10533W        W26427  15.474  14.117   0.461 -0.0583  0.0650 -0.0241
10534W        W26428   2.036  16.252   1.612  0.2131 -0.2753 -0.0087
10535W        W26429   0.419   9.758   3.057  0.2500 -0.0120  0.1219
10536W        W26430   8.675  16.233  12.830 -0.0972 -0.1363 -0.0260
10537W        W26431  16.951  14.643   5.565  0.2502  0.1691  0.2940
10538W        W26432   0.783  11.288   2.738 -0.3890 -0.1479  0.0935
10539W        W26433  18.503  13.973   2.690 -0.0860 -0.0616 -0.0448
10540W        W26434   0.741  14.200   3.473  0.0975 -0.2190 -0.1392
10541W        W26435   8.795  14.804  11.268 -0.3544 -0.0969  0.0271
10542W        W26436   2.494  16.562   3.828  0.1468 -0.1034 -0.0321
10543W        W26437   6.963  17.129   4.919  0.0562 -0.0078  0.1147
10544W        W26438  17.119  12.106  10.381 -0.0691  0.1974  0.2289
10545W        W26439  10.631   6.604  10.870 -0.0497  0.2191  0.1161
10546W        W26440   1.783   5.506  10.408 -0.1196  0.0733  0.0548
10547W        W26441  10.680   0.088   1.153 -0.0431  0.0167 -0.1536
10548W        W26442  17.958  15.480   5.547  0.0151  0.1673  0.1979
10549W        W26443   8.054  15.447   3.070  0.0595 -0.0283  0.0019
10550W        W26444  17.330   8.765   2.097 -0.0661 -0.0116  0.1215
10551W        W26445   7.256   2.482   1.589  0.0625  0.2788  0.0037
10552W        W26446  18.875  12.581   3.360 -0.3067 -0.1227  0.3229
10553W        W26447  11.061  14.329  14.434 -0.2107 -0.2276 -0.4223
10554W        W26448   3.470   5.907   0.824 -0.0981 -0.0544 -0.2543
10555W        W26449  10.709   9.123  15.178 -0.1064 -0.1198  0.1128
10556W        W26450  16.146   8.282   1.127  0.0317  0.0333  0.1952
10557W        W26451  16.085   1.903  12.045 -0.2666  0.1285  0.0522
10558W        W26452  16.624   9.281   4.959  0.1928 -0.0000  0.1968
10559W        W26453   0.095  10.197   4.468 -0.1560  0.2841  0.0223
10560W        W26454  13.759  10.176   1.849 -0.0631  0.0152 -0.4595
10561W        W26455   0.325   0.480   1.719 -0.1738  0.1314 -0.3623
10562W        W26456   6.136  16.697  12.204  0.1609  0.2673  0.0215
10563W        W26457   9.129   0.984   2.274  0.0133 -0.0499 -0.2861
10564W        W26458  10.917  12.028   3.468 -0.2302 -0.2441 -0.1088
10565W        W26459  14.287   5.973  14.054  0.0234  0.0352 -0.0241
10566W        W26460  10.184  11.065   3.034  0.1046  0.0707 -0.1684
10567W        W26461  16.586  13.158  13.827 -0.0291  0.1041  0.1153
10568W        W26462   3.204  11.500   0.804  0.0645 -0.0227  0.1251
10569W        W26463   4.053   8.208  13.514 -0.0692 -0.3215 -0.0293
10570W        W26464   7.841   7.482  14.325 -0.0126 -0.2845 -0.2911
10571W        W26465   3.189   4.065   4.109 -0.1779 -0.1428  0.0449
10572W        W26466  10.243   2.607   0.517  0.2111 -0.0690  0.0580
10573W        W26467   9.426  11.388   2.795 -0.1743 -0.1535 -0.0537
10574W        W26468  14.799   7.019   0.026 -0.0432  0.2135 -0.2546
10575W        W26469   1.250  13.327   0.871 -0.0170 -0.1953  0.0221
10576W        W26470   8.813  13.974   2.125  0.0936  0.0672  0.3553
10577W        W26471  18.820  15.170   5.321  0.2804 -0.0785 -0.1578
10578W        W26472  11.476   7.289  10.908  0.2656  0.2165 -0.3029
10579W        W26473   3.421  16.928  12.668  0.0199  0.2652 -0.1184
10580W        W26474   9.247  12.661   2.023  0.0436  0.1498  0.0178
10581W        W26475   1.944   5.219   1.800  0.0798 -0.0511  0.1234
10582W        W26476  16.907  17.515  14.917  0.2198  0.1034 -0.5282
10583W        W26477  17.910   0.445  14.985  0.1631 -0.0349  0.0018
10584W        W26478   4.298   6.781   0.168  0.0488  0.0442  0.0024
10585W        W26479   8.794   1.539   3.770 -0.0806  0.1597 -0.0602
10586W        W26480   7.251  12.963  10.634 -0.1026 -0.1771 -0.1041
10587W        W26481   6.561  12.424   4.900 -0.2974  0.1333 -0.3759
10588W        W26482  15.714   3.306   0.708 -0.0675  0.4294  0.2110
10589W        W26483   3.831   3.705  12.203  0.0319 -0.1182 -0.0892
10590W        W26484  15.969  15.520   4.608 -0.2822  0.1179 -0.0847
10591W        W26485   9.943  13.241   3.520  0.0907  0.0821  0.0728
10592W        W26486   9.187  13.189   1.181 -0.1323  0.3009 -0.0149
10593W        W26487  12.599   3.643   4.966 -0.0492 -0.3433 -0.2451
10594W        W26488   1.105   1.673   2.910 -0.0846  0.2549 -0.2042
10595W        W26489  13.508   2.650   5.490 -0.0930  0.1201  0.0667
10596W        W26490   9.576  10.955  13.977 -0.2671 -0.2859 -0.0679
10597W        W26491  18.117  16.928   0.821 -0.1623  0.1764 -0.0106
10598W        W26492  11.066  11.202   0.113 -0.0641 -0.3025  0.0296
10599W        W26493  16.969   8.495   4.979 -0.1655  0.1258  0.2401
10600W        W26494   0.702  12.487  13.977  0.1025 -0.1830  0.3333
10601W        W26495   3.804   4.830  10.363 -0.0177 -0.1624 -0.2340
10602W        W26496   1.991   9.985  14.914  0.1307  0.0009  0.1386
10603W        W26497  13.314   7.463  14.009  0.2418 -0.1128  0.1281
10604W        W26498  15.669   4.032   2.687  0.2878 -0.2649  0.1403
10605W        W26499  15.936  11.084   0.846  0.0042 -0.0329  0.0291
10606W        W26500   0.745   8.041  10.240 -0.0548 -0.2726  0.3097
10607W        W26501   3.545   7.580   0.898  0.0038  0.2942  0.1066
10608W        W26502  17.996  12.786  13.271 -0.0057  0.1397 -0.0524
10609W        W26503   0.910   5.964  14.100 -0.0354 -0.1698  0.0732
10610W        W26504   8.600   7.938  11.415 -0.0554 -0.2149  0.1612
10611W        W26505  15.787  13.309  11.879 -0.1008  0.0465  0.2364
10612W        W26506  10.891   0.954   2.472  0.1060 -0.0405 -0.0384
10613W        W26507   6.812  11.536   3.378  0.1503 -0.0900 -0.2125
10614W        W26508   2.987  10.310   3.291  0.0804  0.0765 -0.0076
10615W        W26509  15.605  17.287  10.229 -0.2827 -0.0409 -0.2550
10616W        W26510   8.868   9.426   5.029 -0.0661  0.1407  0.2388
10617W        W26511  11.522  19.097   5.082 -0.0832 -0.0871  0.2181
10618W        W26512  14.101  13.705  12.741  0.2349 -0.2042  0.0528
10619W        W26513  15.331  13.291   1.899  0.1020 -0.0081  0.3587
10620W        W26514   1.320  17.131   5.288 -0.0398  0.3191 -0.0948
10621W        W26515  14.333  18.617   1.473  0.0271  0.0348  0.2977
10622W        W26516   4.473   2.984   2.484 -0.1642 -0.0989  0.1175
10623W        W26517   9.870   0.859   0.507  0.0209 -0.1033  0.1878
10624W        W26518   8.610   7.540   4.958  0.1781 -0.1493  0.1271
10625W        W26519   5.137  14.331   0.635 -0.0567  0.2843  0.0215
10626W        W26520  10.342  17.954   1.836 -0.2178  0.0991 -0.1339
10627W        W26521   1.883   7.756  13.662 -0.0532  0.0038  0.0920
10628W        W26522  12.943  13.396   4.654 -0.0057 -0.1648  0.1260
10629W        W26523  16.104   4.138   6.214  0.1490  0.1555 -0.1932
10630W        W26524  15.180  15.379  12.988 -0.2797  0.0804 -0.1888
10631W        W26525  13.018   5.280  15.133 -0.2993  0.1199  0.1038
10632W        W26526   1.577  11.008   1.669  0.0862  0.3495  0.0755
10633W        W26527   6.202   6.193   4.560 -0.1730 -0.3034  0.1151
10634W        W26528  14.767   0.927   3.850  0.3143  0.1092 -0.1430
10635W        W26529  18.727   1.504  12.496  0.0343 -0.3176 -0.3485
10636W        W26530  15.504  10.196   4.831 -0.0523  0.0496  0.2018
10637W        W26531   3.199  18.667   3.524 -0.2458 -0.0303  0.1897
10638W        W26532   4.430   5.628  10.419  0.0145 -0.0622  0.0187
10639W        W26533   7.279   7.032   0.945 -0.1960  0.2485  0.1729
10640W        W26534  13.245  14.451   0.767  0.1105  0.0200 -0.3049
10641W        W26535   4.569   3.629  13.404  0.1069  0.1556  0.1364
10642W        W26536   0.025  15.937  13.927 -0.0139  0.0375 -0.2197
10643W        W26537  15.338  11.037   9.546  0.2080  0.0716 -0.1199
10644W        W26538   3.323   9.346  14.938  0.1274 -0.2793 -0.2639
10645W        W26539  16.906   1.794  14.602 -0.1946 -0.0057 -0.1661
10646W        W26540   8.484   8.420   2.203  0.2275 -0.3626 -0.2768
10647W        W26541  11.031  10.592  14.714 -0.0489 -0.1003 -0.1624
10648W        W26542  16.796  16.948   5.738 -0.0565  0.1434 -0.1553
10649W        W26543   9.860  18.020   5.347  0.0085  0.1066  0.1149
10650W        W26544  11.676  12.731   2.499 -0.1743  0.2632  0.3282
10651W        W26545   8.686  11.293   5.034  0.5300 -0.1060 -0.3320
10652W        W26546  13.044  13.623   0.890  0.0142 -0.2499  0.0671
10653W        W26547   8.454  10.448   2.428  0.2026 -0.2662 -0.4064
10654W        W26548  15.952   4.902  14.944  0.0211 -0.0149 -0.0750
10655W        W26549  17.221  15.884   4.542 -0.0990 -0.3978  0.3701
10656W        W26550  13.484  12.560   0.576 -0.0292  0.0820  0.4235
10657W        W26551   4.269  11.553   5.100  0.1641  0.1813 -0.4204
10658W        W26552  14.943  17.186   3.166 -0.0552 -0.1031 -0.0860
10659W        W26553   7.084  15.179  14.312  0.0943  0.2024  0.0520
10660W        W26554  11.408  16.147  10.594  0.0442 -0.3076  0.0213
10661W        W26555   1.263   8.873   0.761  0.0251  0.1449  0.1104
10662W        W26556   4.190   0.938  11.090  0.1916  0.0051 -0.0995
10663W        W26557  16.584   5.225  14.561 -0.0160 -0.0839 -0.3461
10664W        W26558  16.831  17.948   4.900 -0.0452 -0.2100 -0.0542
10665W        W26559  12.980  12.129   4.346  0.0957 -0.1089 -0.5488
10666W        W26560   1.712   9.860   1.808 -0.2184 -0.1083 -0.2163
10667W        W26561  13.237  18.156  13.462  0.0006 -0.0828  0.0974
10668W        W26562   1.023   2.731   2.614 -0.2596 -0.0821  0.1660
10669W        W26563   3.010   2.870   4.769 -0.0290  0.3050  0.1515
10670W        W26564  10.027  18.776  13.720 -0.0302  0.3131 -0.1094
10671W        W26565   5.526   7.632   0.726 -0.2653 -0.1247 -0.0402
10672W        W26566  12.028  18.151   0.603 -0.1017  0.3537 -0.3623
10673W        W26567   2.787  16.562   1.265 -0.1697  0.0137 -0.0659
10674W        W26568  18.607  10.800  13.848  0.3121  0.0443 -0.0025
10675W        W26569   7.347  17.634  10.551 -0.1772  0.1400 -0.1034
10676W        W26570  19.022   1.242   3.853 -0.1916 -0.0699  0.0100
10677W        W26571  17.139   9.186  14.717 -0.0847 -0.0826  0.4984
10678W        W26572  11.976   1.137   0.681 -0.3103 -0.3653 -0.0129
10679W        W26573   5.187   5.839   2.503  0.0067 -0.2101  0.0055
10680W        W26574   5.628  12.415   2.339 -0.1263  0.0266  0.3154
10681W        W26575  15.050  17.054   0.440  0.0707 -0.0403  0.3212
10682W        W26576   2.637   7.627   1.232  0.1929  0.2610  0.2195
10683W        W26577   8.972  12.891  12.699  0.2998  0.1179 -0.0660
10684W        W26578   3.057   1.602  11.257 -0.2411 -0.4142 -0.2182
10685W        W26579  18.222  17.165   2.453  0.1078  0.1517  0.0464
10686W        W26580   8.599  12.066   5.003  0.0739 -0.2356 -0.1124
10687W        W26581  18.736   8.222  14.878  0.0284 -0.3864  0.0898
10688W        W26582   2.025  18.827   5.064 -0.4695 -0.0821  0.5417
10689W        W26583  18.772   5.012  12.439 -0.1472 -0.1917  0.1579
10690W        W26584   8.456  19.185   3.405 -0.1962  0.0712 -0.0555
10691W        W26585   3.834  17.579  13.895  0.0797  0.3876  0.0997
10692W        W26586  15.678  16.551  10.665  0.1054 -0.1757  0.0011
10693W        W26587   7.672  16.805  10.583  0.2625  0.0230 -0.2120
10694W        W26588   4.063  15.836   0.526 -0.2577 -0.2785  0.0115
10695W        W26589  12.971   6.049   1.469  0.3220 -0.2348  0.1267
10696W        W26590   5.683  10.919  11.955  0.0580  0.0608  0.0853
10697W        W26591   9.776   2.564  12.438 -0.0124 -0.1191  0.0954
10698W        W26592  18.075   5.473  12.074  0.1807 -0.2182  0.0047
10699W        W26593  13.822  14.672   9.725 -0.0761  0.0469 -0.0302
10700W        W26594  14.657   0.036   1.519  0.4427  0.1865 -0.1427
10701W        W26595   2.435  17.609   0.855  0.0534  0.0181 -0.3375
10702W        W26596   5.400  15.409  13.577  0.1573  0.1618 -0.4686
10703W        W26597   7.523  13.928   3.392  0.1882  0.0620  0.1590
10704W        W26598   9.649  11.032   3.098  0.2865 -0.2728 -0.3327
10705W        W26599   2.670  11.560  11.180 -0.0840  0.0072  0.0365
10706W        W26600   8.825  18.452  10.431 -0.1520 -0.1384 -0.0711
10707W        W26601   2.288   1.128  13.723  0.2270  0.0410  0.0357
10708W        W26602  18.367  16.082   1.315  0.1766 -0.1489 -0.1079
10709W        W26603   1.739  15.508  10.982 -0.0526 -0.4107 -0.1049
10710W        W26604  15.179   9.550   2.236 -0.2381  0.1601 -0.1871
10711W        W26605  15.989   0.141  13.756 -0.3415 -0.0147  0.4047
10712W        W26606   5.902  17.914   2.353  0.1155 -0.2044 -0.0060
10713W        W26607  18.217   9.757   1.468 -0.0246 -0.0028 -0.2116
10714W        W26608   3.524   5.183   1.683 -0.0908 -0.0484  0.0774
10715W        W26609   0.586   7.031  13.036  0.1278 -0.4081  0.3036
10716W        W26610  16.170  16.735  10.959  0.0585  0.3290  0.0411
10717W        W26611   5.833   6.666  12.037 -0.1829  0.1785 -0.0617
10718W        W26612   9.955   7.197  13.966  0.0992 -0.0207  0.0059
10719W        W26613   4.500   0.492  10.924  0.0789 -0.0691 -0.1731
10720W        W26614   8.195  10.899  13.104  0.1519  0.3998  0.0477
10721W        W26615  14.839  14.420   0.983  0.1841  0.1955 -0.0459
10722W        W26616  16.173  17.564  11.670  0.2156  0.0882  0.0623
10723W        W26617  18.513   3.595   3.696 -0.0931  0.0805 -0.3049
10724W        W26618   5.192   6.355   2.616  0.0809 -0.2835  0.1745
10725W        W26619  10.048   4.676  13.238  0.1992 -0.0209 -0.1830
10726W        W26620   7.205  14.191  12.573 -0.3556 -0.0055 -0.2766
10727W        W26621  16.575  15.915   5.677 -0.1947 -0.0390 -0.3296
10728W        W26622  18.793   7.899  12.477  0.0553  0.1505  0.2169
10729W        W26623  11.689  14.137   3.568  0.1094  0.1574  0.2239
10730W        W26624   8.417  14.797   2.509 -0.1317  0.0101  0.0961
10731W        W26625   7.690  16.384   0.745  0.1522  0.1182  0.0318
10732W        W26626   9.389  16.354   9.549 -0.1380  0.1299 -0.0362
10733W        W26627   4.450   0.327   1.121  0.3748 -0.1895 -0.1834
10734W        W26628  17.126   2.265  12.006 -0.0789 -0.0697 -0.1543
10735W        W26629   8.075  10.836  12.574 -0.2904 -0.3577  0.0424
10736W        W26630   0.134   6.797  13.055  0.1899 -0.1324  0.0496
10737W        W26631  17.549   5.980   2.039 -0.1462 -0.0262 -0.2541
10738W        W26632   9.038   0.668  15.143 -0.0008 -0.1385 -0.0892
10739W        W26633   9.433   1.402   9.590  0.1210  0.0937  0.2951
10740W        W26634  17.947  16.731   3.144 -0.2825 -0.0173 -0.1235
10741W        W26635  13.600   0.558   4.136 -0.4682  0.0399  0.0149
10742W        W26636  12.808  14.504   1.366 -0.0113 -0.1705  0.1604
10743W        W26637   1.820  13.935  11.218 -0.0736 -0.2696  0.0926
10744W        W26638  11.223   0.365   0.334 -0.0385 -0.1413  0.2589
10745W        W26639   2.544   2.314  10.872  0.0579 -0.4161 -0.3430
10746W        W26640  16.865  14.237   5.282 -0.2702 -0.0251  0.0842
10747W        W26641  15.973   6.877   1.976 -0.3060  0.2460  0.2825
10748W        W26642  10.522   7.309   4.225  0.0731 -0.0219  0.3544
10749W        W26643   2.941   3.723  11.178 -0.1765  0.0147 -0.0136
10750W        W26644   0.400  11.163   5.615 -0.1250 -0.1717  0.3950
10751W        W26645  10.176   9.006  12.728  0.0765  0.2004  0.1436
10752W        W26646  14.979  15.816   4.267  0.3432  0.0498  0.0236
10753W        W26647   4.856   0.773  10.303 -0.3018  0.1887 -0.3552
10754W        W26648  14.189   4.446   0.084  0.0788  0.3714  0.0678
10755W        W26649  16.029   3.799  14.695 -0.3659 -0.0908 -0.1133
10756W        W26650  15.364   7.240   2.440  0.0542  0.0207 -0.5370
10757W        W26651  11.610   7.878  13.375  0.0350  0.2765  0.2374
10758W        W26652  15.258  15.429  12.128  0.0698 -0.1908 -0.2891
10759W        W26653  15.499   5.711   2.654  0.0061  0.1716  0.1617
10760W        W26654  10.408   5.367   4.454 -0.0504  0.0173 -0.4985
10761W        W26655   4.006  15.317   0.328  0.4094 -0.6614 -0.3817
10762W        W26656   2.632   8.642  13.661  0.2305 -0.4688 -0.4556
10763W        W26657   9.062   0.053  12.735 -0.5616 -0.0617  0.2055
10764W        W26658  13.360  12.089  13.133  0.0086  0.2164 -0.1642
10765W        W26659  14.824   0.589  15.186 -0.2358 -0.0889 -0.0352
10766W        W26660   4.189   7.407  10.748  0.0054  0.2683  0.0659
10767W        W26661   8.658   2.028   3.644 -0.0062  0.0649  0.1790
10768W        W26662  10.629  19.146  11.013  0.1580  0.4355  0.0388
10769W        W26663  11.040  16.587  14.739  0.0098  0.2993  0.2619
10770W        W26664  18.270  10.704  13.000 -0.0369  0.0577 -0.0476
10771W        W26665  10.604   1.093   1.201  0.2026  0.1491  0.3630
10772W        W26666   4.350  13.364   1.942 -0.1996 -0.0970 -0.1141
10773W        W26667   4.101   7.344   1.937 -0.3016  0.2665  0.0329
10774W        W26668   3.652  15.190  13.745  0.1181  0.0534 -0.3233
10775W        W26669  13.102   6.149   0.993 -0.1751 -0.2712  0.2606
10776W        W26670   2.324  18.679   9.203  0.1527 -0.0484 -0.2104
10777W        W26671   1.075   7.604   1.673  0.3447  0.4515 -0.1505
10778W        W26672   5.747  16.108   2.630  0.2928  0.2531  0.2927
10779W        W26673   6.304   4.016   1.952  0.0458  0.0211 -0.0241
10780W        W26674   6.971   8.419  14.972  0.3800  0.2188 -0.0157
10781W        W26675   5.767  18.830   2.827 -0.2064  0.1550  0.0449
10782W        W26676   3.915   7.978   2.704  0.0679  0.0056  0.1556
10783W        W26677  18.080  18.532   3.372  0.1250  0.2190 -0.2549
10784W        W26678  14.112   2.618  14.900  0.2856 -0.1534  0.0379
10785W        W26679   3.745  18.499  14.794 -0.3104 -0.0481 -0.0127
10786W        W26680  14.220   8.909  11.878 -0.0970 -0.1307  0.3218
10787W        W26681   2.096   2.031  11.212 -0.3534 -0.0956 -0.1978
10788W        W26682  14.500  14.091   0.809  0.2766  0.4531  0.1582
10789W        W26683  10.148   4.933  11.356  0.0617 -0.1094  0.0529
10790W        W26684  13.184   7.433  13.160 -0.1994  0.0428  0.0183
10791W        W26685   4.460   7.039  11.573  0.3068 -0.0092 -0.1871
10792W        W26686   9.464   6.509   1.145  0.0720  0.0412 -0.1029
10793W        W26687   1.818   0.213   0.393  0.2588  0.0497 -0.0557
10794W        W26688  13.250   4.132  12.296 -0.0194 -0.2302 -0.1350
10795W        W26689  15.520   3.850  12.597 -0.0781 -0.2776 -0.1841
10796W        W26690  17.849   1.822  11.553 -0.0573 -0.0068  0.1371
10797W        W26691   4.947   6.317   3.776  0.1322  0.1390  0.2010
10798W        W26692  14.877   0.789   5.420 -0.2529 -0.1467 -0.1254
10799W        W26693   6.571  14.483   4.192  0.1368  0.3235  0.1638
10800W        W26694   0.512   3.606   1.397 -0.1347 -0.0845  0.0779
10801W        W26695  17.029  16.798   1.517  0.0276 -0.0082  0.2188
10802W        W26696  15.371  12.852  14.500 -0.1190  0.2510  0.3144
10803W        W26697   8.831   2.849   0.299  0.1325 -0.1359 -0.3852
10804W        W26698  13.533  15.241   0.435  0.1456 -0.3993 -0.1296
10805W        W26699   7.927   4.843  13.348  0.0211  0.5910  0.0636
10806W        W26700  18.936  11.430  14.815  0.1939 -0.0462  0.2358
10807W        W26701   6.818   7.453  15.081 -0.1723 -0.3760  0.1249
10808W        W26702  13.834   8.892  12.181 -0.2980  0.3448  0.0074
10809W        W26703  16.234   0.141  14.303  0.0630  0.2466 -0.1171
10810W        W26704   9.485   6.334  14.419 -0.2736  0.0872  0.2737
10811W        W26705  13.703  13.043   1.507  0.0292  0.0422  0.0812
10812W        W26706   0.716   1.080   2.172  0.3210 -0.2327 -0.1701
10813W        W26707  13.362  10.364   4.673 -0.1427 -0.2057  0.2585
10814W        W26708   0.546   2.012  12.754  0.1527  0.1508  0.0661
10815W        W26709  12.537   9.665  12.833  0.0832 -0.2648 -0.2090
10816W        W26710  13.375   7.696   4.818  0.3150  0.0138  0.1686
10817W        W26711  13.065   8.652  14.011 -0.0597 -0.0872  0.0268
10818W        W26712  16.702   5.277  12.302 -0.2874 -0.1214  0.0026
10819W        W26713  13.482   4.962   1.735  0.1184  0.2851 -0.0140
10820W        W26714  10.733   8.177   0.187 -0.1128  0.1732 -0.0415
10821W        W26715   9.455   7.062   0.979  0.0140 -0.2800 -0.2668
10822W        W26716   3.362   5.771  14.569 -0.1163 -0.4135 -0.0222
10823W        W26717  12.128   5.147  13.201 -0.2005 -0.2262 -0.1553
10824W        W26718  11.850   7.423   3.307  0.0469  0.3048  0.1158
10825W        W26719   1.279   2.314   1.915 -0.0144 -0.0868 -0.0226
10826W        W26720   0.653  12.023  13.771 -0.1197  0.0416 -0.2363
10827W        W26721   1.127  18.484   5.414 -0.2656 -0.2605  0.0619
10828W        W26722   2.059  19.048   4.629 -0.0718 -0.3865  0.3108
10829W        W26723  16.763  18.999   1.682  0.0109 -0.2320 -0.3560
10830W        W26724   3.090   1.292   3.862 -0.2155  0.1721 -0.4516
10831W        W26725  15.131   0.585  12.554  0.1295 -0.2512  0.1131
10832W        W26726  11.737   6.554   3.082 -0.0285 -0.3458 -0.0883
10833W        W26727  11.024  13.501  11.629  0.1960 -0.1933 -0.2663
10834W        W26728  17.657   4.723   3.123  0.1981 -0.1069 -0.0517
10835W        W26729  10.105  15.428   4.349 -0.0900 -0.1612  0.2531
10836W        W26730   4.441   0.409   5.414 -0.1746  0.3063 -0.2040
10837W        W26731   8.313  17.491  12.704  0.1826 -0.1369 -0.1760
10838W        W26732   7.928  10.223   0.405  0.0605 -0.0532  0.2728
10839W        W26733   8.106  15.769   0.316 -0.2210  0.1709  0.1308
10840W        W26734  10.763  16.886  10.366 -0.0161 -0.5028  0.0067
10841W        W26735  11.817   5.112   3.787 -0.3829 -0.0456 -0.1938
10842W        W26736  18.374   4.575  11.778  0.1380  0.1931  0.0684
10843W        W26737  12.998  11.476   0.461  0.0429  0.2170  0.1851
10844W        W26738  11.527  11.355  12.066 -0.0598 -0.1374  0.0656
10845W        W26739  18.447   8.327  10.218 -0.0779  0.0298 -0.4843
10846W        W26740   0.295  18.114  11.329  0.2724  0.2940  0.1842
10847W        W26741   5.838  18.607   2.293 -0.3332  0.0373  0.1748
10848W        W26742  15.576   2.959   1.473 -0.2167  0.2403 -0.0860
10849W        W26743   9.602   8.375   3.389 -0.0681  0.0341  0.0441
10850W        W26744  10.396   4.943  13.518  0.2359 -0.2141 -0.0317
10851W        W26745   2.211   2.495  11.808 -0.0981 -0.1725  0.1572
10852W        W26746   1.411   9.139   0.333 -0.0912  0.3380 -0.0550
10853W        W26747   6.429   0.435  14.502 -0.2820 -0.0757  0.1120
10854W        W26748  12.125  14.975  12.529 -0.0073 -0.0997 -0.0300
10855W        W26749   5.751  15.761   3.402 -0.0189 -0.1981  0.1558
10856W        W26750   0.528   5.879   3.768  0.1784 -0.0021 -0.3098
10857W        W26751   5.968  14.484  14.014  0.1010 -0.0879 -0.5205
10858W        W26752  18.836   4.340   2.484 -0.3424  0.2467  0.1003
10859W        W26753  18.396  15.170   5.620 -0.1211 -0.0890  0.1909
10860W        W26754   9.304  14.076  10.670  0.0590  0.0394 -0.1777
10861W        W26755   5.355   9.374   1.756 -0.1740 -0.1551 -0.0254
10862W        W26756   1.792   9.008   3.857 -0.1238 -0.2614  0.2600
10863W        W26757   5.364   5.627   2.066 -0.1622  0.3132 -0.0775
10864W        W26758  18.430   9.715   4.186 -0.5889  0.4401 -0.0530
10865W        W26759  11.357   6.125   1.100 -0.0720  0.1381 -0.3531
10866W        W26760  14.314  16.337   3.028  0.3897  0.4184 -0.0387
10867W        W26761   5.082   8.271   4.059 -0.0811 -0.0509 -0.2425
10868W        W26762   8.582   0.269  10.770 -0.3762  0.1129 -0.3391
10869W        W26763  17.486   5.497   2.579  0.2173 -0.3329  0.3097
10870W        W26764   1.335   8.664  13.608  0.4299  0.2883  0.0382
10871W        W26765   2.105  18.545  11.175 -0.0975  0.0333 -0.0323
10872W        W26766   2.635  13.983  12.207 -0.0609  0.1908 -0.0720
10873W        W26767   9.610   1.321   1.061 -0.1549  0.0674 -0.0631
10874W        W26768   9.904   0.180   4.845 -0.2808  0.2853  0.0641
10875W        W26769   3.349   2.861  14.680  0.0103  0.0928  0.1088
10876W        W26770  12.341   1.625   3.651  0.3643  0.2439  0.0606
10877W        W26771   9.778   6.723  14.532 -0.1857  0.0036 -0.2330
10878W        W26772  10.880  12.487  14.744 -0.1368  0.1169 -0.0156
10879W        W26773   9.568   5.851  13.803 -0.2199  0.2535 -0.1848
10880W        W26774  15.775  12.067   2.041 -0.1557 -0.0085 -0.6441
10881W        W26775   4.758  13.735  10.797 -0.0726 -0.0816  0.2344
10882W        W26776   4.526  17.903  11.435 -0.1533 -0.2210 -0.1917
10883W        W26777   3.175   1.903   4.959 -0.0521 -0.2215  0.3440
10884W        W26778  12.327   6.471   4.103  0.2805 -0.1231 -0.1700
10885W        W26779   6.614  10.750  10.525  0.0389 -0.1000 -0.1857
10886W        W26780   1.926  13.332   3.190  0.0615  0.2789 -0.1876
10887W        W26781   4.053   6.226   2.480 -0.1630 -0.2006  0.1362
10888W        W26782  13.842  16.243   3.198 -0.1497  0.0423  0.1516
10889W        W26783  15.381   0.566  11.470  0.2407  0.0374 -0.0969
10890W        W26784   1.725   0.866  14.933  0.2722  0.1574  0.1427
10891W        W26785   3.202   7.728   4.945 -0.4056 -0.1677 -0.1917
10892W        W26786  10.223   1.715   0.692 -0.1267  0.0986 -0.0347
10893W        W26787   5.030  17.028  10.512  0.1727 -0.0950  0.0981
10894W        W26788   9.558   5.728   2.306 -0.1439  0.2599  0.1568
10895W        W26789   4.202  12.825   2.875  0.2945 -0.1516 -0.0940
10896W        W26790  14.384  10.201  11.089  0.2786 -0.2517  0.2623
10897W        W26791   7.984  17.100   3.855 -0.0107  0.3378  0.0874
10898W        W26792   1.906  11.791   1.695  0.0057  0.3639  0.1003
10899W        W26793   4.015  12.527   5.914  0.1926  0.2433 -0.1097
10900W        W26794   2.269   6.694  14.961  0.1994  0.4320  0.1413
10901W        W26795  15.264   6.775  14.376 -0.2286  0.0722  0.1526
10902W        W26796   5.382   6.171  12.363  0.2513  0.0878  0.2047
10903W        W26797  13.931  10.340   4.173  0.1258 -0.0097 -0.1046
10904W        W26798  11.419   3.607   3.597 -0.2292  0.4799  0.0290
10905W        W26799   0.666   6.042   1.530 -0.1329  0.2942 -0.1085
10906W        W26800  13.814  10.783   3.882 -0.3838 -0.1400 -0.0407
10907W        W26801   9.947  10.535   4.665  0.1165  0.0978 -0.0221
10908W        W26802   6.053   8.224   0.972 -0.1052 -0.0836  0.1115
10909W        W26803  18.453  10.051  10.443 -0.0562 -0.3296  0.2240
10910W        W26804  12.755   9.008  13.936 -0.0146 -0.0872 -0.0188
10911W        W26805   2.510   7.537   2.592 -0.1234  0.2306 -0.1737
10912W        W26806   8.207  14.533   0.363 -0.2651  0.0201  0.1042
10913W        W26807   7.808  16.152  13.098 -0.0490  0.0786  0.1063
10914W        W26808   7.114  18.977  14.752 -0.2531 -0.2064 -0.1703
10915W        W26809  16.191   4.834   4.582 -0.1955 -0.0195  0.1013
10916W        W26810   7.765   3.005   3.064  0.0103  0.0432  0.1873
10917W        W26811   1.393  14.116  14.662 -0.2350 -0.0880 -0.1928
10918W        W26812  18.775  19.164   2.194 -0.0047 -0.4889 -0.2661
10919W        W26813   0.678   5.240  13.298 -0.0071 -0.0768 -0.0622
10920W        W26814   2.456  16.345  11.274 -0.1133  0.4768 -0.3042
10921W        W26815  14.331   8.509   6.187  0.2839  0.0871 -0.2267
10922W        W26816  19.069   2.372   5.501 -0.1887 -0.1342  0.0696
10923W        W26817  12.972   1.459   3.945  0.1840  0.0339  0.2212
10924W        W26818  16.473  16.386   1.392  0.0447  0.1281 -0.4914
10925W        W26819  17.966   6.959   3.743 -0.1631 -0.1615  0.3752
10926W        W26820   7.602  18.634  14.671 -0.2651  0.1594  0.0482
10927W        W26821  12.513  15.092  11.157  0.1891  0.1059 -0.1222
10928W        W26822   7.676  18.797   2.934  0.0132 -0.0145  0.0532
10929W        W26823  17.063  17.341  12.981 -0.0842 -0.0155  0.3598
10930W        W26824  18.258  19.054  12.817  0.2941  0.0384  0.2023
10931W        W26825   0.787   0.371   0.273 -0.0522  0.0224 -0.3507
10932W        W26826   4.427   2.283   0.178 -0.0643  0.4224  0.0275
10933W        W26827  12.430  10.191  10.653 -0.3160 -0.2206 -0.1364
10934W        W26828   3.944  16.074  12.822 -0.0778  0.1126  0.0765
10935W        W26829   0.400  14.491   1.955  0.2103  0.1176 -0.3016
10936W        W26830   5.829   7.377  11.369  0.1288 -0.0445 -0.1572
10937W        W26831   6.689   5.534   1.995 -0.0315 -0.3950 -0.1333
10938W        W26832   7.873  18.712   1.244 -0.3771 -0.1302 -0.1513
10939W        W26833  17.395   1.840   3.245 -0.1644 -0.1415 -0.2170
10940W        W26834   3.354  10.425   1.584  0.2180 -0.0132  0.1770
10941W        W26835  12.939   0.323   1.948 -0.2308  0.1713  0.3518
10942W        W26836   2.181   9.315   3.680  0.0545 -0.1073 -0.0472
10943W        W26837  14.727  13.223   4.985 -0.3079 -0.2240  0.1442
10944W        W26838   3.975  12.204   3.699 -0.1534  0.1953  0.0818
10945W        W26839   1.070  13.106   1.255 -0.3665  0.0331 -0.1664
10946W        W26840  18.462   8.537   3.633  0.4976  0.0666  0.1279
10947W        W26841   9.038   0.473   4.014  0.5256 -0.2707 -0.1750
10948W        W26842  11.798  18.335   5.258  0.2999  0.0746  0.2532
10949W        W26843   6.569  17.207   4.641  0.2978  0.1051 -0.3080
10950W        W26844   0.068   9.680   2.233 -0.0795 -0.2638 -0.1253
10951W        W26845  18.639   5.025  13.359 -0.1457 -0.0669 -0.1117
10952W        W26846  16.014   0.093   5.161 -0.1070 -0.0959 -0.1283
10953W        W26847   6.740  12.045   9.600  0.3303  0.2130  0.0985
10954W        W26848   3.635   8.523  10.497 -0.1117 -0.0306 -0.4337
10955W        W26849   9.089   5.140   2.762  0.1572 -0.1237 -0.0680
10956W        W26850   9.228   4.691   1.892  0.0780  0.1252 -0.1200
10957W        W26851  16.230   6.412   3.581  0.2624 -0.4003  0.2806
10958W        W26852   8.932  14.890   1.904  0.3329  0.2767  0.2022
10959W        W26853   4.558   9.556  12.146  0.3037  0.1369  0.1146
10960W        W26854   8.407  14.202   5.684 -0.1720 -0.2692  0.2229
10961W        W26855   3.167  11.024   0.128  0.1220  0.2563 -0.1415
10962W        W26856   0.138  19.164  12.973  0.0384  0.1944 -0.0823
10963W        W26857   9.654  15.587   0.575 -0.0130  0.5191 -0.1390
10964W        W26858   3.094  13.402   1.074  0.0475  0.3331 -0.0251
10965W        W26859  18.073  17.035  11.053 -0.0345 -0.4761  0.0567
10966W        W26860  15.502   8.728   2.295 -0.1929  0.2116 -0.1155
10967W        W26861   2.053   4.385   0.383  0.1817  0.0194  0.0162
10968W        W26862  16.397   7.158   3.839 -0.1034  0.1965  0.0624
10969W        W26863  13.665   2.079   4.065 -0.0740  0.2443 -0.0205
10970W        W26864  13.145  13.437  12.393  0.0025  0.1035  0.0668
10971W        W26865  13.371   2.183   5.125  0.0097 -0.2205  0.3072
10972W        W26866  14.346   1.622   9.854  0.3631  0.0206 -0.0444
10973W        W26867  10.071   0.239  11.813  0.1294  0.1118 -0.2225
10974W        W26868  14.906   9.359   4.339 -0.2540 -0.1551  0.1067
10975W        W26869  11.796   0.011  13.531  0.1612  0.0433  0.3022
10976W        W26870   8.255   8.803   1.855 -0.3526 -0.0023 -0.0397
10977W        W26871   9.435   1.759   2.690 -0.1188  0.4829  0.0517
10978W        W26872   4.287   3.057  11.489  0.0459 -0.1021  0.0306
10979W        W26873   5.497   7.492  13.179 -0.3255 -0.1089  0.1769
10980W        W26874   2.117  10.597  11.485 -0.3131 -0.0247  0.2495
10981W        W26875   4.502  10.103  14.889  0.3125  0.0890  0.2433
10982W        W26876   5.703  16.621  11.719 -0.0774  0.0330  0.1881
10983W        W26877   1.548  15.620  13.922 -0.0291  0.0454  0.1509
10984W        W26878  18.133   1.440  11.007 -0.3750 -0.0960  0.0818
10985W        W26879  12.703   6.787   5.090  0.2588  0.2986 -0.1068
10986W        W26880  11.443   9.723   4.906 -0.0747 -0.0463 -0.1697
10987W        W26881  17.144  15.319   1.343 -0.3181  0.2456 -0.0194
10988W        W26882  13.884  17.282   0.818  0.1125  0.1352 -0.1021
10989W        W26883   3.130   7.291   0.611  0.2596 -0.0845  0.2120
10990W        W26884   3.668   7.046  12.082 -0.1557  0.0114  0.1011
10991W        W26885   8.891  10.084   3.197 -0.1948 -0.3011 -0.1494
10992W        W26886  17.806  12.582  10.882 -0.1753  0.2257 -0.0992
10993W        W26887   6.812  15.981  11.468 -0.1420 -0.1903  0.1140
10994W        W26888  14.412  17.070  10.315 -0.2727  0.0313 -0.0702
10995W        W26889  12.139   3.264   2.163 -0.0836  0.2241 -0.2035
10996W        W26890   3.517  16.660   0.648 -0.2518  0.0176  0.1933
10997W        W26891  18.908   4.910   1.159 -0.0116 -0.0034  0.0197
10998W        W26892   7.669  13.315  11.727 -0.2466 -0.1763  0.1099
10999W        W26893   8.255   5.455  15.076  0.2068 -0.0038  0.1385
11000W        W26894  11.624   8.052  11.437 -0.1132 -0.4450  0.0167
11001W        W26895  13.916  17.656  14.816  0.0695  0.0450  0.1950
11002W        W26896   0.220   5.486  13.074 -0.1529  0.0336  0.0593
11003W        W26897   5.000  10.202  14.195 -0.1159  0.0180  0.0340
11004W        W26898   3.032   5.656   0.661  0.1347 -0.1645  0.0314
11005W        W26899   0.327  13.288  14.976 -0.1387  0.1741 -0.0931
11006W        W26900   6.509  17.175   9.221  0.2185  0.0471 -0.1353
11007W        W26901   3.859  16.274   2.385  0.2983  0.0321 -0.0061
11008W        W26902  15.826  14.674  14.961  0.0017  0.1386 -0.2981
11009W        W26903  14.597   5.169  14.529  0.0253  0.1009  0.0091
11010W        W26904  13.289  17.819  10.722 -0.1172 -0.1041  0.1466
11011W        W26905  19.083  11.207   1.170  0.3687 -0.2043  0.0958
11012W        W26906   5.209  10.741  10.693 -0.2288  0.0167  0.0207
11013W        W26907   1.021   2.347   2.325  0.1948  0.2079  0.2704
11014W        W26908  12.862   0.561  13.044 -0.1554  0.3076 -0.0134
11015W        W26909   7.473   7.482   0.718 -0.2636 -0.2369  0.1499
11016W        W26910  11.858   3.578  10.805  0.1083 -0.4699 -0.0106
11017W        W26911   9.160  16.717  12.083  0.1635  0.0111  0.1439
11018W        W26912  18.326   2.682   1.304  0.2799 -0.0910 -0.0162
11019W        W26913   7.264   5.004   9.800 -0.1121  0.1999  0.1751
11020W        W26914  14.424   0.860  15.084 -0.0144 -0.2053  0.1299
11021W        W26915   1.798   2.293   1.136  0.3259  0.1813  0.1402
11022W        W26916   1.378   3.731  11.097 -0.0354 -0.1559 -0.1588
11023W        W26917   5.122  12.908  14.481 -0.1126 -0.2356 -0.2100
11024W        W26918  10.079   7.516   1.783  0.0721 -0.1521 -0.1274
11025W        W26919  12.019   0.423  14.836  0.3080 -0.1729  0.3405
11026W        W26920   6.723  14.175  11.986  0.2250  0.1544 -0.1125
11027W        W26921  15.333   9.052   3.791  0.0874 -0.0790  0.1656
11028W        W26922   6.256   3.769   3.087  0.0271 -0.0273  0.1592
11029W        W26923   6.933  16.943  11.590 -0.0908  0.2955 -0.0428
11030W        W26924   6.312  13.651  11.447 -0.0559 -0.3604 -0.1395
11031W        W26925   3.068   0.457   0.968  0.1566  0.1973 -0.2237
11032W        W26926   8.793   2.900   3.263  0.1616  0.1109 -0.3748
11033W        W26927  17.885   3.992   0.040 -0.1878 -0.2728  0.0721
11034W        W26928  12.281  14.775  14.085 -0.0332 -0.3077 -0.3632
11035W        W26929  11.089  18.516   2.038  0.3134 -0.2013  0.0171
11036W        W26930  15.685   9.117  13.127 -0.1458  0.0866  0.0689
11037W        W26931   2.397   7.182  10.324 -0.0311 -0.1062  0.0932
11038W        W26932   0.989  17.542   2.649 -0.3239  0.2460  0.0317
11039W        W26933   2.130  15.236   1.170  0.0183  0.0930 -0.2860
11040W        W26934   8.262  18.682  10.100 -0.3198  0.0991  0.0200
11041W        W26935   7.460   1.865  15.062 -0.6239  0.1325  0.1565
11042W        W26936  15.373  13.038  11.949  0.1773  0.0168 -0.0124
11043W        W26937   0.819   4.280  12.412  0.3983 -0.1518 -0.3032
11044W        W26938   4.746  10.643  10.691 -0.0611  0.1568  0.0560
11045W        W26939   4.605  17.398  10.503 -0.1139  0.0702  0.4759
11046W        W26940   8.847  15.748   1.422 -0.0951  0.3587 -0.1057
11047W        W26941  14.703   1.415   1.128  0.0422 -0.0986 -0.0657
11048W        W26942  15.808  13.129  14.447  0.4119 -0.1998 -0.0364
11049W        W26943   0.189  17.574  12.484 -0.0793 -0.0990  0.1327
11050W        W26944  14.807   6.906  12.978 -0.0740  0.1827  0.0844
11051W        W26945  15.372   0.588  14.045 -0.1510  0.0183 -0.2328
11052W        W26946  17.808   7.359  14.428  0.1068 -0.1198 -0.0078
11053W        W26947   1.012  13.539   2.813 -0.1785  0.3602  0.1836
11054W        W26948   4.570  14.827  12.924 -0.1339  0.1654  0.1519
11055W        W26949   0.826   0.199  11.209 -0.0724  0.2293 -0.5798
11056W        W26950  10.215  13.375   3.927  0.1789  0.0355  0.1081
11057W        W26951  15.477   4.354   0.696 -0.2375  0.1361  0.0496
11058W        W26952   2.505  18.874  12.598  0.1899 -0.1770  0.3264
11059W        W26953  18.897   1.032  14.911 -0.0063 -0.2674  0.1445
11060W        W26954  10.726   2.822  10.706  0.0115  0.2443  0.0729
11061W        W26955   0.807  18.316   4.527 -0.2246  0.0221  0.1420
11062W        W26956  14.502   0.579   4.158  0.0452 -0.0897 -0.0674
11063W        W26957   7.309   0.669   3.747  0.0874  0.2987 -0.0251
11064W        W26958  14.879   6.092   1.955 -0.0469  0.1399  0.2915
11065W        W26959  10.241   6.696  12.962  0.0056 -0.4033 -0.0849
11066W        W26960  11.899  14.474  12.381  0.1552 -0.4137  0.0423
11067W        W26961  11.523   3.664   1.538  0.2954  0.0708  0.3274
11068W        W26962  14.407   7.948   0.387 -0.0322  0.0291  0.2169
11069W        W26963   9.981   8.093   3.511  0.0307  0.2100  0.1528
11070W        W26964   2.929  13.111   2.522  0.0088  0.2535  0.1624
11071W        W26965   7.558   2.700  14.189 -0.1830 -0.0594  0.1482
11072W        W26966  15.304   4.351  11.355 -0.0074  0.0049 -0.1431
11073W        W26967   0.156  17.792  14.836  0.1747  0.0136  0.0478
11074W        W26968   9.274   8.669   4.538  0.1849 -0.0434  0.2009
11075W        W26969   0.896   6.742   4.720  0.1030 -0.2658 -0.2130
11076W        W26970   3.797   6.959   1.352  0.0630  0.1106 -0.1945
11077W        W26971   9.365  10.397  15.120  0.1148  0.2320 -0.2456
11078W        W26972   8.568  17.097  13.822 -0.0012 -0.0159  0.0058
11079W        W26973  18.707  13.461  11.111  0.0518 -0.1653  0.0495
11080W        W26974  17.473   0.977   5.849 -0.2355  0.1112 -0.0493
11081W        W26975  16.635  14.503  12.109  0.2506  0.1703  0.0534
11082W        W26976   0.586  18.462  13.424  0.0487  0.2495 -0.0264
11083W        W26977   2.549   8.796   2.201  0.1438 -0.3384  0.3503
11084W        W26978   7.463  16.591   2.656  0.0380 -0.2643  0.0542
11085W        W26979   0.179  18.160  12.576  0.1170 -0.1222  0.0090
11086W        W26980   1.320  18.059  11.055  0.0518 -0.0279 -0.2287
11087W        W26981  11.376   5.625   0.130 -0.1795 -0.1001 -0.1430
11088W        W26982   6.929   6.682  11.134  0.3674  0.2491 -0.0472
11089W        W26983  12.279  14.516   0.731 -0.0512 -0.1550 -0.1541
11090W        W26984  13.934   1.892  13.739  0.1287 -0.0099  0.2523
11091W        W26985  14.624   4.315   2.998 -0.0605  0.0930  0.1047
11092W        W26986   3.115   4.955   0.140  0.4553  0.0775  0.2694
11093W        W26987   9.422  12.754   0.943  0.1219  0.1881 -0.0160
11094W        W26988   2.977   3.204   1.182 -0.0830 -0.0501 -0.2037
11095W        W26989  11.634  17.249   2.721 -0.0915 -0.1704  0.0704
11096W        W26990  11.111  17.217  10.571 -0.1984  0.0021 -0.1880
11097W        W26991   9.712  10.041  13.451 -0.0420 -0.0587  0.0464
11098W        W26992  10.035   0.540  11.107 -0.0692 -0.0729  0.0126
11099W        W26993  18.055  16.373  13.026  0.1489 -0.2534  0.1059
11100W        W26994  10.991   5.977   0.305  0.0777 -0.1038 -0.3322
11101W        W26995  10.621   2.668  11.188  0.1306  0.1156  0.0615
11102W        W26996  17.921  18.650   1.196 -0.1752 -0.0409  0.0009
11103W        W26997   1.114   3.910  12.402 -0.4285  0.1140 -0.2130
11104W        W26998   5.173  16.614   2.755  0.2001  0.1427 -0.2696
11105W        W26999   6.879   2.849  11.461 -0.1010  0.1019 -0.0352
11106W        W27000   7.812  16.437  11.468 -0.0917  0.1664  0.0331
11107W        W27001  11.534  13.163   2.722 -0.0349  0.0664 -0.2866
11108W        W27002   7.841  13.618   1.249 -0.0221 -0.1940 -0.0617
11109W        W27003  12.189   5.648   3.994  0.1582  0.1066  0.2937
11110W        W27004   3.151   7.211   1.961 -0.2706  0.0063  0.1368
11111W        W27005  18.915   6.741   0.204 -0.1184  0.2723  0.1515
11112W        W27006  14.914   0.874   4.338 -0.2799  0.0014 -0.2313
11113W        W27007  17.729  11.980   0.159  0.1570 -0.2461 -0.2135
11114W        W27008   1.963  16.040  11.555 -0.4238  0.2085  0.2763
11115W        W27009   7.943   5.113  13.923 -0.0727 -0.1473 -0.1895
11116W        W27010   9.500   2.213  13.135 -0.1928  0.0937 -0.0646
11117W        W27011   4.690   4.372   4.898  0.1794 -0.0192  0.2004
11118W        W27012  16.569   3.325  12.775 -0.2017 -0.1847  0.1779
11119W        W27013  17.081   6.817   4.445  0.0274  0.3422  0.1635
11120W        W27014  17.832   7.129   1.083 -0.2486  0.2715  0.1162
11121W        W27015   6.600  16.668   0.396 -0.4154 -0.0441 -0.0241
11122W        W27016  18.544  12.452  11.697  0.3306 -0.0458  0.0704
11123W        W27017  12.073  10.843  12.788  0.3495 -0.0765 -0.0859
11124W        W27018  11.945   7.240  14.569 -0.0227 -0.1869  0.1225
11125W        W27019   2.996   5.269  13.282 -0.1103 -0.0537  0.1512
11126W        W27020   1.423  17.540  12.816 -0.3190  0.1980  0.3812
11127W        W27021  12.267   6.354  14.599 -0.1014  0.2424 -0.3441
11128W        W27022  17.845   8.366  11.582 -0.1144 -0.1192  0.1368
11129W        W27023   4.243   0.081  11.637  0.0248  0.0227 -0.0914
11130W        W27024   4.290   0.258   3.358 -0.0463  0.3382  0.0012
11131W        W27025   9.335  18.370  11.597  0.0575  0.2840  0.2015
11132W        W27026  15.348   6.773  11.588 -0.1508  0.3025  0.0966
11133W        W27027  17.770   6.332   2.849 -0.3139  0.0931 -0.2704
11134W        W27028   2.507  15.951  12.765  0.1751 -0.0611 -0.4324
11135W        W27029  17.512   9.844   2.273  0.1017 -0.1246  0.0593
11136W        W27030  12.890  17.604   4.381 -0.1588 -0.2296  0.2107
11137W        W27031   8.193  17.843  13.304 -0.0653 -0.0198 -0.2430
11138W        W27032  14.441   3.283  12.010 -0.1614 -0.0610  0.0968
11139W        W27033  15.099   5.030  11.564  0.0630 -0.0674  0.0826
11140W        W27034   9.735   0.542   2.927  0.0426 -0.3271  0.0216
11141W        W27035  12.218   4.343   4.279 -0.0802 -0.0530  0.1860
11142W        W27036  10.514   1.037   4.621  0.2153  0.1803 -0.4145
11143W        W27037  16.284   8.275   1.949  0.1439 -0.2196 -0.0381
11144W        W27038   9.498  12.985   4.446 -0.0447  0.0042  0.0062
11145W        W27039  16.119  14.546   1.270 -0.2560 -0.3907  0.0085
11146W        W27040  12.586   9.975   4.570  0.0489  0.1422  0.1528
11147W        W27041  17.727  10.139   4.617  0.3059 -0.3987 -0.2202
11148W        W27042   8.352  16.839  13.144 -0.5175 -0.0036 -0.1362
11149W        W27043  12.680  11.871   5.879  0.1968 -0.0431  0.1802
11150W        W27044   3.455  17.512   5.933  0.0892  0.0715  0.1774
11151W        W27045   9.149  12.751   4.751  0.2195 -0.0679  0.1004
11152W        W27046  18.353  18.124  11.477 -0.0279 -0.2015 -0.0349
11153W        W27047  10.186  11.950  12.258  0.0223  0.0912  0.0021
11154W        W27048   3.702   7.843  14.708 -0.1582  0.1821  0.0653
11155W        W27049  16.285  10.990   0.505  0.0055 -0.1384  0.1911
11156W        W27050   4.461   8.101   4.025 -0.3004  0.0409 -0.0849
11157W        W27051  14.053  10.895  14.290 -0.0416 -0.2045  0.2680
11158W        W27052  14.991  19.040   9.718  0.2802 -0.0103 -0.1011
11159W        W27053   1.369  13.602  11.127 -0.3795 -0.0196  0.1666
11160W        W27054  15.523  14.990   0.681  0.3799 -0.0931 -0.0448
11161W        W27055   9.570   9.226   3.294  0.1201  0.2542 -0.0480
11162W        W27056  12.078   0.861   5.311 -0.3652  0.0855  0.1220
11163W        W27057   5.890   1.792   1.283 -0.1525  0.1397 -0.1438
11164W        W27058   7.830   1.908  13.770 -0.2570 -0.3785 -0.0098
11165W        W27059   6.960  15.458  10.759 -0.0148 -0.1050  0.1528
11166W        W27060  12.148   1.887  14.997  0.3003 -0.2339 -0.0247
11167W        W27061   4.886   0.074  12.893 -0.0414  0.2040 -0.0353
11168W        W27062  18.112  16.010  11.148  0.3217  0.0535  0.0813
11169W        W27063   7.900  12.491   2.492 -0.1369  0.0370  0.0410
11170W        W27064   5.572  16.658  13.856 -0.1545  0.1916  0.1309
11171W        W27065  18.217   5.917   0.367  0.1851 -0.1402  0.0567
11172W        W27066  11.398  13.428   1.748 -0.0861  0.1065  0.2548
11173W        W27067   4.561  10.583  13.378 -0.1838  0.0094  0.0897
11174W        W27068   4.864   1.441  12.813  0.0041 -0.0110  0.5116
11175W        W27069  10.301   3.838  12.843 -0.1727  0.1797  0.1509
11176W        W27070   7.821  13.921   5.002 -0.0758  0.3246  0.0522
11177W        W27071  17.677  19.113   3.005 -0.0622  0.2647 -0.0065
11178W        W27072   6.478   5.315   3.440 -0.1028 -0.3023  0.0522
11179W        W27073  17.029   7.695  10.822 -0.0605 -0.1666 -0.0511
11180W        W27074   1.310  18.676   5.853  0.3110  0.2225 -0.2698
11181W        W27075  14.470  16.066  12.767  0.1671  0.1679  0.1455
11182W        W27076   0.120  13.558   1.791  0.0458  0.1888 -0.3403
11183W        W27077   6.946  10.536   1.514  0.1381  0.3200  0.2242
11184W        W27078  13.514   0.409  14.198  0.0799  0.0027 -0.1211
11185W        W27079   2.847  18.287   3.629  0.0706 -0.0989 -0.1595
11186W        W27080  15.906   1.106   1.071 -0.1366 -0.0919  0.1884
11187W        W27081  19.095  10.812  13.641  0.0758  0.0198  0.0023
11188W        W27082  10.069   2.154  12.272  0.1009 -0.0136  0.0747
11189W        W27083  14.513  10.277   1.236  0.0485  0.1291  0.0468
11190W        W27084   0.990   8.597   4.088  0.2080  0.0452 -0.0262
11191W        W27085  16.493  12.351   0.432 -0.0421  0.1587  0.0244
11192W        W27086  16.139  13.204  13.121 -0.0929 -0.2525 -0.1656
11193W        W27087  10.221  18.230   0.262  0.0670  0.2024 -0.3577
11194W        W27088   0.773   8.765   0.877  0.0316  0.1744  0.1168
11195W        W27089   1.780   9.390  12.940  0.3274  0.2461 -0.0520
11196W        W27090   6.263   8.722  13.382  0.1510  0.0680  0.0588
11197W        W27091  18.519   3.109   2.300 -0.2496  0.2442 -0.3352
11198W        W27092  11.706   2.928   3.712 -0.0441  0.2752 -0.1429
11199W        W27093   5.504   4.329   3.328  0.0878 -0.1975 -0.0873
11200W        W27094   8.871   7.816  12.396 -0.0685 -0.1830  0.1811
11201W        W27095  10.422  13.017   4.597  0.1107 -0.2845  0.2732
11202W        W27096   8.390   2.130  13.976 -0.2158  0.3081  0.0590
11203W        W27097  12.104  16.208  13.595  0.1200  0.0591  0.0527
11204W        W27098   8.550  15.331   5.705  0.3797 -0.2169 -0.0047
11205W        W27099   8.293  17.853   9.476 -0.0202 -0.0507 -0.2686
11206W        W27100   0.197  18.551   2.990  0.0643 -0.1204  0.0654
11207W        W27101   0.573  16.384  14.594 -0.0537 -0.1291 -0.1265
11208W        W27102  13.610   6.644   2.120 -0.0350  0.3074  0.4510
11209W        W27103  12.316   6.809  12.209 -0.4157  0.2666 -0.0302
11210W        W27104   3.505  17.196  13.076  0.2305  0.0569 -0.2217
11211W        W27105  14.811   2.750   0.633 -0.1423  0.2170 -0.0080
11212W        W27106  17.281   1.879  14.259  0.2480  0.0465  0.1742
11213W        W27107  13.365  14.930  13.573  0.2596 -0.1293  0.3033
11214W        W27108  10.444  14.243   2.642 -0.0434 -0.0586  0.2504
11215W        W27109   6.071   0.577   1.141  0.0855  0.1751 -0.0718
11216W        W27110  11.463  11.919   0.143 -0.1747  0.1840 -0.0109
11217W        W27111  17.857   8.607   5.098 -0.0561  0.1656 -0.1490
11218W        W27112   7.588  11.839  11.281 -0.1315 -0.0866 -0.0539
11219W        W27113  10.857   2.975  13.150  0.0294  0.1250  0.0217
11220W        W27114   3.972   8.196  14.451  0.0030 -0.0234 -0.2043
11221W        W27115   5.439   1.581   1.446 -0.2259 -0.0754  0.1596
11222W        W27116   0.097  13.334   2.557 -0.1951  0.1342 -0.2076
11223W        W27117   6.360   4.371   0.287  0.1677  0.1696  0.0311
11224W        W27118  13.779   4.307   4.001  0.1737 -0.0993  0.0126
11225W        W27119   6.146  16.361   4.522 -0.0144  0.2974  0.0686
11226W        W27120   3.084   4.575   4.188  0.1508  0.2988 -0.1189
11227W        W27121   0.673   6.573  13.925  0.1265 -0.1324 -0.1488
11228W        W27122  13.528   2.340   2.303  0.0792  0.0717 -0.2433
11229W        W27123   7.207  16.139  14.352 -0.0339 -0.0174 -0.0223
11230W        W27124  18.411   5.496  11.316 -0.0646 -0.1697 -0.0376
11231W        W27125  11.108   5.435  14.735 -0.1824 -0.0134  0.0288
11232W        W27126   2.666  18.512   2.749  0.3758  0.1127  0.1842
11233W        W27127  14.357   5.984   4.409  0.0301  0.3886 -0.0418
11234W        W27128   0.642   5.366   1.035  0.0822 -0.0391  0.2199
11235W        W27129  16.469  10.605  11.757  0.0082  0.0061 -0.1379
11236W        W27130  15.993   9.457  11.398 -0.2296  0.1671 -0.2673
11237W        W27131   3.543   4.415   4.354 -0.2538  0.4212 -0.4134
11238W        W27132   1.383   6.479   2.483 -0.0377 -0.1532  0.2117
11239W        W27133   9.637   4.502  12.949  0.0634  0.1907 -0.0340
11240W        W27134  19.175  13.514  13.700  0.2841  0.3516 -0.2741
11241W        W27135   0.101   9.499   4.717 -0.2716 -0.2561 -0.1594
11242W        W27136   5.651   8.413   2.350  0.1757 -0.0752  0.2282
11243W        W27137  11.699   0.554  13.848  0.1627  0.0081 -0.0554
11244W        W27138  15.664   7.370   5.775 -0.1509  0.0776  0.2209
11245W        W27139   2.390  19.003  13.104  0.2706 -0.0322  0.1652
11246W        W27140  14.442   2.562  14.075  0.4046 -0.2244  0.4114
11247W        W27141   5.539   2.832   4.735 -0.3973 -0.1118  0.1344
11248W        W27142   6.072  13.508  10.994  0.2192  0.0990  0.1856
11249W        W27143   5.642   3.406   3.078 -0.3326  0.2199 -0.0897
11250W        W27144   3.279   6.551  11.026 -0.0916  0.0480  0.0264
11251W        W27145   1.603   4.905  15.009 -0.2446 -0.0254 -0.1106
11252W        W27146  13.588  12.573   2.913  0.1810  0.2307  0.1701
11253W        W27147   3.383   4.479   0.786 -0.1485 -0.1703  0.4570
11254W        W27148   3.041  10.733   0.952  0.0881 -0.1037 -0.0283
11255W        W27149   2.732   8.361   3.613 -0.2706  0.0898 -0.1103
11256W        W27150   8.236  16.871  10.686 -0.0773 -0.2619  0.1592
11257W        W27151   4.187   7.347   5.082 -0.2730  0.0720 -0.1266
11258W        W27152  12.276   6.849   3.723  0.0946  0.3055  0.1568
11259W        W27153   8.288  11.576  13.860 -0.2145 -0.2960 -0.0652
11260W        W27154   3.064  17.384  12.670  0.1899  0.3413  0.2431
11261W        W27155   9.037   5.424   1.834 -0.2623  0.1976  0.0775
11262W        W27156  16.481  12.479  11.957 -0.0364  0.2252 -0.5204
11263W        W27157  11.178   5.944   1.979  0.3252 -0.2254  0.2904
11264W        W27158   9.822   0.361   1.362  0.2766 -0.4003  0.3732
11265W        W27159  11.147   2.644   4.836  0.0691 -0.0142  0.0444
11266W        W27160   0.077   5.571   2.341 -0.0362  0.2740  0.2961
11267W        W27161  12.069   2.173   2.512  0.0624  0.1172 -0.1270
11268W        W27162   5.415   6.042  12.811  0.2220 -0.0633  0.2509
11269W        W27163   1.302   5.716  10.879 -0.2664  0.2040  0.1940
11270W        W27164   9.267  18.551  15.081  0.2417  0.0080 -0.1005
11271W        W27165   2.899   9.825  12.738  0.0472 -0.0070  0.0054
11272W        W27166  18.156  16.845   1.338 -0.4005 -0.0194  0.0306
11273W        W27167   7.853  13.891   3.820 -0.0686  0.1946 -0.1272
11274W        W27168  14.360   8.964   0.007  0.1043  0.0448  0.3469
11275W        W27169  10.285  11.711   0.617 -0.3515  0.1941  0.0064
11276W        W27170   6.856   0.240  12.956  0.1467  0.0907  0.2132
11277W        W27171  17.343   3.514  13.291  0.1687 -0.4118 -0.0312
11278W        W27172   8.507  15.264  10.837 -0.1928  0.1492 -0.2862
11279W        W27173   9.919  11.515  13.455  0.0528  0.1094  0.0262
11280W        W27174  13.028   7.762   1.088 -0.0342 -0.1470  0.3695
11281W        W27175  16.269   5.799   5.704  0.3585  0.0911  0.2001
11282W        W27176   1.904  13.312   1.750  0.0474  0.3555  0.1844
11283W        W27177  13.886   3.285   3.851  0.2420  0.0133  0.2395
11284W        W27178  10.041   5.497   0.536  0.2101 -0.0908 -0.1698
11285W        W27179   3.763   9.781   2.923 -0.0439  0.1858 -0.1537
11286W        W27180   3.702   2.592  13.619  0.0607  0.1973  0.0627
11287W        W27181   4.658  18.735   1.436 -0.0859  0.1631  0.1911
11288W        W27182   2.163   5.692  12.144 -0.2828 -0.1474 -0.3047
11289W        W27183   9.306   4.897   3.459  0.0460  0.1188  0.2095
11290W        W27184   7.190   3.561  13.352  0.0031  0.0712  0.1543
11291W        W27185   9.377  18.404   4.216  0.3138  0.1362 -0.3144
11292W        W27186  15.331  11.379   4.656 -0.0577  0.1191 -0.0017
11293W        W27187  13.450  18.181  10.977  0.2267 -0.1237 -0.2184
11294W        W27188  13.466   6.466   0.666 -0.0988  0.1526  0.0382
11295W        W27189   4.059  12.486   1.495  0.3045 -0.1062  0.0904
11296W        W27190   2.818   9.123  13.866 -0.0846  0.0678  0.2224
11297W        W27191  14.676  18.593   3.461 -0.3220  0.0436  0.2785
11298W        W27192   7.739   8.342   1.527 -0.1290  0.1029 -0.0800
11299W        W27193   9.635   4.362  12.245  0.0630  0.1300 -0.1143
11300W        W27194  15.644  12.281  15.053  0.0622  0.0688 -0.2116
11301W        W27195   6.105  12.552  13.217  0.2557  0.2608  0.1299
11302W        W27196  14.191   7.263   5.020 -0.0176 -0.1401 -0.1264
11303W        W27197   4.807   6.232  14.876  0.3641 -0.0266 -0.0558
11304W        W27198  14.838   7.145   0.493  0.2078  0.2900 -0.2286
11305W        W27199  10.751   4.499  12.301  0.1018 -0.0542 -0.0070
11306W        W27200   5.680   5.045  14.560 -0.1049  0.0139 -0.0520
11307W        W27201  14.558   6.646   0.925 -0.2341  0.2277 -0.0896
11308W        W27202  14.897  18.810   6.148 -0.0287  0.2145 -0.1795
11309W        W27203  14.457   6.148   0.436  0.4501  0.1611  0.0024
11310W        W27204   4.525   1.107   4.933  0.2078  0.0916 -0.1079
11311W        W27205  10.058   3.839   1.835  0.3405 -0.2724 -0.1921
11312W        W27206   1.547   6.089   1.396  0.2415  0.0057  0.4307
11313W        W27207  17.317   0.565   5.020 -0.1735 -0.2053 -0.0728
11314W        W27208   2.466   1.052  10.235  0.0183 -0.0700 -0.0206
11315W        W27209   0.164   7.297  13.022  0.1216  0.0739  0.3083
11316W        W27210  18.209  17.812   2.140 -0.0189  0.5791  0.1122
11317W        W27211   9.807  15.714   0.122  0.0045 -0.0245  0.2220
11318W        W27212   2.014  19.174  10.027  0.1169  0.2629  0.3040
11319W        W27213  11.361   6.360   0.476 -0.2571  0.0976  0.1248
11320W        W27214  10.376  13.486   3.422  0.3683 -0.1074 -0.0248
11321W        W27215  17.479   7.562  10.888 -0.1696 -0.2709  0.1803
11322W        W27216  17.081  11.973   2.835 -0.0825  0.0102 -0.1129
11323W        W27217   4.321  14.701  14.117 -0.2583 -0.0713  0.1216
11324W        W27218   1.322   6.963  12.086  0.1505 -0.0452  0.3270
11325W        W27219  11.502   8.647  10.682 -0.0319  0.0029  0.0032
11326W        W27220   4.773   6.362   0.192 -0.1507 -0.2574  0.1437
11327W        W27221   8.758   0.631  11.133 -0.0832  0.1264 -0.1436
11328W        W27222   3.163   7.482  13.650 -0.3794  0.0768  0.1094
11329W        W27223  17.203  11.091   4.317  0.0060  0.0576  0.1073
11330W        W27224  16.936  11.684  13.869 -0.1642 -0.2469  0.0890
11331W        W27225   1.352   9.851  13.114  0.0161  0.1889  0.0065
11332W        W27226   6.082   0.858   2.454 -0.6101  0.1249  0.2595
11333W        W27227   9.710   5.964  11.008  0.1118 -0.1471  0.0206
11334W        W27228  14.974  19.020   1.187  0.0627 -0.5082  0.0645
11335W        W27229  15.352  13.735  12.057  0.4058  0.0635 -0.4764
11336W        W27230   0.214  10.657  10.188 -0.1337  0.1631 -0.2175
11337W        W27231   0.846   8.057   3.835 -0.1078  0.1514  0.2759
11338W        W27232   1.983   2.593   1.549  0.0346 -0.0688  0.5650
11339W        W27233  15.811  10.575   2.283 -0.1886  0.2204  0.0798
11340W        W27234  10.856  15.412  13.174 -0.1682  0.3914 -0.1310
11341W        W27235   7.743   6.639  14.333  0.3249  0.0255 -0.1151
11342W        W27236  18.928   0.135  13.947 -0.0531 -0.4511  0.1456
11343W        W27237   0.310  12.223   4.129  0.0897  0.0692 -0.0914
11344W        W27238   2.459   2.141   0.101 -0.0243 -0.0044 -0.0544
11345W        W27239   5.878  18.391  10.774  0.0341 -0.1753  0.1005
11346W        W27240   4.760  16.757   1.408 -0.2852  0.1955  0.0903
11347W        W27241   5.644  14.041  14.655  0.3915 -0.0843 -0.2056
11348W        W27242  10.537  10.937   0.360  0.2489  0.3318  0.1910
11349W        W27243   2.988   7.148  10.379 -0.1624  0.2024 -0.1782
11350W        W27244   0.367  14.342  13.055 -0.0305 -0.0889  0.1262
11351W        W27245  10.534  11.146   3.407 -0.1948  0.1109 -0.0875
11352W        W27246  15.416  10.764   4.952 -0.1931  0.0310  0.1309
11353W        W27247   8.209  12.363   0.299  0.1312  0.1729  0.1014
11354W        W27248   1.467   3.912  14.616 -0.2211  0.4116  0.2693
11355W        W27249   9.638  15.527  12.227 -0.1374  0.0364 -0.2081
11356W        W27250   9.013  11.149   3.636  0.0951 -0.3268 -0.3052
11357W        W27251  17.076  11.640  12.212  0.0597 -0.0724 -0.0621
11358W        W27252   0.899   9.201   1.100 -0.1745  0.1014  0.2212
11359W        W27253  12.707  12.020  10.420  0.1308 -0.1430 -0.0451
11360W        W27254  16.414  19.100   3.247  0.1161 -0.0673  0.2197
11361W        W27255   2.137  13.466  13.864 -0.1400 -0.2547  0.1029
11362W        W27256  11.542   4.218  13.393  0.0044  0.1933 -0.0415
11363W        W27257  10.641   5.956  12.771 -0.1918  0.0023  0.1650
11364W        W27258   0.660  18.215   5.037  0.0715  0.3381 -0.1281
11365W        W27259  17.305  15.575  11.388 -0.1597  0.0521 -0.2540
11366W        W27260  12.124  10.858   3.186  0.1511  0.6850  0.0483
11367W        W27261  10.038   1.825   3.968  0.0464  0.0482 -0.0560
11368W        W27262  15.107  14.327  13.224  0.5028 -0.1754 -0.3603
11369W        W27263   6.412   2.095  12.748 -0.0614 -0.3006  0.0492
11370W        W27264  18.281  14.358  14.713  0.1255  0.0156 -0.3407
11371W        W27265   0.532   7.443  12.736  0.0332  0.3587  0.2248
11372W        W27266   6.350  11.167  14.352  0.0064 -0.3640 -0.2818
11373W        W27267   0.342   8.386  12.263 -0.3755 -0.1230  0.3122
11374W        W27268   2.625  12.161   4.109 -0.0104  0.3017  0.0616
11375W        W27269  15.825  13.887   1.323  0.0440 -0.0318  0.1954
11376W        W27270   6.512  13.796   3.551  0.0790 -0.1976 -0.0784
11377W        W27271  18.251  18.172   3.136 -0.0074  0.0354  0.2566
11378W        W27272  16.347   7.285  12.103  0.3454 -0.2470 -0.0253
11379W        W27273  16.564   1.511  11.198 -0.0362 -0.1385  0.1794
11380W        W27274   9.229  12.806   5.289  0.1286  0.0641  0.0724
11381W        W27275  14.361   8.749  10.596  0.3885  0.2492 -0.0874
11382W        W27276  12.692  12.043  11.341  0.0525 -0.1045 -0.2452
11383W        W27277  10.439  11.444   3.815 -0.0659  0.1923  0.1352
11384W        W27278  11.192   7.755   4.815  0.1838  0.2410 -0.1465
11385W        W27279   9.068  11.737   3.093  0.3574 -0.2024 -0.1142
11386W        W27280  18.097  17.559   3.163  0.0648 -0.2048 -0.1127
11387W        W27281  10.621   0.968   0.679  0.1673 -0.0915 -0.0911
11388W        W27282   6.165   6.988   4.363  0.0654 -0.1482  0.1821
11389W        W27283   1.175  11.776   1.108  0.0116  0.1984  0.1908
11390W        W27284   1.239  14.115  11.145  0.2463  0.3826  0.0092
11391W        W27285   4.804  15.836  14.001  0.0358 -0.2927  0.0235
11392W        W27286   9.936   4.381   4.587  0.0680  0.0322 -0.0111
11393W        W27287  18.342   2.678   0.476 -0.0884 -0.0216 -0.0460
11394W        W27288  17.462   5.176   5.647  0.1393 -0.1252 -0.4534
11395W        W27289   0.738  12.326   9.364  0.2198 -0.0725 -0.1880
11396W        W27290  14.500   8.156  14.666  0.0693 -0.1857  0.3583
11397W        W27291  12.106   0.348   4.397 -0.0987 -0.2156  0.0656
11398W        W27292   0.597  16.409  11.345  0.2053 -0.1075 -0.1594
11399W        W27293   5.831  16.286  13.449 -0.2797  0.2952  0.0761
11400W        W27294   5.171   5.308   4.760 -0.2051 -0.1304  0.1636
11401W        W27295   9.508  11.914  13.550 -0.0078 -0.0035  0.0543
11402W        W27296   7.742   3.360   0.487  0.1047  0.1272  0.3046
11403W        W27297   3.647   0.776   2.216  0.0679 -0.1316 -0.1569
11404W        W27298  16.698  12.906  14.396  0.0529  0.0445  0.3185
11405W        W27299   6.573  18.176  12.831 -0.1919 -0.1142 -0.1108
11406W        W27300  15.736  17.620   5.424  0.0805  0.0968 -0.2161
11407W        W27301   9.333  15.912   3.235  0.2187  0.2250  0.3405
11408W        W27302  10.187  10.059  13.572 -0.0680  0.4274 -0.2632
11409W        W27303   9.398   8.706   3.077  0.1221  0.0022 -0.1403
11410W        W27304  17.841  15.926   1.293  0.0829 -0.3159 -0.4542
11411W        W27305  11.201  11.215   0.694  0.1044 -0.0160 -0.5040
11412W        W27306  14.273   2.515   2.830 -0.0792 -0.0927  0.4222
11413W        W27307   5.561   9.452  13.670 -0.1459 -0.0016  0.2462
11414W        W27308  18.465  10.294  14.450  0.1336  0.1528  0.3167
11415W        W27309   4.250   9.002  13.624 -0.1172 -0.0520  0.1151
11416W        W27310   0.223   7.271   2.637  0.0519  0.0574  0.1040
11417W        W27311   4.847  13.967   0.806  0.2301  0.1609 -0.3108
11418W        W27312  16.800   9.023  15.080  0.1349 -0.0831 -0.0216
11419W        W27313   4.665  14.988  13.782  0.2152  0.4100  0.0339
11420W        W27314  14.395   1.617   2.695 -0.1494 -0.4040 -0.0830
11421W        W27315  16.381  14.820  12.414 -0.0283  0.1460 -0.0480
11422W        W27316   5.327   6.709   4.632 -0.0200  0.0250  0.1870
11423W        W27317   2.969   6.868   3.426  0.1963 -0.1494 -0.2288
11424W        W27318  18.053   5.109  14.609  0.2507 -0.0012 -0.3083
11425W        W27319  16.823   7.077   2.452 -0.1694 -0.2292  0.0553
11426W        W27320  13.403   2.305   4.509  0.0230 -0.0012  0.2012
11427W        W27321   3.351  10.686  11.553  0.2695  0.0511 -0.2704
11428W        W27322   2.212  18.486  14.130 -0.3716  0.0796 -0.2953
11429W        W27323  16.820   4.903  14.871 -0.4493 -0.0876  0.4098
11430W        W27324   4.259   3.445   3.776  0.6459  0.0008  0.0234
11431W        W27325   3.151  18.939   3.988  0.1308  0.3590 -0.0614
11432W        W27326  19.117   2.119   3.713  0.0472 -0.0713  0.1117
11433W        W27327   0.282  16.129  13.535  0.2776 -0.2421 -0.1334
11434W        W27328  15.753  17.887  14.856 -0.1639  0.2850  0.2751
11435W        W27329  16.617   8.611   3.121  0.2255 -0.0930 -0.3444
11436W        W27330   3.419  10.515   9.864 -0.2110  0.1639  0.2258
11437W        W27331  11.928  11.551  14.745  0.0784  0.2763 -0.2235
11438W        W27332   8.662  15.121  13.000 -0.2378 -0.3344  0.1655
11439W        W27333  12.625  12.605   2.431 -0.3248  0.0033  0.0948
11440W        W27334  17.484  11.788   3.515 -0.0068  0.0425  0.1750
11441W        W27335   1.771  18.292  12.150  0.3108 -0.1458  0.0219
11442W        W27336   9.865   8.124   5.129  0.1749  0.1498 -0.2571
11443W        W27337  17.322   5.384  12.622  0.0987  0.0121  0.1237
11444W        W27338  17.781  16.750  13.168  0.2093 -0.0117 -0.2631
11445W        W27339   5.279   0.209   0.006 -0.3735  0.0261  0.3179
11446W        W27340   0.340  13.990   1.658  0.0896 -0.0325  0.0684
11447W        W27341  14.356  16.166  14.691 -0.2206 -0.0048  0.3898
11448W        W27342   4.553  17.048   3.150 -0.0615 -0.0321 -0.2662
11449W        W27343  10.453  11.402  10.359  0.0703  0.1190  0.1259
11450W        W27344  11.995  17.547   5.456  0.0741  0.1703 -0.1141
11451W        W27345   6.819   3.456   0.520  0.1450 -0.1961  0.1963
11452W        W27346   1.978   1.616  14.747 -0.0321 -0.2824 -0.0282
11453W        W27347  18.978   3.577  12.504  0.0665  0.1517 -0.2073
11454W        W27348   4.323   1.135   3.749 -0.1030  0.1581  0.1783
11455W        W27349   6.813  12.177   0.646 -0.3173  0.1051 -0.2577
11456W        W27350   5.708   9.459  14.741  0.0348  0.1469  0.2388
11457W        W27351  13.207   6.059   2.751 -0.0005 -0.1464  0.1887
11458W        W27352   6.800  18.439   2.314 -0.0859 -0.0987 -0.2244
11459W        W27353  15.987   9.943   1.711 -0.0575  0.4196  0.0988
11460W        W27354  10.207   0.256   1.037 -0.0879 -0.2216 -0.1010
11461W        W27355   5.114   2.116  11.077  0.1904  0.1497 -0.0651
11462W        W27356   1.816   0.395   9.764  0.1440 -0.5302 -0.1568
11463W        W27357   1.652  16.812  10.350  0.1889 -0.0306 -0.3090
11464W        W27358   2.506   1.017  12.984  0.0655 -0.0284  0.3242
11465W        W27359  13.800   6.353  11.806 -0.2206 -0.1260 -0.1652
11466W        W27360   4.095   3.690   4.334 -0.3273  0.2906 -0.0147
11467W        W27361   4.082  11.473   2.635 -0.0878 -0.0871 -0.3084
11468W        W27362  11.759   2.137  12.649  0.2603 -0.1019 -0.2436
11469W        W27363   2.542  16.978   2.012 -0.0032  0.0899  0.0418
11470W        W27364   4.269  10.024   1.921  0.2661 -0.0842 -0.2942
11471W        W27365  11.079  15.205   4.756  0.0850  0.0522 -0.2204
11472W        W27366   3.120   5.101   4.423 -0.1693  0.0210 -0.1029
11473W        W27367   4.166   8.344   5.308 -0.1990  0.2624 -0.2118
11474W        W27368  17.023  17.544  13.469 -0.2371  0.0111 -0.1145
11475W        W27369  12.646   9.155  14.400 -0.3185  0.0880  0.0346
11476W        W27370   5.388   1.199  13.309 -0.1393 -0.3099 -0.0216
11477W        W27371  12.290   2.730  11.563  0.2667  0.0323  0.0794
11478W        W27372  14.502  10.104   4.685 -0.0851 -0.1653  0.1537
11479W        W27373   2.670   6.790  10.172 -0.2741 -0.0851  0.0698
11480W        W27374  15.580  15.091  12.770 -0.1801 -0.0679 -0.0983
11481W        W27375   5.161   9.849   5.130 -0.2116  0.2412  0.2022
11482W        W27376   9.834  12.731  12.887  0.3824 -0.0686 -0.1031
11483W        W27377  17.119   9.538   4.981  0.0720 -0.0260 -0.5205
11484W        W27378   9.586  13.921   4.231 -0.1185  0.0036 -0.1660
11485W        W27379   8.847   7.472   3.073  0.2242 -0.4534 -0.0688
11486W        W27380   6.317  12.379  14.948 -0.2711 -0.0556  0.1217
11487W        W27381   3.949  11.587   5.530  0.0419  0.0686  0.0497
11488W        W27382   1.316  18.436   2.631 -0.1430 -0.0183  0.1037
11489W        W27383   3.460   6.202   0.407 -0.3336  0.1084 -0.0524
11490W        W27384   2.478  15.773  14.286 -0.0255  0.1863 -0.3534
11491W        W27385  16.121   2.760  12.098  0.1750  0.0510 -0.2317
11492W        W27386   2.918   0.365   4.574 -0.0952  0.1235  0.3783
11493W        W27387   0.790  18.654   5.751 -0.1384  0.1952 -0.2682
11494W        W27388   8.970  19.130   3.356  0.3920  0.0546 -0.1840
11495W        W27389   7.048   4.092   5.938 -0.0921 -0.2608  0.2681
11496W        W27390   6.291  15.844  15.097  0.2344 -0.2064 -0.1188
11497W        W27391   7.632   7.743   0.059 -0.3007 -0.1004  0.0829
11498W        W27392   8.092   4.211   3.847  0.2354  0.0203  0.0912
11499W        W27393   4.324   3.860   3.421  0.0857  0.0169 -0.0108
11500W        W27394   2.536  14.745   5.011  0.1207 -0.2947 -0.0860
11501W        W27395  13.609  17.334   1.601  0.4022  0.1702 -0.0817
11502W        W27396   8.380   0.038  13.594  0.1173  0.1657  0.2796
11503W        W27397  11.044   0.425   3.489 -0.1181  0.1877 -0.3634
11504W        W27398   1.386   2.342  11.842  0.0935 -0.1569  0.1787
11505W        W27399   3.965   0.999   1.852 -0.0696 -0.1523 -0.0394
11506W        W27400  15.332   9.302  10.942  0.0025 -0.1306 -0.1424
11507W        W27401   5.053   7.572  14.666  0.0332  0.4070  0.0643
11508W        W27402   7.779   2.070  12.129  0.0638 -0.1613  0.2468
11509W        W27403  14.275   4.410  11.117 -0.0508 -0.2406  0.1148
11510W        W27404   3.026   6.032   0.214  0.0928  0.0659  0.0383
11511W        W27405   0.923   1.901  13.640  0.1843  0.3188 -0.1017
11512W        W27406   1.079   7.860   4.259  0.1437  0.0470  0.2769
11513W        W27407  18.596  11.369   1.457  0.1340 -0.1839 -0.1280
11514W        W27408  12.823  12.768   4.878 -0.2527  0.3856  0.3267
11515W        W27409   4.537   9.544   3.447  0.0827  0.1327  0.1380
11516W        W27410   3.333   8.806   5.614  0.0034 -0.0984  0.0845
11517W        W27411  13.105   2.868  11.993 -0.0616 -0.0534 -0.2974
11518W        W27412   5.647   1.203  12.518  0.2456  0.1332 -0.2451
11519W        W27413   8.382  12.858  12.700 -0.0427  0.0195 -0.4643
11520W        W27414   4.257   3.244   0.628 -0.1721  0.0888  0.1884
11521W        W27415   2.234   6.415   4.232  0.0551 -0.3704  0.0109
11522W        W27416   7.413   4.465   4.329 -0.0102  0.0183 -0.2620
11523W        W27417   7.994   7.997   3.592  0.3234  0.1554  0.0529
11524W        W27418   5.687  16.523   4.387  0.1591 -0.3599  0.1207
11525W        W27419  18.846   7.104   4.935  0.0182  0.1130  0.1368
11526W        W27420   7.960  18.442   4.191 -0.1172 -0.1677  0.3450
11527W        W27421   2.967   5.275   3.018  0.4534  0.0230  0.0527
11528W        W27422  11.262   0.048   3.850  0.2051 -0.1464  0.3455
11529W        W27423  13.858   3.113  12.893 -0.4711  0.3622  0.2346
11530W        W27424   0.047   2.250   1.885 -0.0940 -0.2234  0.1990
11531W        W27425   2.836  16.439   3.337 -0.1291 -0.0731 -0.0054
11532W        W27426  11.652  12.151   0.590 -0.1228  0.0914 -0.0720
11533W        W27427  16.909   3.838  14.422  0.4484  0.1572  0.0967
11534W        W27428  16.018   1.550   1.307  0.0470 -0.0902 -0.1381
11535W        W27429  18.717   0.831   3.618  0.0957 -0.1842 -0.4348
11536W        W27430  14.478   4.601  14.547  0.1808  0.2930 -0.1669
11537W        W27431   0.868  12.296  11.254  0.1353 -0.2325 -0.2408
11538W        W27432   0.590   7.576   0.123  0.1435 -0.1290  0.0779
11539W        W27433   5.085  11.540  12.362  0.0064 -0.0668  0.2068
11540W        W27434   5.069  14.980   4.913 -0.1875 -0.3340  0.2991
11541W        W27435   5.714   4.832   2.159  0.2500 -0.0662  0.1177
11542W        W27436  16.180  18.777   0.342 -0.2229  0.0523  0.3675
11543W        W27437  10.556  12.756  12.049 -0.0840 -0.1323  0.2098
11544W        W27438  11.101  13.692   0.827  0.1284  0.3067 -0.1018
11545W        W27439  14.837  13.297   2.663 -0.2893  0.0606  0.2438
11546W        W27440   1.723   9.135  13.900  0.2027 -0.0569  0.1396
11547W        W27441   1.330  14.660  10.919  0.1144 -0.5068  0.0339
11548W        W27442   2.953  14.748   2.066  0.3452  0.2052 -0.3303
11549W        W27443  16.199   8.104  14.688  0.0785 -0.0137 -0.1459
11550W        W27444   5.831  15.417  14.497 -0.1553 -0.2057  0.1501
11551W        W27445   2.367  12.047   0.674 -0.0068  0.0174 -0.1549
11552W        W27446  16.119   2.828  10.347  0.0625  0.1228 -0.1030
11553W        W27447  15.635   6.972  10.666 -0.0564  0.0599 -0.0780
11554W        W27448   9.998   4.730   3.913 -0.1864 -0.2957  0.1043
11555W        W27449   1.021   2.031  11.926  0.1674  0.1212 -0.2265
11556W        W27450   7.790  13.215   1.972 -0.1707 -0.0816  0.0384
11557W        W27451   2.317  17.464   5.500 -0.1284 -0.2069  0.2078
11558W        W27452  12.700   0.970  11.830 -0.0738 -0.1080  0.1604
11559W        W27453   3.331   4.634   3.329  0.0803 -0.2374 -0.1875
11560W        W27454   8.812   6.935  10.600 -0.4033 -0.0265 -0.0568
11561W        W27455   0.793  16.158   1.080 -0.0025 -0.2163  0.1163
11562W        W27456   2.346   7.061   2.508 -0.3459  0.0489  0.3640
11563W        W27457   9.797   0.007  13.647 -0.2131  0.0786  0.5174
11564W        W27458  17.644  16.221  11.249  0.1571 -0.0520  0.2687
11565W        W27459   7.426  10.234   0.299  0.3005 -0.0100  0.1974
11566W        W27460  10.816  17.605   0.113 -0.1132  0.3318  0.1016
11567W        W27461   8.328   5.254  13.160  0.3274 -0.1549  0.1941
11568W        W27462  11.986  14.747  13.576  0.2170  0.0117 -0.1135
11569W        W27463   2.439  11.326   3.774  0.3184 -0.1349  0.3854
11570W        W27464  16.171   8.802   3.343  0.1211 -0.0445  0.0753
11571W        W27465   7.511  10.412   2.972 -0.0516 -0.1914 -0.0552
11572W        W27466   0.499   8.681  13.970  0.0549  0.0077 -0.0979
11573W        W27467  10.850   4.284  10.964 -0.2130  0.3599  0.1237
11574W        W27468   6.592  17.364   1.503  0.1788  0.1019  0.1467
11575W        W27469   9.170  11.736   3.711  0.1175  0.0817 -0.2455
11576W        W27470   9.790   8.409  11.363  0.1551  0.3753  0.3724
11577W        W27471  17.577  15.556  14.587  0.3217  0.0583 -0.0053
11578W        W27472  10.132   8.471  10.434  0.1267  0.3013 -0.1347
11579W        W27473  11.312   7.413   2.336  0.2796 -0.0423  0.1925
11580W        W27474  16.940  12.993  13.361  0.0397 -0.1276 -0.1163
11581W        W27475   8.150   3.643  12.294 -0.0254 -0.0083  0.3121
11582W        W27476   7.288   3.750   1.982  0.2505 -0.1318  0.2047
11583W        W27477  12.478   2.956   1.433 -0.2398  0.1266 -0.2984
11584W        W27478  19.083   8.168   2.860  0.2142  0.0459 -0.3281
11585W        W27479   1.671  10.965  13.436  0.0500  0.0051  0.3233
11586W        W27480  12.073   9.288   1.492 -0.0452 -0.2435  0.3203
11587W        W27481  10.247   1.701  12.120  0.1725 -0.0033 -0.2940
11588W        W27482   4.196  14.976   1.005 -0.0327  0.0681 -0.1989
11589W        W27483   8.954  11.457   1.322 -0.4337 -0.0557 -0.2775
11590W        W27484  19.174  10.346  12.780 -0.1120  0.2213  0.0944
11591W        W27485   5.213  14.114  14.354  0.0614 -0.0313  0.1287
11592W        W27486   6.572  10.549   0.692  0.0879  0.2540  0.0181
11593W        W27487  17.697   5.853   3.016 -0.2161 -0.0550  0.1509
11594W        W27488  18.427   7.887   6.021 -0.3102  0.0379 -0.4930
11595W        W27489   2.309   8.937  11.632 -0.1281  0.3442 -0.0599
11596W        W27490   8.478   8.110   4.302 -0.3373 -0.1690  0.1037
11597W        W27491   5.047  10.726  15.184 -0.3363  0.2630  0.0100
11598W        W27492  10.289  17.475   4.808  0.2517  0.3483 -0.0726
11599W        W27493  11.356  13.787  13.919  0.1314 -0.3413 -0.0600
11600W        W27494   4.291   6.950  11.080  0.1312 -0.1349 -0.0251
11601W        W27495   3.821   2.532   4.737 -0.1108 -0.1496 -0.1829
11602W        W27496   9.436   2.268  14.257 -0.2704 -0.1357 -0.1568
11603W        W27497   2.434  18.930   2.480 -0.4788 -0.0782 -0.2603
11604W        W27498   7.028   4.029  13.817 -0.1125  0.2264  0.2285
11605W        W27499   3.548   6.690   3.079 -0.0738  0.0416  0.0264
11606W        W27500   8.190   2.380  13.602 -0.2269 -0.2845  0.1745
11607W        W27501  17.052  19.067  14.786  0.4789  0.2326 -0.2288
11608W        W27502  14.202   6.344  14.387  0.2127  0.2141  0.2000
11609W        W27503  10.682   5.364   5.277 -0.1265 -0.1974  0.0779
11610W        W27504  18.657  11.014  13.296  0.1337 -0.1784 -0.1796
11611W        W27505   2.932   4.150  11.473  0.0993  0.1167 -0.3752
11612W        W27506   9.260  18.930  12.357  0.2771  0.2594  0.2211
11613W        W27507  10.581   5.409   0.779  0.2419  0.0926 -0.2542
11614W        W27508  16.958   1.802   0.724  0.0283 -0.2169  0.0557
11615W        W27509   6.656  17.189   3.641  0.0096  0.1251  0.1190
11616W        W27510   4.307   2.796  12.875 -0.0312  0.0363  0.1230
11617W        W27511   4.584  16.056  14.396 -0.1155  0.1125 -0.3456
11618W        W27512   5.076  10.459   3.244  0.0913  0.0475  0.1453
11619W        W27513   6.714   7.900   1.817 -0.3328  0.0538  0.0930
11620W        W27514   5.379   2.306   0.751 -0.3136 -0.4341 -0.0142
11621W        W27515   1.751   8.868   2.941  0.1339 -0.1677  0.1829
11622W        W27516   8.025   6.404  15.030  0.1639  0.0597 -0.2040
11623W        W27517  12.902   3.445  14.804 -0.2320  0.2278 -0.0731
11624W        W27518   8.281  13.994   4.807  0.2645 -0.0068  0.0252
11625W        W27519   4.879   0.514   0.258  0.1231 -0.0628  0.0205
11626W        W27520  17.792  18.430   3.801  0.1247  0.2295 -0.0146
11627W        W27521  18.726  18.380  12.331 -0.3712  0.0162 -0.2406
11628W        W27522   9.651   3.165   0.789 -0.1968  0.1780 -0.3470
11629W        W27523  10.109   8.641   4.670  0.1442  0.0150  0.0204
11630W        W27524   3.925   3.784  12.904  0.2447 -0.2058 -0.0077
11631W        W27525  10.330   3.946  11.621  0.1593 -0.0930  0.0390
11632W        W27526  14.307   1.189   3.753  0.3138  0.0396  0.5101
11633W        W27527  13.635   4.845  14.364 -0.1292  0.1976 -0.3110
11634W        W27528  11.685  17.298   0.304 -0.2487 -0.1593  0.2972
11635W        W27529   7.435   2.903   0.271 -0.1568 -0.3600  0.0604
11636W        W27530   0.040   7.922  12.958 -0.1020  0.1566 -0.2030
11637W        W27531   2.305  10.592   9.783 -0.0895  0.1939 -0.1111
11638W        W27532   1.182   8.407  11.088 -0.2827  0.2360  0.0319
11639W        W27533   2.047   7.249  14.980 -0.1747 -0.3348  0.1563
11640W        W27534   7.808   4.276   5.552 -0.0861  0.4114 -0.0792
11641W        W27535  12.939  18.860   1.331  0.0029  0.5744  0.0903
11642W        W27536  14.810  17.851  10.373  0.0183 -0.0713  0.0802
11643W        W27537  18.766   9.888  12.122 -0.2545 -0.3694 -0.0541
11644W        W27538  14.999   7.367   3.730 -0.0188 -0.0831 -0.2099
11645W        W27539  15.028  15.920  11.512 -0.1908 -0.1680  0.1573
11646W        W27540  10.670   8.694   2.223 -0.2115  0.0564 -0.0054
11647W        W27541  11.176   2.807  10.907  0.2339  0.0874 -0.2654
11648W        W27542   1.396   0.365   4.177  0.0663 -0.0274 -0.0627
11649W        W27543  16.570   4.946  13.565  0.2099 -0.1735  0.0696
11650W        W27544  15.745  10.567   2.838  0.2328  0.2913 -0.2742
11651W        W27545   9.662   5.056  11.227  0.0633  0.1379  0.0063
11652W        W27546  18.181  17.982  14.178 -0.0741 -0.1234  0.0304
11653W        W27547   0.981   7.225   2.028 -0.1972 -0.2983  0.4616
11654W        W27548  11.990   1.259  11.153 -0.1326 -0.1281 -0.2092
11655W        W27549   3.436  16.563  14.573 -0.3687  0.2726  0.2406
11656W        W27550  13.720  19.136  10.837  0.0266  0.0728  0.2265
11657W        W27551  17.069   8.110  14.172  0.3358 -0.0061  0.0648
11658W        W27552  17.966   2.561   0.008 -0.0342  0.0059 -0.0506
11659W        W27553   2.278  16.562   5.205 -0.0952  0.1180  0.2338
11660W        W27554   1.815  17.517   4.958  0.1561 -0.1461  0.2999
11661W        W27555   2.782  12.353   1.661  0.1075 -0.1821  0.1018
11662W        W27556   3.701   6.452  11.298  0.0771 -0.1734 -0.0626
11663W        W27557   0.665   5.703   2.408  0.1388 -0.2524 -0.1097
11664W        W27558  17.657   1.957   4.306  0.0752 -0.0146 -0.0626
11665W        W27559  10.936  10.914   2.308  0.1465  0.0986  0.2778
11666W        W27560   6.272   8.060   0.164 -0.2869  0.3246 -0.0230
11667W        W27561   4.077   2.405   4.329  0.4003  0.0611 -0.3047
11668W        W27562   7.267  16.483   1.271 -0.1633 -0.2444  0.1686
11669W        W27563   4.740   4.553  10.655 -0.4348 -0.0821 -0.0865
11670W        W27564   4.411  12.230   2.361 -0.1585  0.0137 -0.2030
11671W        W27565   5.828   9.516   5.113 -0.1557 -0.2514  0.1603
11672W        W27566  15.850  14.259   1.640 -0.1987  0.1928 -0.2625
11673W        W27567   5.876   4.395  14.056 -0.0058 -0.0394  0.0739
11674W        W27568  14.149  17.298   2.570 -0.0363 -0.0671 -0.0891
11675W        W27569  13.583   2.061  11.364 -0.1451 -0.0752  0.1834
11676W        W27570   8.478  14.392   9.204 -0.2073  0.0569 -0.2970
11677W        W27571   1.491   0.688   0.276 -0.3610 -0.0435 -0.1002
11678W        W27572  12.994   3.150   4.886 -0.4009 -0.2819  0.1685
11679W        W27573   6.701  14.947  14.552  0.1841  0.0252  0.0497
11680W        W27574  16.609  14.624  14.823 -0.0273 -0.0634  0.0296
11681W        W27575   2.841   8.715   3.228  0.0185  0.0740 -0.0089
11682W        W27576  18.513   3.083   5.562  0.1683 -0.2211  0.1002
11683W        W27577  10.979  14.797  10.066  0.0353 -0.0118 -0.4024
11684W        W27578  18.232  10.666  14.183  0.0971  0.3753  0.0175
11685W        W27579  14.389  18.093  11.292 -0.1772  0.1601  0.0013
11686W        W27580  10.108  15.122  10.464 -0.0408 -0.2425 -0.1424
11687W        W27581   1.334   0.041  14.932  0.1427  0.2376  0.0493
11688W        W27582   8.263   1.717   9.866 -0.1595 -0.1103 -0.0404
11689W        W27583   6.175  13.689   1.962  0.2125 -0.1420 -0.2065
11690W        W27584  15.802  10.900  13.653  0.0722  0.0670 -0.2932
11691W        W27585   3.421   0.633   0.066 -0.2925 -0.0790  0.3383
11692W        W27586  13.775   8.055  13.004 -0.1558 -0.1593 -0.0205
11693W        W27587  12.033  11.680  13.773  0.0063  0.0622  0.1804
11694W        W27588   6.847  12.677  14.985 -0.1167 -0.5986 -0.1123
11695W        W27589   4.656  16.700  10.894  0.0310  0.0483 -0.2969
11696W        W27590   8.615   0.963  13.040  0.1445  0.0363  0.1367
11697W        W27591   3.497  17.739  15.184 -0.1129  0.4774 -0.1456
11698W        W27592   0.655   7.030  11.574 -0.1312 -0.0096 -0.1832
11699W        W27593  15.241  15.932  14.693  0.2412  0.3328 -0.1628
11700W        W27594   2.478  13.870   4.195  0.1069  0.1046  0.0244
11701W        W27595   7.188  17.806  11.385  0.2140  0.0870  0.2003
11702W        W27596   3.991  11.232  13.548 -0.2751 -0.0895  0.0803
11703W        W27597  15.072   8.583  14.097 -0.0421 -0.0450  0.3168
11704W        W27598  12.064  16.958   4.143 -0.1988 -0.2127  0.0139
11705W        W27599   4.242   3.126   2.058  0.4064 -0.3645  0.0553
11706W        W27600   1.122   5.244  15.000  0.1413  0.1315  0.1402
11707W        W27601   1.501   9.649  14.114  0.0011  0.0130  0.1020
11708W        W27602   0.078   1.075   5.917  0.0076  0.2486  0.0676
11709W        W27603   0.724   7.995  14.762 -0.1307  0.0545 -0.5090
11710W        W27604   9.676   7.624   3.734  0.0573 -0.0259 -0.2419
11711W        W27605  17.701  12.976   2.115  0.1645 -0.1094  0.2346
11712W        W27606   1.696   3.473   2.996 -0.1786  0.1973 -0.0461
11713W        W27607   2.721  17.891   2.791  0.0349  0.1390 -0.2379
11714W        W27608   9.736  18.179   2.019  0.2525 -0.0008 -0.0509
11715W        W27609   3.898  14.688  11.907 -0.1825  0.0572 -0.2986
11716W        W27610  11.410  13.820   3.849 -0.2474 -0.0494  0.3777
11717W        W27611   8.987  16.268   4.799  0.0085 -0.1711 -0.3218
11718W        W27612   2.419  18.927  13.622 -0.3751  0.1481  0.0107
11719W        W27613  18.874   5.377  13.613  0.1237 -0.2873 -0.1078
11720W        W27614   4.508  11.432   2.262  0.0525  0.0443 -0.3102
11721W        W27615  17.072  17.892  12.830 -0.0646 -0.1660 -0.0435
11722W        W27616   9.472   4.127  13.430 -0.0645  0.0080 -0.1704
11723W        W27617  16.200  12.956  14.170 -0.0416  0.1826  0.1366
11724W        W27618   4.443  17.142   1.731  0.3918  0.1983 -0.3010
11725W        W27619   8.058  18.624  14.797 -0.0624 -0.0769  0.1987
11726W        W27620   9.124  18.640   3.422 -0.1496  0.2748  0.0183
11727W        W27621  12.287   0.715   0.871 -0.0931  0.1232  0.2162
11728W        W27622   6.499   7.229  10.305  0.2312 -0.0115 -0.0301
11729W        W27623   8.434  12.489   2.584  0.0351  0.1678 -0.2612
11730W        W27624   5.185   4.316  10.631 -0.0332 -0.0158  0.0877
11731W        W27625  10.238  16.589  11.902 -0.0024 -0.1231 -0.1741
11732W        W27626   4.146  16.773  11.956  0.1337 -0.3511 -0.2809
11733W        W27627   3.316  12.902   0.724 -0.4518 -0.2651 -0.1752
11734W        W27628  14.984   4.521   3.826 -0.0133 -0.2073 -0.1793
11735W        W27629   8.790  15.961  11.500  0.2239 -0.4044  0.0673
11736W        W27630  14.254  16.251  13.759 -0.0482 -0.1348  0.0030
11737W        W27631   9.202   4.028   2.919 -0.0285  0.0672 -0.0388
11738W        W27632   1.623   3.347  10.952  0.0954  0.3190  0.0902
11739W        W27633  18.812  16.062  12.730  0.0742 -0.0632  0.1653
11740W        W27634  13.063   2.869  10.968 -0.0331 -0.0320 -0.1948
11741W        W27635   1.648   6.520   5.016 -0.2621 -0.0618  0.3283
11742W        W27636  17.155   6.521  11.698  0.3282 -0.2934 -0.0120
11743W        W27637   7.639   3.598  13.738  0.1520  0.3926 -0.0579
11744W        W27638  14.178  17.983  11.941 -0.2325  0.0028  0.0573
11745W        W27639   7.642   5.880  11.811 -0.0907  0.0103 -0.5209
11746W        W27640  13.002   2.408   5.372 -0.1396 -0.4553  0.2157
11747W        W27641  14.325   0.311   1.201  0.0139  0.1279  0.3942
11748W        W27642  17.301   2.389   5.000 -0.0658  0.1014  0.1878
11749W        W27643   7.973   1.809   4.653 -0.3196  0.1157  0.0212
11750W        W27644  16.010  11.956  10.580 -0.0492 -0.0077  0.2576
11751W        W27645   9.512   5.451  11.748 -0.1433  0.2047  0.2571
11752W        W27646  10.746  18.075  11.146 -0.1301 -0.4107 -0.1727
11753W        W27647  15.176   4.749   2.300 -0.1229 -0.1149 -0.4128
11754W        W27648   1.430  13.493   1.894  0.1339  0.1912  0.2261
11755W        W27649  11.952   5.308   3.140 -0.0403  0.1644 -0.1684
11756W        W27650   3.385   4.848  11.646 -0.0617  0.3265 -0.0677
11757W        W27651  12.746   1.872  12.561 -0.0140  0.0301 -0.0546
11758W        W27652  14.711  10.046   4.207  0.1174  0.0329  0.1948
11759W        W27653   6.012   1.919   3.536  0.0226  0.2048  0.1521
11760W        W27654  16.132  11.930  11.582 -0.0614  0.1404 -0.1442
11761W        W27655  18.363   9.049   3.382  0.1770 -0.0655 -0.1339
11762W        W27656  15.760   8.044   3.413 -0.2354 -0.1092 -0.3640
11763W        W27657   5.526  16.423  11.279 -0.0350 -0.1945  0.0435
11764W        W27658   2.243   5.056   0.616  0.2635  0.0759 -0.1870
11765W        W27659  11.436  14.969   3.789  0.1691 -0.2667  0.0927
11766W        W27660   9.711  13.853  12.390  0.0859 -0.0677 -0.1821
11767W        W27661  16.818  13.331  14.623 -0.0054  0.0435  0.0031
11768W        W27662   3.838  19.125  11.939 -0.4525 -0.0041 -0.0934
11769W        W27663  18.167   1.421   0.072  0.1214  0.0536 -0.4857
11770W        W27664  17.287   9.079   1.477  0.0524  0.2711  0.2736
11771W        W27665   8.448  11.174  12.553 -0.2039 -0.1427 -0.1924
11772W        W27666   4.806   7.202   3.185 -0.0628  0.0356 -0.1161
11773W        W27667  17.293   6.185   3.188 -0.2434  0.0495  0.0032
11774W        W27668   5.087   8.585   2.761  0.1148 -0.2679  0.0346
11775W        W27669   6.226  10.186   1.723 -0.0291 -0.1264  0.2618
11776W        W27670  15.477  13.433   9.374 -0.1648 -0.0186 -0.1302
11777W        W27671  12.612   9.157  12.584 -0.3663 -0.1519 -0.0388
11778W        W27672   2.304  10.157   5.298  0.0599  0.0446 -0.0086
11779W        W27673  16.274  15.729   4.906  0.2204 -0.1571 -0.0310
11780W        W27674  18.835  17.674   1.405 -0.5873 -0.2882  0.0879
11781W        W27675   8.180   0.999  10.401  0.3200 -0.3530  0.2097
11782W        W27676   7.113  13.300  12.380 -0.2328  0.2579  0.1436
11783W        W27677   2.574  17.584  12.306 -0.0094 -0.2464 -0.0956
11784W        W27678   7.695   7.984   3.215  0.1739 -0.3792  0.0391
11785W        W27679   0.588   7.904  11.275  0.0026 -0.2120 -0.1396
11786W        W27680  10.435   0.948  10.679  0.0672  0.1005 -0.0253
11787W        W27681  12.300  16.832   1.416 -0.1767  0.2621 -0.0344
11788W        W27682  14.871  13.581   1.211 -0.0041  0.2311  0.0235
11789W        W27683  17.869  14.843  12.631 -0.2370 -0.0567  0.0460
11790W        W27684  16.253  10.442  11.056  0.0839  0.1243  0.4654
11791W        W27685   4.119  16.645   2.541 -0.0065 -0.2068 -0.0034
11792W        W27686  10.693   6.791  12.700 -0.0716  0.0483  0.0751
11793W        W27687   3.910  14.963   3.407 -0.0776 -0.2001 -0.1288
11794W        W27688   7.567   8.791   4.644  0.3218 -0.3213  0.1287
11795W        W27689   5.254   6.228   4.743 -0.2827 -0.0818  0.1067
11796W        W27690   8.596  13.056   2.522  0.0795  0.0558  0.2520
11797W        W27691   5.867   2.138   0.900 -0.1055 -0.0433 -0.1552
11798W        W27692   0.371   0.441   3.962  0.1166  0.2513  0.1597
11799W        W27693   0.384   4.940   4.820  0.1021 -0.0362 -0.0719
11800W        W27694   3.622   7.219   0.468  0.3025 -0.2376 -0.0164
11801W        W27695   3.008  11.699  14.057 -0.0117  0.2416 -0.0477
11802W        W27696  10.394  19.122  11.580 -0.0279  0.3326  0.4023
11803W        W27697   8.854  18.695   3.035 -0.2152 -0.2115  0.1313
11804W        W27698  10.464   9.376  12.170  0.1010  0.2233  0.0183
11805W        W27699  12.040   1.674   2.670 -0.3286  0.1965  0.1861
11806W        W27700  14.999  15.221   0.556 -0.2313  0.0015 -0.0124
11807W        W27701   1.989  12.687   3.805  0.0064 -0.0593 -0.1533
11808W        W27702   4.894   1.117   9.090  0.1441  0.0948  0.1331
11809W        W27703  10.918  12.828   2.822  0.3017  0.0185 -0.2373
11810W        W27704   8.707  15.023  14.824 -0.4828 -0.0196  0.0444
11811W        W27705   3.282  12.739   2.673 -0.2215 -0.3207 -0.1823
11812W        W27706  12.725   1.615  12.135 -0.3421 -0.1252  0.0429
11813W        W27707   7.324   2.385   0.130 -0.2280  0.0355 -0.0261
11814W        W27708   5.188  15.251  14.640  0.3904  0.1851  0.0740
11815W        W27709   2.179   6.341  13.878 -0.3430 -0.0843 -0.1664
11816W        W27710  17.404  13.897  12.337 -0.3691  0.1577  0.0848
11817W        W27711   6.224  11.323  13.880  0.0324 -0.0587 -0.1333
11818W        W27712   7.695   7.159   3.852  0.0758 -0.1174 -0.1813
11819W        W27713  16.525   8.857   4.344 -0.2124 -0.2142  0.2944
11820W        W27714  15.801   7.436  10.810  0.0031  0.1071  0.1295
11821W        W27715   9.880   1.597  11.775 -0.3312 -0.3738  0.1274
11822W        W27716   8.231   5.648  12.636  0.0095 -0.1120 -0.1077
11823W        W27717   1.816  13.731   2.195  0.1158  0.0051 -0.2012
11824W        W27718  15.982   3.344   4.702  0.0889  0.3997 -0.1983
11825W        W27719   6.990   0.224   0.246  0.0569 -0.2723  0.1050
11826W        W27720   3.079  12.756  14.156  0.0043  0.1685 -0.3622
11827W        W27721   7.241   9.486   0.424  0.1137  0.1257  0.0568
11828W        W27722   4.960  15.427  11.794 -0.0643  0.1848  0.1079
11829W        W27723  14.188   3.439  14.976 -0.0617  0.0356 -0.2535
11830W        W27724  12.603  15.213   5.205 -0.0912  0.1029 -0.0764
11831W        W27725   2.983   5.122  13.772  0.0596 -0.0862 -0.0744
11832W        W27726   7.958   8.684   4.334  0.0374  0.2584  0.0533
11833W        W27727   6.399  12.503   0.593 -0.0361 -0.2422 -0.0770
11834W        W27728  12.987   8.843   1.367  0.0504 -0.3192  0.1445
11835W        W27729  11.420   1.996   5.103  0.1445 -0.4765 -0.2383
11836W        W27730   4.445   0.292  12.216  0.1202 -0.0766 -0.1148
11837W        W27731   7.609   3.904   3.152 -0.0503  0.1688  0.2918
11838W        W27732   5.271   4.713  13.225  0.1483  0.0222 -0.1473
11839W        W27733   3.314   5.735  10.840  0.3092  0.2086 -0.1084
11840W        W27734   9.903  17.773  11.193 -0.2205  0.0488  0.0924
11841W        W27735  14.308  11.306   1.098  0.0750 -0.0785  0.2614
11842W        W27736  17.207  13.745   1.086 -0.2485  0.0423 -0.0827
11843W        W27737  15.994  16.197  10.586 -0.0291  0.3429 -0.2570
11844W        W27738  16.839   3.173   2.779  0.0877 -0.2237  0.0697
11845W        W27739   6.236  13.876  13.896 -0.1455 -0.0890 -0.0833
11846W        W27740  15.862  13.661  14.423 -0.1302 -0.0029  0.3608
11847W        W27741   8.368   0.374   3.133  0.1961  0.0001 -0.1992
11848W        W27742  14.128  18.083   4.049 -0.2523  0.0008 -0.1563
11849W        W27743  13.248  18.532   5.093 -0.1814  0.0289  0.3586
11850W        W27744   1.714   7.314  11.345 -0.1452 -0.3162  0.2338
11851W        W27745  18.672   3.997  14.980 -0.2879 -0.2316  0.4296
11852W        W27746   0.143   2.203  12.569 -0.2485  0.0672 -0.2146
11853W        W27747  14.489   9.232   3.564 -0.1686  0.0923 -0.0077
11854W        W27748  10.716   4.491   0.423  0.1162  0.1329 -0.0581
11855W        W27749   1.108  17.699   2.227 -0.2065  0.1441  0.3481
11856W        W27750  15.688   4.817   0.156 -0.2080  0.2630  0.0929
11857W        W27751  15.328  11.647   5.095 -0.3693  0.2768  0.0240
11858W        W27752   8.482   9.318  10.201 -0.3617 -0.0287  0.4309
11859W        W27753  14.839   2.490  11.734 -0.2294  0.0035 -0.1117
11860W        W27754  13.323  10.741  12.016 -0.2141 -0.1822 -0.1948
11861W        W27755  14.993  10.981   2.235 -0.1091  0.1654 -0.0232
11862W        W27756   9.474   1.237   2.557  0.0761  0.2912  0.0234
11863W        W27757   4.071   8.768   1.194  0.0889 -0.0758 -0.1265
11864W        W27758   5.327   1.214   2.831 -0.1300 -0.0768  0.1471
11865W        W27759   8.037   3.764   3.492 -0.2671 -0.1084 -0.0068
11866W        W27760   3.218   3.112   3.742 -0.1870  0.4879 -0.0481
11867W        W27761   3.612  10.080  11.892  0.1753 -0.0327  0.3987
11868W        W27762  18.643  11.870   2.280 -0.0305 -0.1415  0.2608
11869W        W27763  17.981   7.955  13.027 -0.0532 -0.0623  0.2575
11870W        W27764  11.151   4.212  13.847 -0.3688  0.2229 -0.0680
11871W        W27765  12.864  18.153   3.887  0.4025 -0.1602 -0.0899
11872W        W27766   1.428   5.122   1.977 -0.0869  0.1368  0.2569
11873W        W27767  14.183   1.761   4.877  0.3927 -0.0669 -0.2615
11874W        W27768  13.462   0.315   5.339  0.2019 -0.1352  0.2872
11875W        W27769  12.785  16.526   3.952 -0.1507  0.3056 -0.1444
11876W        W27770  13.437   7.568  10.710 -0.2183 -0.0512 -0.1536
11877W        W27771   2.033   3.225   2.203  0.1137  0.1849 -0.3999
11878W        W27772  14.626  18.896   3.052  0.0968 -0.7752  0.0154
11879W        W27773   6.150   5.147   5.681 -0.0042  0.1317 -0.0390
11880W        W27774  14.836  12.907  11.595 -0.1397 -0.2070 -0.1036
11881W        W27775   8.173   6.935   3.780 -0.3078 -0.0882 -0.2763
11882W        W27776  16.503  16.859   0.269  0.1462 -0.3522  0.0103
11883W        W27777  13.776   0.459   5.773  0.0268 -0.1995 -0.0170
11884W        W27778   3.343  18.227   0.895  0.0346 -0.1288  0.0161
11885W        W27779   3.479   7.776   1.452  0.1688 -0.1914 -0.1495
11886W        W27780   5.367   4.442   1.159  0.0003 -0.0878  0.3851
11887W        W27781  17.921   1.746   0.357  0.1296 -0.2075  0.0133
11888W        W27782   4.499  16.764  13.806  0.0924 -0.1600  0.0747
11889W        W27783   3.106   0.832   1.323  0.1923 -0.0459 -0.0521
11890W        W27784  15.076   8.670   5.188  0.0191 -0.0133 -0.1886
11891W        W27785   2.535  11.694  11.723 -0.3323 -0.0816 -0.0018
11892W        W27786  11.106   3.676   1.041 -0.1482 -0.2410  0.0221
11893W        W27787  15.260   1.304  11.497  0.1220 -0.1884 -0.1392
11894W        W27788  17.569   8.852  14.884  0.1419 -0.1461  0.3103
11895W        W27789  12.308   5.814  11.638  0.0849 -0.2675 -0.2259
11896W        W27790  14.651   2.077   2.500 -0.2580  0.1369  0.1548
11897W        W27791   8.491  13.832   0.861  0.0334  0.0707  0.0677
11898W        W27792   9.072  15.632   1.912  0.0819 -0.2147 -0.2073
11899W        W27793   5.802  12.725   3.815  0.1137 -0.1612 -0.2873
11900W        W27794  13.915   5.177   1.821 -0.0967  0.1895  0.1912
11901W        W27795  18.114   1.757  13.958  0.2181 -0.0941 -0.0383
11902W        W27796   0.303  17.354   4.069 -0.1569 -0.0462  0.0578
11903W        W27797  11.423  11.631   3.416 -0.0439  0.2447 -0.2107
11904W        W27798   3.288  15.996   4.008 -0.1409 -0.2353  0.0297
11905W        W27799  10.321   8.135  11.385 -0.1673 -0.0990  0.1196
11906W        W27800   6.091  12.434  14.007 -0.3931 -0.1100 -0.0034
11907W        W27801   7.331   2.267  13.212  0.1057 -0.2413  0.0864
11908W        W27802  16.573   7.507  14.706  0.3484 -0.1118 -0.1835
11909W        W27803  17.876   4.672  10.978 -0.1234  0.1915  0.1656
11910W        W27804   4.535   4.379   4.463  0.2166  0.0381  0.4173
11911W        W27805   1.564   1.234  14.555 -0.4499  0.1192 -0.1341
11912W        W27806   1.835  10.804  11.120 -0.0057  0.1691  0.0150
11913W        W27807  10.740  11.487   4.285  0.1057  0.1392 -0.2714
11914W        W27808   4.033  14.114   5.316  0.2273  0.3913  0.2137
11915W        W27809   1.876  17.778  12.879 -0.0379 -0.2172  0.5192
11916W        W27810  13.851  12.259   5.383 -0.1127 -0.1890  0.0869
11917W        W27811   0.650  16.353   5.190 -0.0763 -0.0425 -0.0716
11918W        W27812   3.276   1.295   1.402  0.0312 -0.1894  0.1068
11919W        W27813  15.005   5.457  14.617  0.0017 -0.1141 -0.4071
11920W        W27814  16.670  17.208   1.298  0.0168 -0.2099 -0.3319
11921W        W27815   9.403   2.428   4.211  0.2142  0.1934  0.1037
11922W        W27816  13.475   5.319   2.055  0.0029  0.0585  0.2872
11923W        W27817  16.944  14.878   1.995 -0.0385 -0.0803 -0.1654
11924W        W27818  13.445   4.035   3.756 -0.1656 -0.0116  0.0839
11925W        W27819   4.356   7.826  10.534 -0.1218  0.1844  0.0276
11926W        W27820   1.712  17.346  12.276 -0.0833  0.3472  0.2088
11927W        W27821  11.033  19.052   5.101 -0.1140  0.0717 -0.1142
11928W        W27822  15.746  10.465  11.174 -0.0611 -0.2331  0.3191
11929W        W27823   7.741  15.997  10.510 -0.1438  0.0301 -0.1807
11930W        W27824  11.729   4.499  13.905 -0.0271  0.0077  0.1118
11931W        W27825  14.417   1.847  14.051 -0.1479  0.1624 -0.3816
11932W        W27826  14.127   8.095   1.395 -0.1794  0.0146 -0.0620
11933W        W27827   3.581  12.355   1.698  0.1435 -0.0206 -0.0613
11934W        W27828  18.943   7.760  14.150 -0.2213 -0.1476  0.1956
11935W        W27829   0.632   4.183  10.976 -0.0902 -0.1015  0.1229
11936W        W27830   7.159   9.696   3.116  0.0671 -0.0737 -0.1047
11937W        W27831  12.410   4.551  11.273 -0.2013 -0.3791 -0.0805
11938W        W27832  11.175  12.145   4.776 -0.2163  0.1009 -0.1632
11939W        W27833  16.244  17.530   1.453  0.0282  0.1371 -0.0283
11940W        W27834   7.434   6.563  11.365 -0.1340 -0.1212  0.0017
11941W        W27835  15.674  11.474  14.651 -0.1735 -0.1386  0.2271
11942W        W27836   5.656  10.636  10.399  0.0876  0.0755 -0.4764
11943W        W27837   2.088  19.030  12.278  0.0770  0.1870 -0.3566
11944W        W27838  11.619  11.809  11.812  0.0340  0.1757 -0.0119
11945W        W27839   9.741  16.821  11.454 -0.1173 -0.0237  0.0337
11946W        W27840   2.208   0.772   9.809 -0.1663  0.0463  0.1976
11947W        W27841   3.467   8.262  14.670  0.1692 -0.1875 -0.0215
11948W        W27842   4.204   5.437   5.060 -0.1568  0.0597  0.2369
11949W        W27843   1.161  18.885   0.337  0.1535  0.2542 -0.0513
11950W        W27844   7.519  10.909   3.188 -0.0408 -0.1009 -0.3333
11951W        W27845   3.176   2.512   1.734  0.0854 -0.2692 -0.2511
11952W        W27846  13.370  15.547   0.828 -0.1930 -0.1815  0.0927
11953W        W27847   6.527  15.651   1.751  0.1116 -0.1659  0.0663
11954W        W27848  13.566   7.530  13.458 -0.2325 -0.0990  0.1845
11955W        W27849   0.868  10.326  11.945 -0.2346  0.0551  0.1398
11956W        W27850  10.349   4.908  14.013 -0.0393  0.0593 -0.0792
11957W        W27851  17.072   4.948   1.288 -0.2536 -0.3197 -0.0491
11958W        W27852  12.245  13.929  13.665  0.0623 -0.2837  0.2121
11959W        W27853   2.406   6.262   4.668 -0.4405  0.0728  0.0443
11960W        W27854   7.752   9.424   0.094  0.3212 -0.0527 -0.0166
11961W        W27855   7.606   5.367   1.532 -0.0721 -0.2484  0.2168
11962W        W27856  12.700   4.398  13.317  0.0966  0.0677  0.1542
11963W        W27857   6.496   6.671   3.560 -0.2564  0.1336  0.2636
11964W        W27858   6.700   8.808   4.532 -0.0732  0.1573  0.1903
11965W        W27859  11.651  16.099   2.597 -0.0888 -0.3557  0.1729
11966W        W27860  18.809   6.741  14.857 -0.3401  0.0299 -0.0932
11967W        W27861   2.489   0.243   4.690  0.0373 -0.1806 -0.1241
11968W        W27862   5.088   9.771   2.434  0.1974 -0.0667 -0.0405
11969W        W27863  15.712   5.333  10.211  0.0491 -0.1843 -0.0370
11970W        W27864  18.770  17.251   5.164 -0.2318  0.1393 -0.0337
11971W        W27865   5.678  13.510  10.510 -0.2524  0.1684  0.1100
11972W        W27866  17.512   5.944   4.860 -0.0310  0.0411  0.1143
11973W        W27867   6.010   6.533  10.708  0.1201 -0.1392  0.0826
11974W        W27868   4.539   2.338   4.708 -0.0662  0.0701 -0.1722
11975W        W27869   2.208   4.662  13.671  0.0761  0.1551  0.1193
11976W        W27870   2.240  15.310  15.126 -0.1992 -0.0899 -0.1678
11977W        W27871  12.473   3.864  15.158  0.3927 -0.1112  0.1570
11978W        W27872  11.055   4.286   0.135  0.0142  0.0503  0.0954
11979W        W27873   4.869   2.789   5.716  0.4891 -0.0837 -0.2098
11980W        W27874   2.020  18.284   2.319  0.2291 -0.0134 -0.6004
11981W        W27875  15.801   5.184  12.679  0.4715 -0.0872 -0.1815
11982W        W27876   5.640   8.491  13.708 -0.2103 -0.1163 -0.2294
11983W        W27877   2.598   1.660  14.882 -0.2412  0.1590 -0.0044
11984W        W27878   9.671   4.120   4.945  0.2641  0.0488  0.1039
11985W        W27879   0.742   9.419  13.944  0.3703 -0.2701 -0.1149
11986W        W27880   5.915  15.040  10.984 -0.3880 -0.2577 -0.1023
11987W        W27881   8.018   5.651   3.059 -0.4732  0.3829 -0.1777
11988W        W27882   4.548  17.891   3.570  0.1953  0.0018  0.0852
11989W        W27883  15.524  18.736  14.039 -0.0738 -0.0339  0.0139
11990W        W27884   9.891  13.962   0.507 -0.0562 -0.0528 -0.0543
11991W        W27885  16.452   4.150  12.326 -0.4112  0.2998 -0.4941
11992W        W27886   3.474   6.466  14.722  0.2127 -0.1174  0.1291
11993W        W27887   5.840  18.087   3.934  0.1316 -0.0024 -0.3576
11994W        W27888   4.895  11.083  12.325  0.5528 -0.1642  0.1543
11995W        W27889  12.671   8.054  11.282 -0.0748 -0.4015  0.2242
11996W        W27890   5.989   8.303   1.987 -0.1568  0.0746 -0.0478
11997W        W27891   5.322  18.788   1.344  0.3264  0.0790  0.0507
11998W        W27892   9.692  17.876   9.569  0.0055  0.2122 -0.1566
11999W        W27893   7.219   7.723   0.345  0.0762 -0.0394  0.3076
12000W        W27894  11.377  16.491   0.468  0.1478 -0.1334 -0.0808
12001W        W27895   6.901  16.710  11.179 -0.0398 -0.0918  0.2303
12002W        W27896   0.866  15.999   4.389  0.1123  0.1056  0.0448
12003W        W27897  18.739  14.607   1.218  0.0403  0.0806 -0.0164
12004W        W27898  15.876   5.818  10.107 -0.1354 -0.0957 -0.3905
12005W        W27899  15.256  11.147  13.755  0.2776 -0.0314 -0.1209
12006W        W27900  13.427  12.582   3.417  0.4471 -0.0593 -0.1066
12007W        W27901   5.146   4.426   4.396 -0.0087  0.3120 -0.3345
12008W        W27902  17.325  13.076  14.965 -0.0380  0.2412  0.0785
12009W        W27903  17.330   9.110   4.463  0.0752  0.1697  0.1564
12010W        W27904   2.057  16.076   5.038 -0.0822  0.2404  0.0250
12011W        W27905   8.920  12.857   0.840 -0.0977 -0.1845 -0.0727
12012W        W27906  17.378   5.462   5.125  0.1451 -0.0107 -0.1021
12013W        W27907   0.652   5.539  10.202  0.0735 -0.0306 -0.2332
12014W        W27908  10.386  15.150   0.664 -0.2199  0.0344 -0.1181
12015W        W27909   7.025   1.655   4.809 -0.2485  0.0833  0.1926
12016W        W27910  17.190  19.162   1.499 -0.1531  0.0402  0.5130
12017W        W27911  16.803   7.380   3.629  0.0439  0.1696  0.0572
12018W        W27912  15.159   6.211   1.531  0.0439 -0.0067 -0.2407
12019W        W27913   3.110   5.654  12.903  0.0957  0.0741 -0.1829
12020W        W27914  12.349  14.724  10.440  0.0301  0.0537  0.3505
12021W        W27915  15.596   7.703   0.273  0.2833 -0.0177 -0.0594
12022W        W27916   9.093  15.951  10.366 -0.1283 -0.0363 -0.2116
12023W        W27917  12.930  14.299   2.705 -0.3490  0.2794  0.4869
12024W        W27918  18.627   9.092  11.551 -0.0306  0.1399 -0.1576
12025W        W27919   2.108  10.477  12.148  0.1943  0.1496  0.0164
12026W        W27920   9.843  14.946   1.812 -0.2403 -0.1226  0.4588
12027W        W27921  18.291  18.176   3.852 -0.0804 -0.0901  0.1636
12028W        W27922  10.224   6.347   0.631 -0.0822 -0.1681  0.2628
12029W        W27923   5.886  18.707  12.715  0.0171  0.0171 -0.1846
12030W        W27924   5.392   5.146   1.836 -0.0905 -0.2777 -0.1180
12031W        W27925   2.463   6.792   1.590 -0.1991  0.0565  0.0604
12032W        W27926  19.160   3.113   3.012  0.1505  0.2719  0.3357
12033W        W27927   4.704  15.724   0.579 -0.1825 -0.3558 -0.1296
12034W        W27928   4.396   2.895  11.990 -0.0897  0.2631  0.0702
12035W        W27929   6.515   7.885   4.574  0.0291  0.0176  0.0106
12036W        W27930  12.008   0.396   2.578 -0.1424 -0.0931 -0.1858
12037W        W27931   6.944   1.263   5.355  0.4858 -0.0490 -0.0117
12038W        W27932  12.508   1.710  14.661  0.0176 -0.1987  0.0290
12039W        W27933   7.200   8.068   4.698  0.0117 -0.2785  0.0546
12040W        W27934   4.607  10.350   4.455 -0.1295  0.2726 -0.3666
12041W        W27935   9.082   0.717   1.829  0.0783 -0.0684  0.0602
12042W        W27936  19.073  17.404   0.430 -0.0491 -0.0701  0.0406
12043W        W27937  15.786   0.826   1.701 -0.0629 -0.4101 -0.1132
12044W        W27938  14.458  11.632  14.080  0.0480  0.0250  0.2400
12045W        W27939   0.604  15.376  14.319  0.0867 -0.1075 -0.1402
12046W        W27940   2.162  12.513  15.184 -0.2258 -0.0624  0.1097
12047W        W27941   6.473   4.319  12.621  0.2346 -0.1216 -0.1499
12048W        W27942   0.745  16.246  13.691  0.1801 -0.0807  0.1685
12049W        W27943  18.577   1.893   2.955 -0.2162 -0.1451  0.0112
12050W        W27944   2.626   3.624   4.926  0.0783  0.0756  0.0740
12051W        W27945  18.735   6.217  12.473 -0.3456  0.4569  0.0899
12052W        W27946  14.906   8.792  11.689 -0.0564  0.2645 -0.0123
12053W        W27947  14.791  14.706   1.354 -0.1552  0.1102 -0.2571
12054W        W27948  14.412  17.142  12.389  0.1506  0.1310  0.3087
12055W        W27949  15.384   9.120   1.989 -0.0965  0.0890 -0.1974
12056W        W27950  13.041   3.600   4.656 -0.3631  0.1933 -0.0756
12057W        W27951  17.640   2.180  11.784 -0.1001 -0.3863  0.0347
12058W        W27952   6.081  12.563   2.412 -0.1368 -0.2188  0.0619
12059W        W27953  17.448  13.465   5.114  0.0536 -0.2720  0.1805
12060W        W27954   7.030  14.471   4.498 -0.1370  0.1737  0.0561
12061W        W27955   6.057  15.527  14.006  0.2230 -0.2830 -0.0620
12062W        W27956  12.321   4.420  13.929  0.0866  0.0903 -0.0794
12063W        W27957   4.036  18.672   9.427  0.0425 -0.0734 -0.2303
12064W        W27958  19.027   7.610   3.406  0.0919  0.1208 -0.1777
12065W        W27959  17.022   5.280   3.571 -0.1503 -0.3057  0.1349
12066W        W27960   6.355   8.945  12.857 -0.0055  0.1322  0.3450
12067W        W27961   4.719  15.532   3.531 -0.4229 -0.0483 -0.2178
12068W        W27962   0.270   5.126  11.211  0.3351 -0.2533  0.0043
12069W        W27963   6.179   0.630  15.004 -0.1548 -0.2593 -0.0093
12070W        W27964  12.714  17.650   3.004 -0.3188  0.1246  0.1287
12071W        W27965   1.113   8.344   0.725 -0.1668  0.3663 -0.1269
12072W        W27966  11.096   3.493   2.479  0.0495 -0.0497 -0.1055
12073W        W27967   7.887   7.051   1.896  0.0823  0.0297  0.3185
12074W        W27968  15.719  14.068  12.246  0.2792 -0.0261  0.1074
12075W        W27969  11.686   0.658   4.325 -0.4753  0.1672 -0.0053
12076W        W27970   6.182  16.301  12.546 -0.1872 -0.0072 -0.3387
12077W        W27971  12.344   7.090  11.485  0.0937 -0.0778  0.0260
12078W        W27972   1.583   5.940   2.558 -0.0703 -0.1723  0.1771
12079W        W27973  11.385  11.258   4.894  0.1975  0.0796  0.0236
12080W        W27974   7.386  16.149  12.857  0.0161 -0.0923  0.0649
12081W        W27975   2.207   2.211  13.913 -0.0349 -0.4925 -0.0170
12082W        W27976   7.424  16.580  14.089  0.3682 -0.0039 -0.0491
12083W        W27977   3.567   2.389   2.565 -0.1291 -0.1598 -0.0005
12084W        W27978   5.425  13.208  14.256 -0.2287 -0.3818 -0.0562
12085W        W27979   9.984  12.021   1.126 -0.0681 -0.0068  0.0577
12086W        W27980   5.760   5.876   1.839  0.2252  0.0437  0.1125
12087W        W27981   2.797  12.738  12.198  0.0610 -0.3882  0.0677
12088W        W27982   6.167   0.263   4.310  0.1123 -0.0246  0.0930
12089W        W27983   4.723  18.733  12.834  0.1702  0.1092 -0.0776
12090W        W27984  17.762   6.492  11.638  0.2563  0.4924 -0.0836
12091W        W27985  16.471   8.984  12.679 -0.2204  0.0157 -0.2697
12092W        W27986   5.362   1.113   3.798  0.0237  0.1971  0.1796
12093W        W27987  12.638   0.573  12.143  0.0090 -0.1588 -0.1447
12094W        W27988   7.358   6.527   0.899  0.3515 -0.0261  0.0764
12095W        W27989  10.115   5.983  13.776  0.0228 -0.1707  0.0856
12096W        W27990  10.536   3.701   1.098  0.0129 -0.1146 -0.1672
12097W        W27991   1.682   4.466   0.019 -0.1978 -0.0042  0.3765
12098W        W27992  16.373   7.376  10.195  0.2052  0.1819 -0.1863
12099W        W27993  17.618   0.392   3.233 -0.0272 -0.3063 -0.1885
12100W        W27994  12.875  10.805   5.062  0.0283  0.5089 -0.0417
12101W        W27995   7.981   4.436  10.879 -0.1199  0.0239 -0.0635
12102W        W27996   8.026  12.154  15.031  0.2556 -0.0143  0.0572
12103W        W27997   5.268   1.458   0.281 -0.1500 -0.0120 -0.0331
12104W        W27998   9.495  14.503   3.400  0.0812 -0.1010 -0.0038
12105W        W27999  16.248   9.697  13.157 -0.1732  0.0296  0.1605
12106W        W28000  15.087  16.449  15.002 -0.0696  0.2675 -0.2092
12107W        W28001   9.372   0.172   4.401  0.1446 -0.0696  0.1925
12108W        W28002   4.593  13.518   1.390  0.2231  0.1908  0.1746
12109W        W28003  11.918   3.822   0.578  0.0721 -0.2496  0.2670
12110W        W28004  12.057   9.595   4.214 -0.1304  0.0008 -0.0552
12111W        W28005   2.663   5.064  12.994 -0.0774  0.2157  0.1480
12112W        W28006  15.384   3.046  11.079 -0.0564 -0.0565  0.0118
12113W        W28007   7.380  16.402   2.151  0.1905  0.2082 -0.4428
12114W        W28008   7.819  17.746   1.323 -0.0334  0.0265 -0.1505
12115W        W28009   0.455   3.650  13.906 -0.1699 -0.0361 -0.1246
12116W        W28010  10.995  13.328   1.280  0.0852 -0.0365  0.0021
12117W        W28011   5.988  13.822   2.952  0.3632 -0.1243 -0.0936
12118W        W28012   1.095  11.545  10.395 -0.1410  0.1292 -0.3966
12119W        W28013   7.472  15.643   4.805 -0.1229  0.0573  0.0011
12120W        W28014  18.350  14.732   2.974 -0.2840  0.0642  0.2097
12121W        W28015  14.220   3.879  13.598  0.2101  0.2909 -0.1147
12122W        W28016  14.169  12.975  12.410  0.2968 -0.0205 -0.0146
12123W        W28017  18.432   1.190  11.411  0.0931 -0.2246  0.3411
12124W        W28018  16.144  16.821   3.528 -0.0802 -0.1875 -0.1919
12125W        W28019  15.530  18.231  10.001 -0.1457 -0.0040 -0.1342
12126W        W28020  12.429   7.796   4.900 -0.3290 -0.2876 -0.2633
12127W        W28021   2.445  15.088  12.176 -0.0956  0.2505 -0.0030
12128W        W28022  14.876   5.143   3.972 -0.0197  0.0039  0.1002
12129W        W28023   5.449   4.021   4.282 -0.0982  0.0503  0.1906
12130W        W28024   9.913   5.778   1.381  0.0972 -0.2707 -0.0978
12131W        W28025  16.380   5.437  12.856 -0.1661  0.2292 -0.4942
12132W        W28026  12.756   8.664  10.733  0.0870 -0.1305 -0.1413
12133W        W28027   7.559   4.890  14.910  0.2997 -0.0045  0.0160
12134W        W28028  15.133   2.357  12.749 -0.2899 -0.0450  0.1063
12135W        W28029   9.734   5.337   5.334  0.0309  0.0370 -0.0083
12136W        W28030   7.433   3.878   0.233 -0.2622 -0.2710  0.0755
12137W        W28031   0.425   6.331  14.834 -0.0409 -0.0151  0.0247
12138W        W28032   9.314  10.646  14.453 -0.1162  0.1658 -0.1629
12139W        W28033   6.884   1.703   3.156  0.0539 -0.2713  0.2879
12140W        W28034   1.677   4.232   1.398  0.0532  0.1032 -0.1986
12141W        W28035  15.779  12.183   3.364  0.4757  0.2534  0.1036
12142W        W28036   6.189  18.791  11.718 -0.1582 -0.0630  0.2299
12143W        W28037   0.981   9.280   2.077 -0.1427  0.2190 -0.2356
12144W        W28038  16.386  14.008   5.240  0.0303 -0.1850 -0.1547
12145W        W28039  14.799  13.618   0.687 -0.0559 -0.0272 -0.1673
12146W        W28040   6.816  16.464  11.602 -0.2028  0.1311 -0.2133
12147W        W28041   6.592  14.268   4.659  0.4096 -0.0364 -0.2009
12148W        W28042   9.819   0.061   0.283 -0.0521  0.1332  0.0127
12149W        W28043  12.327   6.767  10.481 -0.2804 -0.4802  0.0941
12150W        W28044  13.478   3.916  14.291  0.1545  0.0277 -0.1064
12151W        W28045  10.407   5.897   0.486  0.1401  0.1385  0.1552
12152W        W28046  14.666  14.776   0.711 -0.1033  0.0970  0.0433
12153W        W28047  13.180  16.313   0.764 -0.2674 -0.0767  0.3073
12154W        W28048   4.989  11.433  14.665 -0.3946  0.0761  0.4296
12155W        W28049  15.295   1.378  14.947 -0.5516  0.0907 -0.2906
12156W        W28050   1.328   7.392   4.255 -0.1738  0.1130  0.2318
12157W        W28051   6.196  14.977  13.289 -0.0063  0.1305 -0.1295
12158W        W28052   3.587  11.088  11.314 -0.2003 -0.1035 -0.1252
12159W        W28053   5.549   6.069   0.786  0.1588 -0.0156  0.0113
12160W        W28054   6.328   3.891   4.555 -0.0831 -0.1113 -0.0478
12161W        W28055  16.777   2.048   3.845  0.3074 -0.0892  0.1341
12162W        W28056   1.288   0.915  13.917 -0.2102  0.1475  0.3123
12163W        W28057  16.260   7.181  11.041  0.2470 -0.1677 -0.2270
12164W        W28058  17.928   7.808   4.809 -0.2444 -0.1232 -0.0170
12165W        W28059  10.526  10.379  12.775  0.2634  0.1365  0.3783
12166W        W28060   1.950   8.681   1.123 -0.2422  0.3603 -0.0805
12167W        W28061  17.365  14.622   0.779  0.0772  0.1384 -0.0520
12168W        W28062  16.778   5.932   4.435  0.0821 -0.2954  0.4416
12169W        W28063  11.808  14.433   0.632  0.1335 -0.0016 -0.1609
12170W        W28064   4.770  11.430   4.206  0.2604 -0.0220 -0.2708
12171W        W28065  11.574  10.656   3.497  0.0630 -0.0247  0.2337
12172W        W28066  17.834  14.412   0.615  0.0910 -0.0720  0.0976
12173W        W28067   2.312   7.870  13.936  0.3541 -0.1842  0.2745
12174W        W28068   7.237  16.709   1.741 -0.1116 -0.2390  0.2908
12175W        W28069  14.583   7.594  12.948  0.0210  0.3262  0.1110
12176W        W28070  18.784   8.745  13.511 -0.3046  0.4010 -0.1444
12177W        W28071  15.676   4.459  10.901  0.2094  0.4512  0.0869
12178W        W28072   6.204  15.856   2.501 -0.1456  0.0912 -0.1974
12179W        W28073   3.483  14.259   0.200  0.3429 -0.1347 -0.0565
12180W        W28074  16.824  14.279  14.523  0.2183  0.0876 -0.1984
12181W        W28075  14.943   6.615  11.818 -0.1330 -0.1017 -0.4302
12182W        W28076  12.475  13.323  11.153 -0.1101 -0.0182  0.1837
12183W        W28077  16.948   9.102   4.056  0.3414  0.1497 -0.3388
12184W        W28078   0.911  18.675   4.170  0.0720  0.1566 -0.2342
12185W        W28079  15.008   9.622   0.825 -0.0939  0.1851 -0.2787
12186W        W28080  12.209   6.851  14.175  0.0883 -0.1689 -0.1599
12187W        W28081  14.747  11.443   0.818 -0.0615  0.4056  0.1526
12188W        W28082   0.181   0.901   0.316 -0.5205 -0.1651  0.1695
12189W        W28083  13.968   1.990  12.377 -0.3558 -0.1378  0.0277
12190W        W28084  11.771  11.789  10.385 -0.0389 -0.2609  0.2479
12191W        W28085   8.677   6.164  10.781 -0.2787 -0.3119 -0.1860
12192W        W28086  17.885   8.370   1.836 -0.1345  0.3767 -0.0346
12193W        W28087  14.644  18.109  11.733 -0.0776 -0.0903  0.1827
12194W        W28088   0.106   4.757   2.404 -0.0229 -0.2184 -0.0540
12195W        W28089  17.068  14.861  13.758  0.0791 -0.0295 -0.1358
12196W        W28090  17.591   5.083  11.271  0.0216 -0.1606  0.3195
12197W        W28091   6.228   8.864   4.831  0.1511 -0.1143  0.0216
12198W        W28092   4.117   1.752  13.240  0.3137  0.2708  0.1155
12199W        W28093   9.409   1.074   0.693  0.0094  0.1158  0.0845
12200W        W28094   7.765   5.604   9.107 -0.0283  0.2419  0.3900
12201W        W28095   7.213  11.472  11.215 -0.1229 -0.1103  0.1030
12202W        W28096   7.372   8.469   1.993  0.2731 -0.2798  0.0118
12203W        W28097  19.130  15.793  14.874 -0.0424  0.0163  0.2008
12204W        W28098  13.035   9.689   2.679 -0.2463  0.1875  0.0961
12205W        W28099   8.449   6.070  12.914 -0.1254 -0.2699  0.0977
12206W        W28100   6.390   3.715  12.103  0.2822 -0.0319 -0.1016
12207W        W28101  14.393  11.652   0.177  0.1663  0.2320  0.0745
12208W        W28102   0.513  15.266   0.462  0.0568 -0.0494 -0.0036
12209W        W28103  17.827   8.817   4.654  0.0375  0.0312  0.0751
12210W        W28104  19.038   4.679   1.991 -0.1393 -0.0600  0.0176
12211W        W28105   3.369  16.375   2.279  0.1676  0.0373  0.6266
12212W        W28106   0.920   0.680   3.037  0.0606 -0.0151  0.0763
12213W        W28107  14.557   4.715  11.413  0.3215  0.0900  0.2968
12214W        W28108   1.850   0.246   6.114  0.0310  0.0969  0.0294
12215W        W28109   2.307   9.826  13.422  0.0055 -0.2590  0.1566
12216W        W28110   2.805  18.374   5.402 -0.2425 -0.2276  0.3897
12217W        W28111  16.664   0.711   4.974  0.0972  0.3754  0.0973
12218W        W28112  17.803  10.395  11.358  0.0075 -0.1546  0.0723
12219W        W28113   5.800   4.772  13.573 -0.1397  0.1636  0.0306
12220W        W28114  15.288   3.310   5.166 -0.2898  0.1826  0.2721
12221W        W28115  18.330   6.842   1.849  0.2636 -0.0218  0.0341
12222W        W28116  12.083  16.955   1.874  0.0139  0.0601 -0.1013
12223W        W28117  11.172  17.803   4.748 -0.0026 -0.2641  0.0264
12224W        W28118   2.582  16.818  11.281 -0.0612 -0.1844 -0.0206
12225W        W28119   8.966   1.882   2.775 -0.3886 -0.0444  0.1872
12226W        W28120   2.947   7.931   2.524  0.0451  0.0974  0.0143
12227W        W28121  16.298  14.549  11.712  0.0722 -0.0406  0.0242
12228W        W28122  19.007  15.536  12.581 -0.1647 -0.2724 -0.3199
12229W        W28123  13.839   2.284   1.560 -0.3086  0.1123  0.2245
12230W        W28124  14.572   4.141   5.737  0.0756  0.1550  0.1165
12231W        W28125  11.149  10.022  14.679  0.1187  0.1942  0.0054
12232W        W28126   0.345   9.162  11.325 -0.2014 -0.0357 -0.1878
12233W        W28127   7.149  18.474  13.980  0.2003 -0.0132 -0.1974
12234W        W28128   1.764  15.777   5.358 -0.0059  0.1180  0.4237
12235W        W28129   4.715  12.883  10.323  0.2296  0.0736  0.2754
12236W        W28130  10.486  13.270   2.960 -0.0972  0.1885  0.1625
12237W        W28131   9.452  16.429   1.444 -0.1727 -0.4987  0.1619
12238W        W28132  17.063   4.903   4.137 -0.1197 -0.1738  0.0925
12239W        W28133  11.651   7.023   5.251 -0.3004 -0.1924  0.0644
12240W        W28134  18.068   3.681  11.707  0.1586  0.2800 -0.1799
12241W        W28135   8.123  13.474  10.262  0.2770 -0.1517 -0.1691
12242W        W28136   5.107   7.675  11.187 -0.0359  0.2210 -0.1783
12243W        W28137   4.538   8.087   3.480 -0.0662  0.1820  0.3359
12244W        W28138   9.984   2.530  10.563 -0.0229 -0.3210  0.1505
12245W        W28139  15.121   4.104  11.811  0.1111 -0.0424  0.2794
12246W        W28140   8.514  12.021  13.733 -0.3189 -0.1068 -0.3290
12247W        W28141  11.291   5.366   2.525  0.1982 -0.4185 -0.0166
12248W        W28142   0.334   4.254  12.656 -0.0006 -0.1384  0.2572
12249W        W28143   8.769  18.957  13.723  0.1885  0.2195  0.1736
12250W        W28144  11.137   6.112  13.649 -0.3066 -0.0086 -0.1287
12251W        W28145  16.079  16.791  12.605  0.1218 -0.1994  0.3023
12252W        W28146  16.631   8.840   2.621  0.3809  0.1457 -0.1049
12253W        W28147  18.902   6.192  13.095  0.0461  0.0185  0.1405
12254W        W28148   1.016  15.141   2.922  0.0677  0.0859  0.0746
12255W        W28149   0.950   8.392  13.897 -0.1764  0.0259  0.2917
12256W        W28150  18.836   4.939  11.937 -0.1740  0.4083  0.1644
12257W        W28151   9.888   8.013  10.520  0.3063  0.2572 -0.1197
12258W        W28152   8.734  18.762  14.983  0.0125 -0.1851 -0.0533
12259W        W28153   3.719   7.280  10.523 -0.2777  0.4143  0.1756
12260W        W28154   6.025  10.710   2.587  0.4302 -0.0406  0.2769
12261W        W28155  14.590  16.477   2.589 -0.1136  0.1659 -0.0389
12262W        W28156  16.120   0.124  15.178 -0.0093  0.0247 -0.0912
12263W        W28157   5.321  18.581   3.482  0.0112  0.1679 -0.0797
12264W        W28158  16.949  19.095   0.897 -0.2002  0.1417 -0.0143
12265W        W28159  16.207  17.622  10.793 -0.1265 -0.0360 -0.0398
12266W        W28160  18.790  15.850   4.497 -0.1121 -0.1045 -0.0324
12267W        W28161  17.082   1.626  10.088 -0.1942  0.0657  0.0435
12268W        W28162   8.102   1.469   4.158  0.2610  0.0857 -0.1181
12269W        W28163   5.909   4.145   3.185 -0.3071  0.2666 -0.0162
12270W        W28164   5.677  10.061  11.593 -0.1903 -0.2314  0.0402
12271W        W28165  15.504  13.928  13.831  0.1677  0.2994  0.0006
12272W        W28166   2.808   7.542   4.284 -0.0282 -0.0369 -0.1836
12273W        W28167  12.992  15.292  14.789  0.1025 -0.0158  0.1611
12274W        W28168   0.991  13.044   2.824  0.0589 -0.0868  0.1808
12275W        W28169  18.435  18.487   1.812 -0.0979 -0.2493  0.3118
12276W        W28170  11.347   1.168   1.552 -0.1589 -0.3343  0.0239
12277W        W28171   6.310   4.792  11.043  0.1233 -0.3069  0.1519
12278W        W28172  15.172   2.853   2.029  0.2342  0.0884  0.1841
12279W        W28173   9.236   6.447   3.042  0.1843 -0.0148 -0.0778
12280W        W28174  14.846   1.546   2.432  0.0170  0.0092  0.0527
12281W        W28175  12.457  13.461  10.260  0.1655 -0.0075 -0.3118
12282W        W28176   4.302  14.644  14.657 -0.0340  0.1999  0.3865
12283W        W28177  11.029   3.271  11.073 -0.1128 -0.2908  0.1869
12284W        W28178  15.430  16.150  13.935 -0.0260  0.5039  0.1515
12285W        W28179  14.435   0.164   2.051 -0.3599 -0.1142 -0.1730
12286W        W28180  15.440  10.536   4.471 -0.2405 -0.1575 -0.1475
12287W        W28181   2.061  10.456   2.398 -0.1201  0.0726  0.1359
12288W        W28182   9.072  10.750  10.508 -0.5762  0.3578 -0.0412
12289W        W28183   6.144   6.311  13.341 -0.0909  0.2023  0.2289
12290W        W28184   7.173   3.195   3.801 -0.1935  0.0361  0.0732
12291W        W28185   1.692   3.491   5.620 -0.2911 -0.0886  0.3732
12292W        W28186  16.838   4.325   2.737 -0.0513  0.0978  0.1337
12293W        W28187  12.816   9.495  15.183  0.3537  0.1216  0.2677
12294W        W28188  13.533   8.931   3.020  0.0841  0.2434 -0.0729
12295W        W28189   8.961   0.174   0.638 -0.0204 -0.0028  0.0583
12296W        W28190   4.147   8.834   2.971  0.0595 -0.2513 -0.1071
12297W        W28191  13.082   6.892  14.216 -0.1144 -0.1738 -0.3445
12298W        W28192   0.126   1.493  13.231 -0.1035  0.1901  0.0836
12299W        W28193   8.907   4.405  10.717 -0.1254  0.2598  0.4325
12300W        W28194  15.064   3.771   3.043 -0.1134 -0.3956 -0.0735
12301W        W28195  15.892   4.737  14.437 -0.0573  0.0813  0.0530
12302W        W28196   4.663  12.440   5.142 -0.0241  0.1019  0.0155
12303W        W28197  13.591  12.876   2.558 -0.1313  0.1862 -0.3292
12304W        W28198   2.729   6.700   2.547 -0.1262 -0.0763 -0.0590
12305W        W28199  11.542  15.677  10.787 -0.0337 -0.2419 -0.0999
12306W        W28200   7.737   3.520   2.214  0.2489 -0.1137  0.2705
12307W        W28201   7.204   4.998   0.951 -0.0406 -0.0933  0.1823
12308W        W28202  10.508  16.687   3.701  0.2346  0.3630 -0.0714
12309W        W28203   1.004   0.823   0.386 -0.1123  0.0461 -0.2762
12310W        W28204  17.428   8.210  11.511  0.0043  0.1088  0.1303
12311W        W28205   1.167  14.514  12.031 -0.0160 -0.1538 -0.0083
12312W        W28206  15.046  16.590   0.824  0.0972 -0.2117  0.3007
12313W        W28207   9.448   8.237  14.742  0.1954  0.1551 -0.2870
12314W        W28208  16.704   5.803   6.018  0.0411  0.2904  0.0061
12315W        W28209  18.992   4.518  10.650  0.0600 -0.0896 -0.2879
12316W        W28210   1.545   2.280  14.363 -0.0843  0.0466 -0.1351
12317W        W28211  10.799   3.508   5.168 -0.1880 -0.2138 -0.2830
12318W        W28212   9.496  16.498   4.830  0.0680  0.3279 -0.1696
12319W        W28213   8.683   6.303   4.282  0.0218 -0.0176  0.0670
12320W        W28214   9.609  10.333   1.810 -0.2801 -0.0324 -0.0792
12321W        W28215   8.337   9.080   0.822 -0.0489  0.1106  0.0784
12322W        W28216  15.642  10.350   3.848  0.1484  0.3636  0.0260
12323W        W28217   5.008   3.466  13.658  0.2729  0.0348  0.0250
12324W        W28218  17.391  10.407   3.645  0.2921 -0.1965 -0.1139
12325W        W28219  16.257  16.261  13.140  0.1462 -0.1824 -0.2135
12326W        W28220   6.190   0.237  13.650  0.0250  0.1848  0.2224
12327W        W28221  13.887  18.958  11.319 -0.2819  0.1896  0.1815
12328W        W28222   0.512   0.561  11.302  0.1973 -0.4624 -0.0746
12329W        W28223  18.955  12.274  10.963 -0.0259 -0.2395 -0.0097
12330W        W28224  12.999   0.017   0.911 -0.1952  0.0665 -0.2413
12331W        W28225   6.252  13.391   0.816  0.1265  0.1088  0.2756
12332W        W28226   8.541  18.667  12.687 -0.0766  0.1393 -0.0068
12333W        W28227   8.725   1.798  12.399  0.3009 -0.1748 -0.2075
12334W        W28228   5.418   0.249   9.265  0.0702  0.2025 -0.3280
12335W        W28229  16.838  11.311  10.786 -0.1943  0.1636 -0.0505
12336W        W28230  18.894  11.705  13.925 -0.0155  0.2399 -0.1758
12337W        W28231   7.204   0.636  12.867 -0.1933  0.0033  0.3390
12338W        W28232  17.978   4.272   1.174 -0.1916 -0.1120  0.2153
12339W        W28233   6.013   4.555  14.515  0.3460 -0.4965 -0.2623
12340W        W28234  18.823   7.604  11.448  0.2023 -0.2612  0.0504
12341W        W28235   9.273   7.048  13.115 -0.1357  0.4026  0.0405
12342W        W28236  15.936   6.387   5.642 -0.0851 -0.0940 -0.4268
12343W        W28237   0.367  13.510   3.960 -0.2767  0.0637 -0.1125
12344W        W28238   6.514   2.020  12.281 -0.0824  0.1046  0.2624
12345W        W28239  14.440  17.574  12.186 -0.0934 -0.2169  0.1851
12346W        W28240   9.516  10.273   5.014  0.0115  0.0334  0.0295
12347W        W28241   7.170   0.195  11.773 -0.0778 -0.2486 -0.1662
12348W        W28242   6.241   1.271   4.407 -0.3002  0.1453 -0.0324
12349W        W28243   8.521   8.243   3.809  0.3882  0.0499 -0.5378
12350W        W28244  18.866   4.097   0.773 -0.3092  0.1123  0.3531
12351W        W28245   4.841   0.818   3.712 -0.0681  0.1447 -0.3063
12352W        W28246   6.164   4.850   0.780  0.2768 -0.1801  0.2646
12353W        W28247   4.476  15.634  12.420  0.0761 -0.1255  0.0390
12354W        W28248   0.392   2.613  11.889 -0.1367  0.2638  0.3683
12355W        W28249  16.114   9.682   4.143 -0.1703 -0.0524 -0.0013
12356W        W28250  16.834  17.739  13.896  0.1588 -0.3423 -0.1301
12357W        W28251  11.412  17.462  13.773  0.0646 -0.1779  0.0268
12358W        W28252  15.535  16.583  11.150  0.1206 -0.1630 -0.1667
12359W        W28253   6.248   5.246   1.677  0.0847  0.0695  0.1845
12360W        W28254   3.050   4.923   4.900  0.3231  0.0765  0.0191
12361W        W28255  10.278   9.683   5.541  0.1528  0.0976  0.3109
12362W        W28256   5.423  16.168  14.767  0.0189 -0.2531  0.3618
12363W        W28257  19.110   2.557  15.061  0.1455  0.0491  0.1876
12364W        W28258   6.307  12.622   3.882 -0.2273  0.0419  0.1096
12365W        W28259  14.124  14.339  11.630  0.1825  0.0681  0.1376
12366W        W28260  12.720   1.330   1.232  0.1176  0.0366  0.0158
12367W        W28261  11.321  14.472   3.683 -0.2702 -0.0997  0.0757
12368W        W28262  17.362   2.371   4.468  0.0426 -0.0017 -0.0873
12369W        W28263  16.024   4.743   5.464 -0.0865  0.1464 -0.2088
12370W        W28264  17.380   3.934   1.372 -0.3489  0.1919 -0.1715
12371W        W28265  17.622   2.333  12.769  0.1611 -0.0527 -0.2864
12372W        W28266  18.728  14.667  15.015 -0.1793 -0.2536  0.0190
12373W        W28267  15.249  17.614   4.342 -0.2319  0.2223  0.1654
12374W        W28268   3.741  18.017   0.613 -0.1817  0.5097  0.0900
12375W        W28269   4.915  16.987  11.325  0.1916  0.1930  0.1363
12376W        W28270   4.289  10.695   4.662 -0.3999  0.1465 -0.0630
12377W        W28271   0.159   1.001  14.419 -0.1764  0.0986 -0.0774
12378W        W28272  16.936   2.956  12.858  0.0227  0.0946 -0.2384
12379W        W28273  17.144  16.405  11.936 -0.0957  0.2773 -0.0644
12380W        W28274   6.913   3.338   5.202 -0.0741  0.1027  0.1062
12381W        W28275   7.584  10.333  10.400 -0.2773 -0.1228 -0.3640
12382W        W28276   1.360   3.959  15.085 -0.1309  0.0241 -0.1707
12383W        W28277  16.805   9.333   1.313  0.1326  0.2062  0.1764
12384W        W28278   5.869   2.400   1.454 -0.2481 -0.0497  0.1261
12385W        W28279   9.198  19.029  13.320 -0.1397 -0.0113  0.0225
12386W        W28280   9.787   2.481  14.559 -0.0147  0.1075  0.0299
12387W        W28281   6.339  17.844   5.060  0.0998 -0.3733 -0.1452
12388W        W28282   6.945  12.477   1.492 -0.0293  0.2137  0.0257
12389W        W28283  16.203   1.711   2.257  0.0824  0.3576 -0.0385
12390W        W28284  13.030  11.423  13.504  0.2402 -0.0050 -0.1388
12391W        W28285   0.698   0.953   2.674  0.2044 -0.1164 -0.1793
12392W        W28286   3.656   7.737  10.028 -0.3458 -0.2027  0.0606
12393W        W28287   4.064  15.080   3.895 -0.2279  0.3104  0.3125
12394W        W28288  17.306   4.097  14.699  0.1146 -0.0923 -0.0452
12395W        W28289   4.296   1.116  15.081 -0.4492 -0.1070 -0.1497
12396W        W28290  10.030   5.884   0.140 -0.2779 -0.1515 -0.2380
12397W        W28291  14.749   3.314  12.442 -0.1196 -0.1555  0.1552
12398W        W28292   5.688  12.884   1.038 -0.0335  0.0383  0.0811
12399W        W28293  19.154   8.786   0.293 -0.4020  0.2321  0.2908
12400W        W28294  13.747   7.355  11.974 -0.2059  0.3456  0.1415
12401W        W28295   5.637  15.251   3.582 -0.0954  0.1607 -0.5013
12402W        W28296   2.943  10.475   2.360  0.1944 -0.1610  0.3918
12403W        W28297   3.212  16.963   2.118 -0.2608  0.0284 -0.4744
12404W        W28298  14.349   3.668   5.162 -0.1470  0.2245  0.1428
12405W        W28299  17.079   6.459   2.268 -0.2257  0.1157  0.1117
12406W        W28300   2.770  14.462  12.750  0.2046  0.4363  0.4096
12407W        W28301  12.089  15.955  13.085 -0.0893 -0.1629  0.1248
12408W        W28302  11.892   6.048  14.529 -0.1871  0.1180 -0.0448
12409W        W28303   0.172  11.202  13.383 -0.1672 -0.0499 -0.1168
12410W        W28304   4.540  15.417  11.544 -0.0569  0.0626 -0.0506
12411W        W28305  18.345  18.938   6.213 -0.2383  0.0899 -0.2769
12412W        W28306  10.397  10.421  10.455 -0.2048 -0.0731  0.0164
12413W        W28307  11.753   9.671   0.754  0.1194 -0.7446  0.3455
12414W        W28308   8.588  15.822   1.970 -0.1307 -0.2336 -0.1011
12415W        W28309  14.290  17.325  14.975 -0.3484  0.1374 -0.1165
12416W        W28310   0.279   5.126   0.145  0.2156  0.2435  0.0897
12417W        W28311  14.197  10.677  12.076 -0.0413  0.1333  0.0419
12418W        W28312  13.105  12.982  12.615 -0.3522  0.0908  0.1089
12419W        W28313   8.576   6.535  12.343  0.3825 -0.1154 -0.1574
12420W        W28314  11.933   8.486  14.243 -0.0994  0.0771  0.2471
12421W        W28315  16.751   5.687   1.426  0.1692  0.1182 -0.1220
12422W        W28316   9.640   3.604  12.539 -0.0439 -0.0009  0.0609
12423W        W28317   5.010   1.360   0.707 -0.6540 -0.2182  0.1724
12424W        W28318  17.503   5.375   0.329 -0.0649 -0.1996  0.1490
12425W        W28319  19.041   3.766   2.486  0.0988 -0.1153 -0.0315
12426W        W28320   6.449   4.501   3.896 -0.2072 -0.0658 -0.2061
12427W        W28321   0.928   7.993  11.651  0.0612 -0.0710  0.2027
12428W        W28322   2.207  14.491   4.051  0.0855 -0.0342  0.1272
12429W        W28323   0.573   2.368  10.313 -0.1568  0.0091 -0.3641
12430W        W28324   9.840  11.133   3.691 -0.0589  0.1706  0.0567
12431W        W28325  13.941  16.858   2.327 -0.1306  0.1616  0.2151
12432W        W28326   3.504   2.537  13.152 -0.0839  0.3216  0.0746
12433W        W28327  14.717   7.734  12.342 -0.2047 -0.1825  0.2522
12434W        W28328  14.422  11.007   0.705  0.1275  0.0932  0.0502
12435W        W28329   5.244   2.431   1.948  0.0634  0.1414 -0.2086
12436W        W28330   4.786   8.676   1.308 -0.0775 -0.0206 -0.2350
12437W        W28331  12.465   4.740   0.245  0.1343 -0.2076  0.0066
12438W        W28332   3.529  11.793   5.429  0.0883  0.0584  0.1446
12439W        W28333  11.444  15.096  15.153  0.4040 -0.0807 -0.1127
12440W        W28334   2.139   8.373  10.901 -0.0211  0.3319 -0.0656
12441W        W28335   1.638  18.700  13.168 -0.3458  0.0897 -0.3322
12442W        W28336   1.958  16.107  12.947 -0.0273 -0.0269 -0.0301
12443W        W28337   2.945  12.016   5.309  0.0169 -0.0180  0.3049
12444W        W28338   7.019   1.818   1.156  0.1949 -0.1549 -0.1263
12445W        W28339  13.467   5.026   1.123  0.1670  0.0526  0.0247
12446W        W28340   2.519   6.765   9.006 -0.3157  0.1518  0.2178
12447W        W28341  17.815  12.046   2.075  0.1393 -0.3051 -0.0827
12448W        W28342  15.318   6.478   4.724 -0.0699 -0.1350  0.1953
12449W        W28343   6.191  15.876  14.514  0.0020  0.1369  0.1382
12450W        W28344   9.398  10.755  11.814 -0.1538  0.1943 -0.0235
12451W        W28345  11.192  16.304   4.766 -0.1865  0.0092  0.1068
12452W        W28346  11.468   2.106   2.054 -0.1410  0.2925  0.2141
12453W        W28347  18.006   2.940  11.550 -0.4334  0.1613  0.3174
12454W        W28348  14.229  18.955  13.252  0.4574 -0.0399 -0.1922
12455W        W28349   9.036  18.248  11.982  0.3421  0.3845 -0.2098
12456W        W28350   0.554  12.850  13.190 -0.1493  0.1102 -0.0172
12457W        W28351   3.912  12.100  13.237 -0.2753 -0.0365 -0.2874
12458W        W28352   5.109   0.076   2.190  0.2411  0.0306 -0.1953
12459W        W28353  14.086   9.827   5.329  0.1594 -0.0570  0.1445
12460W        W28354  18.063  14.217  11.826  0.2012  0.1735 -0.0420
12461W        W28355  11.124  18.735   4.575 -0.0133 -0.0777  0.1935
12462W        W28356  11.696   9.059  10.429  0.1017  0.0168 -0.1191
12463W        W28357   9.268   9.186   1.754  0.0010 -0.0208 -0.2496
12464W        W28358   6.767   6.539   1.557  0.4295 -0.1677  0.0451
12465W        W28359  16.659  12.471  13.549 -0.2397 -0.1628  0.0448
12466W        W28360  15.749  18.549   0.944 -0.0772  0.3259 -0.0491
12467W        W28361  11.095   0.496   1.160  0.1352  0.3434  0.3822
12468W        W28362  12.412  14.520  13.704  0.3154 -0.3677 -0.1258
12469W        W28363  13.610   2.678  13.921  0.1995  0.2177 -0.0952
12470W        W28364  13.606   8.563   5.681 -0.0293 -0.0210  0.2264
12471W        W28365   3.098  13.334   4.780 -0.1055  0.3201  0.0423
12472W        W28366   9.810  18.315   4.909  0.4158 -0.0304 -0.4315
12473W        W28367   0.264   5.399   1.563 -0.3399 -0.2330  0.0896
12474W        W28368  13.362   8.197   4.713 -0.2397  0.0426 -0.1580
12475W        W28369   6.485   7.043  11.757  0.0065 -0.2393 -0.0522
12476W        W28370  12.634   9.004   4.831 -0.2005 -0.2193 -0.1640
12477W        W28371   9.856   1.091  11.907 -0.1319 -0.4342 -0.1020
12478W        W28372   9.536  15.362   2.460 -0.1143  0.1295  0.2355
12479W        W28373  14.798  10.327   5.801  0.1997  0.0461  0.1599
12480W        W28374   4.949   6.958  12.818 -0.2949 -0.4644  0.1730
12481W        W28375  16.434  17.876   3.338 -0.0758  0.4353 -0.1398
12482W        W28376  15.142  11.101   3.546 -0.0899  0.1595 -0.1473
12483W        W28377  11.594  11.863  13.506 -0.1190  0.0406  0.1704
12484W        W28378  12.817  14.030  13.813  0.3417 -0.0982  0.3856
12485W        W28379   5.404   6.069   3.967  0.0460 -0.0152  0.0922
12486W        W28380  14.363   9.231   2.711 -0.1749 -0.2123  0.0005
12487W        W28381   1.163  11.540  15.030  0.0116 -0.0320  0.0109
12488W        W28382   7.370  16.542   3.580 -0.1295  0.0093 -0.2314
12489W        W28383  12.108   6.467   4.726  0.1586 -0.0121 -0.0206
12490W        W28384  12.177   2.322  13.934  0.1505 -0.0697 -0.2104
12491W        W28385   9.457  12.373   5.246 -0.0503 -0.3234 -0.4674
12492W        W28386  16.324   1.096  12.069  0.0458  0.1326  0.0429
12493W        W28387   6.153  19.105   3.384 -0.1186 -0.2147 -0.1662
12494W        W28388   9.096   6.178   0.355 -0.0611 -0.4230 -0.0190
12495W        W28389   0.606   0.631  13.029  0.0903 -0.0824  0.0901
12496W        W28390   0.681  17.264   4.486 -0.2148  0.1697 -0.1786
12497W        W28391  10.191  12.111   4.605  0.1498 -0.0412  0.0584
12498W        W28392   4.011  16.058   3.646  0.1385 -0.0205 -0.1113
12499W        W28393   9.016   4.360  11.245 -0.4254 -0.1849 -0.0928
12500W        W28394   3.481   6.713   3.713  0.3394 -0.1094 -0.2169
12501W        W28395  11.772   4.631   1.641  0.1775  0.2606  0.0843
12502W        W28396  13.015  14.197  10.272 -0.1709  0.0981 -0.0335
12503W        W28397  12.490   3.867   2.848 -0.4913 -0.2165 -0.4127
12504W        W28398  18.349   8.282   4.979 -0.0962  0.0490 -0.0092
12505W        W28399  16.484  11.212  14.699 -0.2457 -0.3551  0.1918
12506W        W28400   5.714   3.479   2.520  0.0055  0.3415  0.1503
12507W        W28401   7.547  14.825   3.421  0.1495 -0.1776 -0.1538
12508W        W28402  10.492  13.941  13.008  0.2319 -0.4757  0.1520
12509W        W28403   7.558   7.171  13.224  0.0618  0.0051 -0.2673
12510W        W28404   4.538  14.925   3.774  0.2412  0.1535 -0.1573
12511W        W28405  14.863  14.723   5.686 -0.2165  0.2518 -0.1910
12512W        W28406   4.459  16.135  12.999 -0.1889 -0.1161 -0.1219
12513W        W28407  14.637   5.838   5.817 -0.0155  0.1458 -0.1369
12514W        W28408  11.319   0.003  12.288 -0.2280 -0.1197  0.0242
12515W        W28409   6.205   5.365   2.668  0.0246  0.0452  0.2400
12516W        W28410   7.752  14.685   2.992  0.1065  0.2057  0.1704
12517W        W28411  16.950   4.177  12.419 -0.0679 -0.1640  0.1496
12518W        W28412   4.882  17.874  12.606 -0.2198  0.0683 -0.1620
12519W        W28413  15.806   3.967  11.391  0.3482  0.1551 -0.2269
12520W        W28414   8.455  11.492  11.145 -0.0980  0.1835  0.1068
12521W        W28415   3.848  11.088   0.847 -0.0951 -0.2294  0.2163
12522W        W28416   5.230  12.892   3.761 -0.0660 -0.3294 -0.0944
12523W        W28417  12.082  18.922   3.845  0.1360  0.3046 -0.3467
12524W        W28418  18.654   0.776  11.831  0.1724  0.2737  0.1224
12525W        W28419  17.571  15.844   4.851  0.1201  0.0755 -0.2558
12526W        W28420   1.221   6.479   2.008 -0.2710  0.3009  0.0491
12527W        W28421  14.042  10.413   2.213  0.5165  0.0899 -0.2850
12528W        W28422  18.739   8.352   4.700  0.0166 -0.0721  0.0429
12529W        W28423   9.085   2.293  10.766 -0.1928 -0.1463  0.0241
12530W        W28424  10.522  19.095   0.025  0.0018  0.1096  0.1647
12531W        W28425  15.479  14.633   0.269  0.1487 -0.1529  0.0948
12532W        W28426   6.000   2.084  12.407  0.2010 -0.0038  0.1289
12533W        W28427  10.080  16.741   0.256  0.2120  0.1854  0.3795
12534W        W28428   9.608   3.652   3.675 -0.0378 -0.2835  0.0939
12535W        W28429   6.731  10.755  11.489 -0.1504  0.0281 -0.1618
12536W        W28430  12.151  15.318   4.014 -0.0279  0.0249 -0.1683
12537W        W28431   0.508   4.090  13.055  0.1997 -0.2058  0.3974
12538W        W28432   4.050  15.808  12.243 -0.1361  0.1521 -0.0914
12539W        W28433  11.025   2.069  14.172  0.2828  0.2454  0.2498
12540W        W28434   6.111  16.410  14.414  0.1980  0.0517  0.1379
12541W        W28435  18.272   4.442   4.710  0.0537 -0.0191  0.0130
12542W        W28436  11.452   8.293   4.149  0.2867  0.2191 -0.0250
12543W        W28437   1.823   1.759   1.228  0.1726  0.0918 -0.0967
12544W        W28438   9.441  16.350  13.542 -0.0977  0.3899  0.0924
12545W        W28439   6.454  16.787   4.982  0.1089 -0.0505  0.1413
12546W        W28440  12.315  10.855   4.633 -0.1092  0.4546 -0.2838
12547W        W28441   4.449   1.908   2.049 -0.3126  0.4019 -0.0970
12548W        W28442   1.962   1.176   5.687 -0.3582  0.5605 -0.0436
12549W        W28443   5.107   1.013   1.936  0.5104  0.0156  0.1408
12550W        W28444  15.670  13.347   5.181 -0.1442 -0.1713  0.0725
12551W        W28445  18.060   6.425   0.080 -0.0268 -0.0055 -0.1144
12552W        W28446   2.361   2.948   2.646  0.1185  0.0569 -0.0802
12553W        W28447   0.934   1.442  11.383  0.2041  0.1706 -0.1307
12554W        W28448  15.936  12.010  12.828 -0.2149 -0.1545 -0.0464
12555W        W28449  15.432  15.588  14.195  0.0413  0.1697  0.1936
12556W        W28450   1.224   9.781  12.118  0.1133  0.0867 -0.0632
12557W        W28451   5.183   2.460   3.578  0.3606  0.0132  0.1584
12558W        W28452   5.246  14.908   1.054  0.0371 -0.2381  0.1967
12559W        W28453  12.781   1.540   3.443 -0.0829  0.0580 -0.2403
12560W        W28454   1.498   4.017  13.337 -0.0806  0.0200  0.0749
12561W        W28455  15.526  16.340   2.445  0.0489  0.0009 -0.0984
12562W        W28456  15.164   7.540  12.344  0.0759 -0.0849  0.1906
12563W        W28457   3.544  14.126  14.511  0.2323  0.1792  0.0967
12564W        W28458  17.842  11.220   1.803 -0.3345  0.0246 -0.0694
12565W        W28459   5.283  13.920   4.445  0.0387 -0.1965  0.1246
12566W        W28460  13.434   6.438   4.759  0.0759 -0.0582 -0.0626
12567W        W28461   4.302   9.516  13.970 -0.0776  0.0586 -0.3861
12568W        W28462  10.418   0.044   4.110 -0.1344  0.2127 -0.0561
12569W        W28463   8.400   9.452   2.359  0.1375  0.0389  0.2714
12570W        W28464   6.962   2.110  15.137  0.1738 -0.1066 -0.1215
12571W        W28465  13.188   9.326   1.646 -0.0222 -0.0632 -0.4703
12572W        W28466   9.828   0.358  13.231  0.0708 -0.1548 -0.1586
12573W        W28467   4.839   9.636   3.030  0.4207 -0.0063 -0.1022
12574W        W28468  14.269   8.031   3.609  0.1922  0.0908 -0.1859
12575W        W28469   3.772   6.525   4.582 -0.0215  0.1008 -0.3030
12576W        W28470   9.505  12.993   3.302 -0.1679 -0.0056 -0.2665
12577W        W28471   9.959  16.728  12.276  0.1066 -0.3190 -0.1699
12578W        W28472  11.281   3.195   5.165  0.0744 -0.0926  0.3071
12579W        W28473  14.649  18.801  12.400  0.3257  0.2920 -0.2076
12580W        W28474   3.972   4.686   0.966 -0.0310  0.0452  0.2328
12581W        W28475  10.186  13.829   2.655 -0.0184  0.2147 -0.0583
12582W        W28476  12.867   2.458  12.355  0.1462  0.1655  0.0905
12583W        W28477  15.362   2.678  12.408  0.1435  0.3464 -0.1469
12584W        W28478   8.998   3.914  11.550  0.2941  0.3265 -0.1731
12585W        W28479   1.728   6.409  12.002 -0.2061 -0.1652 -0.1455
12586W        W28480   8.421   3.014   2.274  0.3793  0.1346 -0.1465
12587W        W28481   0.781  11.935  10.481  0.1408 -0.1124 -0.0966
12588W        W28482  12.891  11.748  13.931 -0.1412  0.0260 -0.0806
12589W        W28483  12.945   0.903  13.545  0.1456 -0.2388  0.1663
12590W        W28484  17.700  14.049   2.566 -0.1751  0.4070 -0.0755
12591W        W28485  11.129   3.963   2.426 -0.0150 -0.1090 -0.1451
12592W        W28486   6.403   3.491  15.159  0.1299  0.2768 -0.1009
12593W        W28487  13.609   2.274  13.614  0.0956 -0.1632  0.0270
12594W        W28488  16.866  18.200   1.247  0.0026  0.1796  0.4022
12595W        W28489  14.350  13.841  14.504 -0.0248  0.1203  0.0121
12596W        W28490  12.036   6.116   3.104 -0.1061  0.0289 -0.0473
12597W        W28491  12.925  11.841  12.944 -0.1958  0.1602  0.2568
12598W        W28492   4.457   6.115  10.312 -0.1883 -0.1132  0.0658
12599W        W28493  12.196   1.679  13.920 -0.0884  0.0735  0.3896
12600W        W28494   5.901  15.400   4.436 -0.2114 -0.2014  0.0591
12601W        W28495   8.521  18.136  11.986  0.1491 -0.1829  0.3193
12602W        W28496   5.390   8.096   3.200 -0.4364  0.2290 -0.0901
12603W        W28497  15.934  18.453  11.241 -0.0860  0.2055  0.2659
12604W        W28498  10.747  13.645   2.073 -0.0488 -0.0398 -0.2158
12605W        W28499  14.993   8.328  11.571  0.0312  0.0718 -0.0028
12606W        W28500  11.188   1.849   4.258  0.2144 -0.2848  0.1284
12607W        W28501  17.714  11.469   0.326  0.0734  0.1444 -0.0621
12608W        W28502   0.948   5.876  11.345 -0.1347 -0.0194  0.1833
12609W        W28503   2.706  13.442  15.132 -0.0524 -0.0765 -0.0733
12610W        W28504  14.335  12.724   3.313  0.0486 -0.3390  0.2673
12611W        W28505  10.618   9.220   3.850  0.2168 -0.1587  0.2642
12612W        W28506  11.769  13.822  14.639  0.4407 -0.2158 -0.2629
12613W        W28507  10.458   0.414  12.289  0.2532  0.1721  0.1871
12614W        W28508   9.392   4.020   0.142  0.2292 -0.0906 -0.3424
12615W        W28509   3.801  13.614   2.666  0.2197 -0.0980  0.0043
12616W        W28510  14.348   2.231  11.941  0.0454  0.0544 -0.2844
12617W        W28511   7.596   2.539   2.937  0.1454  0.0612 -0.2558
12618W        W28512   1.071   3.603   4.091  0.2001  0.3715 -0.0027
12619W        W28513   5.896   3.720   4.360 -0.2396 -0.1630  0.0825
12620W        W28514   3.654   8.368   1.456 -0.2304  0.0686 -0.1130
12621W        W28515  16.517   3.532  13.197 -0.2318 -0.3770 -0.1318
12622W        W28516   7.630   6.682  14.832  0.2511 -0.1855 -0.2613
12623W        W28517  10.875  14.950   2.336 -0.3512  0.0609  0.0643
12624W        W28518  16.777  18.632   2.114 -0.0365  0.1099 -0.0608
12625W        W28519   6.732  11.899  10.758 -0.0023  0.0086  0.3861
12626W        W28520   5.848   1.013  14.921 -0.2914 -0.2009 -0.2989
12627W        W28521   6.174   5.378  12.918  0.3830 -0.0646  0.0219
12628W        W28522  10.842  10.611  14.090 -0.0642 -0.0711 -0.0107
12629W        W28523   1.456  15.628   0.590 -0.1122  0.2422 -0.0003
12630W        W28524   3.407  15.684   1.346  0.0500  0.0829 -0.1100
12631W        W28525  17.918  18.981   0.860 -0.0587 -0.1568  0.0575
12632W        W28526   9.180  16.380   3.232  0.0302 -0.0077 -0.0484
12633W        W28527   5.405  13.676  14.442 -0.0268 -0.0685  0.0524
12634W        W28528  16.768   3.105   4.778 -0.1088 -0.1912 -0.0302
12635W        W28529   4.835  18.358  10.555 -0.2798  0.2544 -0.0874
12636W        W28530   1.825  14.996  15.059  0.2388  0.2218  0.2026
12637W        W28531   2.687  16.340   2.818  0.2355 -0.1495 -0.0587
12638W        W28532  11.733   4.912   0.807  0.1705  0.3197  0.1690
12639W        W28533   8.979  14.811  11.745  0.0854  0.1409  0.3073
12640W        W28534   2.393  17.278   0.213 -0.3417 -0.0613 -0.0103
12641W        W28535  17.273   5.481   3.952 -0.1607  0.2015  0.0073
12642W        W28536   2.303   1.887   2.667  0.1581  0.5167 -0.2108
12643W        W28537   1.216   4.835   4.389 -0.1989  0.3967  0.3054
12644W        W28538   6.321   9.663  14.085  0.1831 -0.0342  0.2106
12645W        W28539  10.372  11.312  14.194 -0.2134 -0.1102 -0.0522
12646W        W28540   1.445   8.382   1.089 -0.0915  0.0184 -0.1592
12647W        W28541  15.116   8.882  12.552 -0.1095  0.0364  0.1033
12648W        W28542  11.957   5.977   2.301 -0.0824  0.1101  0.0211
12649W        W28543  12.621   9.655   4.203  0.2559 -0.0639  0.1525
12650W        W28544  16.953  16.765   4.144 -0.1021  0.2482 -0.2791
12651W        W28545  10.324   1.680  14.809 -0.0850 -0.1552 -0.0796
12652W        W28546  12.336   6.398   0.207  0.1023  0.1225 -0.2443
12653W        W28547   8.003  12.746  14.183  0.1385 -0.2254 -0.0378
12654W        W28548   0.379  14.899  12.748  0.2815 -0.1273  0.0083
12655W        W28549  14.291   5.004  14.982 -0.2210 -0.1314 -0.0141
12656W        W28550   1.953  16.932   5.080 -0.1387 -0.4402  0.1893
12657W        W28551  16.241   3.754   2.286 -0.0375 -0.0343 -0.4970
12658W        W28552   2.146  17.224  12.476  0.0837  0.0113 -0.3504
12659W        W28553  13.583  11.452  14.867 -0.1308  0.1894 -0.1909
12660W        W28554  12.871  10.469  12.403  0.0910 -0.4258  0.4892
12661W        W28555  15.174  13.075  12.843  0.0650 -0.1624 -0.1073
12662W        W28556  13.065   2.080  12.110 -0.1567  0.0744 -0.1007
12663W        W28557  11.184   8.054   1.021  0.1678  0.0652  0.1464
12664W        W28558  12.271  13.801  13.139  0.0617 -0.2056  0.0054
12665W        W28559   0.616   5.396   4.740  0.2371 -0.2767  0.0905
12666W        W28560   4.059   7.689   9.085  0.0822  0.0452 -0.0386
12667W        W28561   7.666   9.075  11.743  0.1073 -0.0556 -0.0624
12668W        W28562  13.859  15.510   9.752 -0.4044 -0.0825  0.1842
12669W        W28563   8.669  13.583  14.473 -0.1509 -0.5372  0.0149
12670W        W28564  16.320   3.045   4.986  0.0541  0.1294  0.2561
12671W        W28565  15.154   2.380   2.650 -0.4410  0.3057  0.4719
12672W        W28566  16.704   4.271   1.873  0.0307 -0.2486  0.1485
12673W        W28567   1.282  13.222  11.466 -0.1892 -0.2517 -0.1924
12674W        W28568   2.167   3.810   2.234  0.0326  0.0691  0.1933
12675W        W28569  13.462   5.063   0.047 -0.0941 -0.0248  0.2548
12676W        W28570  17.122   9.251  13.407 -0.0630 -0.1510  0.0654
12677W        W28571  16.808  13.518   0.461  0.0156 -0.1337 -0.1961
12678W        W28572   5.051  18.583   2.203  0.2353 -0.0691  0.0838
12679W        W28573  18.545  14.567   0.317 -0.0837  0.0788 -0.0799
12680W        W28574   8.026   0.575   3.980  0.0246  0.0550 -0.1784
12681W        W28575   0.274   5.754   4.559  0.1017  0.0042 -0.2663
12682W        W28576  16.858  12.054   5.147  0.0878 -0.1011 -0.2913
12683W        W28577  19.048  16.886   4.848 -0.1920 -0.0319  0.0858
12684W        W28578  15.085   7.881  10.565  0.0509  0.3025 -0.0931
12685W        W28579   6.399   4.822  12.595  0.1987 -0.3673 -0.0050
12686W        W28580  13.214  14.360   1.664 -0.0078  0.0685  0.0271
12687W        W28581   8.875  10.216   0.035  0.0498  0.1254  0.0942
12688W        W28582  10.303   3.150   1.338 -0.2736 -0.0122  0.1465
12689W        W28583  13.028   4.106   4.691  0.0728 -0.3864  0.3001
12690W        W28584  18.267   6.315  14.208 -0.1557 -0.0634  0.0781
12691W        W28585   6.508   2.922  15.071 -0.0887 -0.2121  0.0665
12692W        W28586   0.852   4.560   3.120 -0.2184  0.0126 -0.3030
12693W        W28587   4.499   1.383  11.566  0.0722  0.0141  0.1436
12694W        W28588  13.292  14.156  11.371  0.2773 -0.0748  0.2659
12695W        W28589   4.400  15.215  13.265  0.5081 -0.1548 -0.0309
12696W        W28590   8.847   9.102   0.812 -0.1725  0.1471  0.0352
12697W        W28591  18.352  12.468   3.410 -0.0227  0.1979 -0.1861
12698W        W28592  15.414   7.678   4.665  0.0580  0.1334 -0.1516
12699W        W28593  15.050  14.225  11.531 -0.4824 -0.1938 -0.0439
12700W        W28594   0.131  13.027   0.325 -0.0413  0.0129 -0.2247
12701W        W28595  13.157  15.241   1.970  0.0702 -0.0790  0.0510
12702W        W28596  14.991  16.701  13.141 -0.2421  0.1672  0.0674
12703W        W28597  13.478   8.422  13.110  0.0332  0.0345 -0.3950
12704W        W28598  17.398  14.513   4.148 -0.0010  0.4964 -0.1674
12705W        W28599   1.966  17.086   2.773  0.0077 -0.0764 -0.2027
12706W        W28600   2.838   1.065  13.885 -0.0442 -0.3634 -0.1821
12707W        W28601   5.178   8.517   1.506 -0.5624 -0.1499  0.2460
12708W        W28602  15.800   4.033   2.103  0.0603  0.2532 -0.1121
12709W        W28603   2.291   2.500  12.592  0.1042 -0.0147  0.1034
12710W        W28604  10.474  18.750   2.657  0.0560  0.1627 -0.1540
12711W        W28605  18.003   2.356   2.184  0.2895  0.1670 -0.2818
12712W        W28606  17.487  16.570  14.086  0.1819  0.0020  0.1096
12713W        W28607  14.872   5.536   0.940 -0.1348  0.1883  0.0098
12714W        W28608  13.949   0.929   1.590  0.0438 -0.0237  0.1804
12715W        W28609  17.878  13.192  13.524  0.0620 -0.0849  0.0821
12716W        W28610   0.216  13.418   3.433  0.2325  0.1008  0.0980
12717W        W28611  16.539  17.354   5.827  0.0062 -0.4666 -0.0096
12718W        W28612  18.837   8.083   3.492 -0.0817  0.1764 -0.2101
12719W        W28613   9.757   4.741   1.595  0.2946  0.0568  0.1014
12720W        W28614   2.116  14.038  15.016 -0.2500  0.2905 -0.3625
12721W        W28615   3.382  18.250   0.313  0.0390  0.0550  0.0531
12722W        W28616  13.442  13.194  13.386 -0.0320  0.1643 -0.1819
12723W        W28617  12.494  18.031   0.344  0.1591 -0.0406 -0.2864
12724W        W28618  13.474   6.672  13.967 -0.0410  0.0434 -0.0525
12725W        W28619   8.661   1.619  11.141 -0.2507  0.1047  0.0712
12726W        W28620   7.053   6.381  13.231  0.0754 -0.1561 -0.4553
12727W        W28621   6.823  10.428   4.360 -0.0439  0.0810 -0.1375
12728W        W28622   7.328  14.682  12.845  0.2119 -0.0898 -0.0920
12729W        W28623   5.547  17.324   1.304 -0.0975 -0.0202  0.2511
12730W        W28624  10.273   9.933   4.255  0.0206 -0.0144 -0.1161
12731W        W28625   5.558  12.651  14.171  0.1185 -0.2235  0.2099
12732W        W28626   2.164   1.103   5.259  0.2317  0.1396 -0.1585
12733W        W28627   4.772   3.721   2.986  0.0770  0.1042 -0.1115
12734W        W28628   2.231  12.080  11.561  0.1347  0.0501  0.0336
12735W        W28629   9.067   5.051  15.028 -0.2849  0.1587 -0.0654
12736W        W28630   3.243  18.266   5.082  0.0080 -0.1771 -0.0491
12737W        W28631   4.028  15.240  12.383  0.0124  0.3160  0.4155
12738W        W28632  16.175   5.147  10.555  0.2534 -0.2339 -0.1773
12739W        W28633  17.588   3.568   2.431  0.0271 -0.0741 -0.2186
12740W        W28634   2.191  11.087   0.128  0.1685 -0.0683 -0.2095
12741W        W28635  12.733  11.386   0.993  0.0332  0.0921  0.1255
12742W        W28636   4.361   0.869  10.519 -0.3208  0.3023 -0.1179
12743W        W28637  11.624   0.032   0.344 -0.3115 -0.0673  0.1931
12744W        W28638  13.791   3.014  10.482 -0.2431  0.2661 -0.0929
12745W        W28639   8.866  15.865  14.349  0.1282  0.2146  0.0381
12746W        W28640   4.947   1.752  10.252 -0.2326  0.3085  0.1898
12747W        W28641  17.567  15.346  14.168 -0.2109  0.1395  0.0627
12748W        W28642   3.969   2.874   2.695 -0.2188  0.0146 -0.0104
12749W        W28643  18.461  13.227  12.448  0.1430 -0.2920  0.1891
12750W        W28644   5.301   9.340   2.269  0.0957 -0.2236 -0.0723
12751W        W28645   3.925   1.085  14.209  0.0672 -0.1632 -0.0543
12752W        W28646   1.692   3.659   3.792  0.0632 -0.0989 -0.2541
12753W        W28647   9.907  13.743   2.181  0.1552 -0.1380  0.0686
12754W        W28648  18.914   7.046  11.313 -0.2683 -0.0124  0.2397
12755W        W28649   2.654   3.748  11.668 -0.2090  0.0302  0.2018
12756W        W28650  12.313   0.487  11.741 -0.0534 -0.1302 -0.1701
12757W        W28651  17.756   7.364   2.852 -0.1368 -0.0330  0.3645
12758W        W28652  19.098   7.654   0.659  0.0369 -0.1385  0.0201
12759W        W28653   8.271  12.029   0.666  0.0213  0.4693  0.0278
12760W        W28654   2.888   6.070  12.758  0.0103 -0.2487 -0.0382
12761W        W28655   7.139  10.570  13.723 -0.2042 -0.1158  0.0447
12762W        W28656  12.822   6.381  10.461 -0.0031 -0.1732 -0.0324
12763W        W28657  14.629   6.402  12.578 -0.2063 -0.1141  0.1139
12764W        W28658   4.283   1.470   1.168  0.0192 -0.3038 -0.0387
12765W        W28659   4.736  17.975   1.760  0.1018 -0.1215 -0.0197
12766W        W28660   6.568  11.810   2.987  0.1432 -0.1795 -0.0063
12767W        W28661  16.370   1.573   4.633 -0.2341 -0.0538 -0.0717
12768W        W28662   9.723  15.868  13.578  0.3054  0.0443  0.1379
12769W        W28663  17.279  14.097   3.935 -0.1943  0.0680  0.0988
12770W        W28664   2.897   8.057   1.249 -0.0750  0.3997  0.0528
12771W        W28665  10.394   5.115   0.415  0.2109  0.0150  0.0805
12772W        W28666  18.814  14.983   1.856 -0.2199 -0.1523  0.0817
12773W        W28667  16.318  18.838   1.291 -0.1188  0.0120 -0.0089
12774W        W28668  15.392   3.365   1.671  0.0030  0.3608  0.1107
12775W        W28669  15.555  11.292  12.468 -0.0998  0.0350 -0.1801
12776W        W28670  16.004   5.035   1.396  0.2012  0.2289 -0.1013
12777W        W28671   1.869   4.036  15.062  0.0962 -0.1908  0.4131
12778W        W28672   2.680  15.410  12.805 -0.3755 -0.2228 -0.2432
12779W        W28673   0.460   9.751  13.636  0.1931  0.3703 -0.0368
12780W        W28674  18.729  12.587   2.897 -0.1650 -0.0648  0.0321
12781W        W28675  19.054  11.757  11.614  0.0591  0.2796 -0.0451
12782W        W28676  10.966   3.782   1.589 -0.1071 -0.2331  0.1583
12783W        W28677  16.712  11.769   1.879  0.3283 -0.0377  0.1134
12784W        W28678   6.103  10.961   0.082  0.0204  0.1719 -0.1342
12785W        W28679   2.676  14.967  12.606 -0.1035  0.2803 -0.1328
12786W        W28680  10.287   0.821   2.262 -0.1124  0.0360  0.1170
12787W        W28681   2.538   5.824  12.389 -0.0326 -0.1087  0.0773
12788W        W28682   9.500   5.193  12.154 -0.0065  0.1463  0.1743
12789W        W28683  10.306  10.254   2.470  0.1179  0.1794  0.0165
12790W        W28684   5.375  13.595   0.405  0.2766 -0.2147 -0.1572
12791W        W28685  15.165   9.503  12.020 -0.1408 -0.2563 -0.2812
12792W        W28686   9.886   0.878  13.514 -0.2260 -0.1120 -0.1218
12793W        W28687   8.013   4.481  13.858  0.0994  0.1368 -0.0985
12794W        W28688  17.318  11.122   0.364  0.1615  0.1473 -0.0907
12795W        W28689  10.501   1.248   5.191  0.3315  0.2129  0.2161
12796W        W28690  10.352  11.881   4.136  0.0658 -0.0434 -0.1526
12797W        W28691  14.044  11.018  14.757 -0.2303 -0.1042  0.2221
12798W        W28692  19.152   9.850  12.910 -0.2154  0.0135  0.0991
12799W        W28693   0.663   2.338   0.611 -0.2093  0.4809 -0.3486
12800W        W28694  16.176  13.594   2.212  0.2164 -0.3512 -0.1883
12801W        W28695   4.440  16.178   0.221 -0.2569  0.1017  0.0795
12802W        W28696   0.320  12.256  11.255  0.0209  0.0585  0.1761
12803W        W28697   5.456   8.725   0.456  0.4217 -0.3169  0.0696
12804W        W28698  16.544   6.390   4.448 -0.1473 -0.1610  0.0247
12805W        W28699   0.000  11.658  13.550 -0.1877  0.2099  0.1215
12806W        W28700  10.897  12.418   3.031  0.0395  0.2613 -0.1772
12807W        W28701   2.660   1.377   5.999  0.0529  0.0804 -0.0819
12808W        W28702   5.659  12.033   2.738 -0.1464 -0.0558  0.0833
12809W        W28703   6.130   8.620   2.387  0.2076 -0.1468 -0.1017
12810W        W28704   7.582  15.608   5.569  0.0433 -0.2022 -0.2278
12811W        W28705  13.522   7.197   2.332 -0.0551  0.0743 -0.2107
12812W        W28706   1.151  18.804   0.876 -0.0604  0.1944 -0.1949
12813W        W28707  14.506   7.008  13.980  0.2088 -0.2571 -0.0411
12814W        W28708   8.221  15.433   2.083 -0.0408 -0.0024  0.0738
12815W        W28709  15.030   5.149   1.892  0.0533  0.0831  0.1261
12816W        W28710  12.835   3.821  13.355  0.3846 -0.1841 -0.2447
12817W        W28711  13.635   8.309  15.031 -0.0140 -0.4630 -0.0985
12818W        W28712  18.173  15.384   1.337  0.2058 -0.1697  0.2819
12819W        W28713   2.136   8.749   1.587  0.1337  0.0903 -0.1447
12820W        W28714  19.068   1.116   5.377 -0.2311 -0.0190 -0.2272
12821W        W28715   4.443  18.632  13.997 -0.0988  0.2846 -0.0571
12822W        W28716  16.704   2.889  14.427 -0.0961  0.2606 -0.3230
12823W        W28717  11.845   2.277   1.217  0.0380 -0.2680  0.2661
12824W        W28718  10.396  15.413  12.714 -0.1969  0.0817  0.1627
12825W        W28719   0.777  15.101   4.494 -0.3018  0.1812 -0.1648
12826W        W28720  16.780   8.371  11.517  0.0349 -0.1327  0.1302
12827W        W28721   9.542  18.913   3.318 -0.2926 -0.1978 -0.3595
12828W        W28722  14.178   7.443   2.634  0.0711 -0.0598 -0.1280
12829W        W28723   0.958   7.328  12.402 -0.0888  0.0667 -0.2499
12830W        W28724  18.506   3.042   4.058 -0.0468 -0.1125 -0.0112
12831W        W28725   6.884  12.750   2.846  0.0971  0.1951  0.0152
12832W        W28726   2.028   5.598  13.473 -0.1171 -0.0572 -0.2270
12833W        W28727   4.123   3.623  10.639 -0.1612 -0.0193  0.0683
12834W        W28728   3.468   3.856  14.565 -0.2651  0.3124  0.3715
12835W        W28729   1.442   2.306   0.147  0.0771  0.0930  0.2498
12836W        W28730  15.062  12.066  13.299  0.1119  0.2122  0.0127
12837W        W28731   7.113  16.517   9.856  0.4638 -0.0914 -0.0550
12838W        W28732   5.185  13.925  10.088  0.0574  0.1257 -0.0403
12839W        W28733   5.069  14.003   2.139 -0.0282 -0.0528  0.3295
12840W        W28734  12.630   5.478  11.422  0.1566 -0.0756 -0.2976
12841W        W28735   8.563  13.453   3.279  0.3741  0.0405  0.0113
12842W        W28736  15.970  14.512  12.771  0.1214 -0.1322  0.3902
12843W        W28737  17.014   6.558  14.107 -0.1894 -0.1060 -0.0465
12844W        W28738  18.140  12.725  11.649 -0.0871  0.1514 -0.0310
12845W        W28739   6.600   7.037   2.480 -0.2077 -0.0941 -0.3553
12846W        W28740   9.907   8.637   2.836 -0.2524  0.2254 -0.0480
12847W        W28741   9.537  18.977   1.850 -0.2034  0.1237  0.2764
12848W        W28742  12.262  13.138  14.394 -0.2919 -0.0232 -0.0957
12849W        W28743   9.994   3.333   1.704  0.5236  0.2967  0.1587
12850W        W28744  11.482  16.621   2.838 -0.0194 -0.0690 -0.0652
12851W        W28745   5.571   8.262  12.904  0.1014  0.2332 -0.2039
12852W        W28746   8.384   1.303  14.650 -0.3335  0.1102  0.3072
12853W        W28747   4.805  16.736  13.266  0.0199 -0.0489  0.2150
12854W        W28748   7.575   2.707   4.305  0.0082  0.0174 -0.0836
12855W        W28749   8.219  11.056  11.167 -0.5244 -0.1390  0.0039
12856W        W28750  12.681  17.473  14.700  0.1730  0.3237  0.0614
12857W        W28751  15.497   1.853  12.014  0.0841  0.0830  0.1042
12858W        W28752  10.477  15.948  13.768  0.2998 -0.1240  0.0240
12859W        W28753   6.061   7.097   4.905  0.2694  0.2936 -0.0892
12860W        W28754   4.867  11.242   3.138 -0.1267 -0.1874 -0.0661
12861W        W28755  13.017  11.300   2.841 -0.3880  0.1918  0.0431
12862W        W28756   2.712  11.327  12.005  0.0650 -0.2531 -0.3752
12863W        W28757   2.420  16.396  12.984 -0.0327  0.0101 -0.2819
12864W        W28758   0.723  10.338   0.600  0.2028  0.3624  0.0953
12865W        W28759   9.672  12.604  12.194  0.0490  0.1815  0.0182
12866W        W28760  18.206   5.925   5.551  0.1450 -0.1406  0.0380
12867W        W28761   2.759  18.411  11.923  0.5325  0.5784 -0.0804
12868W        W28762   6.737   2.931   3.067 -0.2416  0.0149 -0.1361
12869W        W28763   4.087  17.574   4.802  0.0919 -0.2480  0.3808
12870W        W28764  14.045   5.256  12.267  0.0432  0.2311  0.0971
12871W        W28765   0.994   1.200   3.611 -0.2038 -0.0997 -0.0067
12872W        W28766  13.934  12.691   3.764 -0.0744 -0.3066 -0.3087
12873W        W28767   7.348   2.935  11.300  0.2702 -0.2682  0.0870
12874W        W28768  16.774  15.710   2.427 -0.2793 -0.2215 -0.0977
12875W        W28769  15.872   8.372  11.603  0.0560 -0.2427  0.1500
12876W        W28770  11.611  12.232   2.419 -0.5153 -0.0888  0.1391
12877W        W28771  18.222  16.470  12.615 -0.1281  0.1384  0.2507
12878W        W28772  11.913  10.986   3.612 -0.2218  0.0641 -0.2107
12879W        W28773  16.274  17.179   3.149  0.0724  0.0036  0.1132
12880W        W28774   3.417   5.994   3.702 -0.0631 -0.2245 -0.1471
12881W        W28775  10.742  17.580   5.697  0.0198  0.0249  0.2680
12882W        W28776   5.235  18.808  12.651 -0.0926  0.0777 -0.1147
12883W        W28777   3.584   1.281   2.242 -0.0811 -0.1499 -0.1415
12884W        W28778   0.555  10.049  14.742 -0.5129 -0.2004  0.0537
12885W        W28779   8.666   6.490   0.499 -0.0044  0.0191  0.0222
12886W        W28780   6.924   5.480   0.090  0.1420  0.0700 -0.1943
12887W        W28781   4.401  13.730  14.392  0.1048  0.0430  0.3947
12888W        W28782  11.807  14.689   3.957 -0.2998  0.3544  0.3041
12889W        W28783  10.612  14.302   0.595 -0.4253 -0.0709  0.0825
12890W        W28784   0.957   2.764   1.414 -0.0674  0.0865  0.0390
12891W        W28785  14.097   7.969  14.843  0.3580 -0.5205 -0.0519
12892W        W28786  18.157   5.974  15.057  0.0593 -0.1944  0.0439
12893W        W28787  10.381  12.333  15.156  0.1154 -0.2548  0.0951
12894W        W28788   8.339   7.021   1.940 -0.2452 -0.0269  0.1657
12895W        W28789   6.660   2.021  10.820  0.2201 -0.1482  0.0998
12896W        W28790  17.613  14.523   2.653  0.1979  0.0881 -0.1570
12897W        W28791   4.993   4.343  11.592 -0.0790  0.2853 -0.0675
12898W        W28792   3.021  15.906  13.485  0.0822  0.0126  0.1527
12899W        W28793  15.605  18.889  11.240  0.0417  0.3915  0.0641
12900W        W28794   5.808   4.449   3.993 -0.1516  0.0462 -0.0090
12901W        W28795  18.104   9.069   2.417 -0.1332  0.1664  0.1402
12902W        W28796   6.961   2.496  13.719  0.1777 -0.1382 -0.0380
12903W        W28797  16.772  13.482  10.433  0.0046 -0.3661  0.0673
12904W        W28798  10.287  11.406  10.841 -0.1189  0.3584 -0.0208
12905W        W28799   3.745   3.691   3.708  0.1945 -0.0860  0.0432
12906W        W28800   1.845  16.664  12.908 -0.0522 -0.0896 -0.1028
12907W        W28801   4.654   6.785   3.875  0.1254 -0.2478 -0.0611
12908W        W28802   1.001  10.095   9.822 -0.1463 -0.2122 -0.0970
12909W        W28803   6.419  16.946  14.964  0.0757 -0.0888  0.0727
12910W        W28804  15.792   8.593  14.892 -0.0148  0.0984  0.1035
12911W        W28805  15.045  10.334   5.001 -0.2564  0.1526 -0.1621
12912W        W28806  17.108  15.789  11.863  0.0767 -0.0613 -0.2743
12913W        W28807   4.189  16.527  12.782 -0.0162 -0.3504 -0.0039
12914W        W28808  17.475  17.793   4.878 -0.1652 -0.0168 -0.0819
12915W        W28809  10.162  14.540  13.952 -0.0893  0.1438  0.1094
12916W        W28810   2.010  12.430  10.679  0.0629 -0.0093 -0.0683
12917W        W28811   9.038   6.057   5.678 -0.4298 -0.1242  0.4921
12918W        W28812   2.408   7.530   3.569  0.0529 -0.1112  0.4239
12919W        W28813   1.526  19.082   3.473 -0.3634  0.1048  0.2578
12920W        W28814  13.376   9.665  12.549  0.0510  0.1210  0.0411
12921W        W28815  11.716   9.399  11.678 -0.4305 -0.1577 -0.2427
12922W        W28816   3.862   1.761   4.287  0.2608 -0.1067  0.1462
12923W        W28817   0.772   5.480   1.501  0.1768  0.1035 -0.1874
12924W        W28818   2.878  13.574   2.916 -0.1883  0.1942  0.0634
12925W        W28819   2.621   0.589  12.773 -0.1211 -0.1800  0.1886
12926W        W28820   7.019  17.845   3.274 -0.2394  0.0643 -0.1023
12927W        W28821  12.102  16.346  14.124  0.0290 -0.0361  0.1740
12928W        W28822   1.542  17.497   2.075  0.0202 -0.2857 -0.1873
12929W        W28823   9.717   1.389  11.377  0.1324 -0.3632 -0.0353
12930W        W28824   0.770  16.338  15.093  0.2749  0.0895 -0.2223
12931W        W28825   4.229  17.395  11.021 -0.0798 -0.0326  0.1831
12932W        W28826   9.248   4.376   2.453 -0.1689  0.1676 -0.5997
12933W        W28827   2.929   9.587  13.759  0.2367 -0.1901 -0.1374
12934W        W28828   0.250  19.176  13.981  0.0183 -0.0420 -0.1496
12935W        W28829   6.613   6.347  13.575 -0.1563 -0.4004  0.1644
12936W        W28830   7.710  18.557  11.716 -0.1284 -0.2638 -0.2602
12937W        W28831  17.655  15.884   5.437 -0.0138 -0.1620 -0.0950
12938W        W28832   0.034   2.322  13.384 -0.2791 -0.1620  0.0937
12939W        W28833  14.520  18.106  14.111  0.0364  0.3206  0.1066
12940W        W28834  16.941  10.135  12.202 -0.4456  0.0380 -0.0092
12941W        W28835   4.242  16.403   3.392  0.2554  0.0951  0.0284
12942W        W28836   7.356  17.626   1.114 -0.0356  0.1452 -0.1368
12943W        W28837   7.281   8.879   1.054  0.2077 -0.1632  0.1200
12944W        W28838  14.706   9.341  14.035 -0.0133  0.3168 -0.1503
12945W        W28839  12.419   9.710  14.388 -0.2977  0.3460 -0.0849
12946W        W28840   0.417   8.023  11.865  0.1962 -0.0108  0.0833
12947W        W28841  17.648  11.583   9.299 -0.3057 -0.0106 -0.3190
12948W        W28842  10.293   7.467   2.572  0.1329  0.1050 -0.1666
12949W        W28843  17.023   0.685   1.487 -0.3857  0.0955  0.2114
12950W        W28844  13.710  11.844   3.376  0.1616  0.2356 -0.0397
12951W        W28845  13.206   1.130   1.565 -0.0647 -0.3028  0.1503
12952W        W28846  16.494   7.183   5.452  0.3382  0.1647 -0.0156
12953W        W28847   8.514  11.503   2.310  0.0223  0.1169 -0.0556
12954W        W28848   3.986   7.829   9.652 -0.0834 -0.0202  0.1683
12955W        W28849   2.896  12.395  13.526 -0.1893  0.2228 -0.1520
12956W        W28850  17.352  17.588   2.142  0.2878 -0.2333 -0.1989
12957W        W28851  18.873   9.168  14.301  0.3448 -0.0088  0.0089
12958W        W28852   1.013  13.720  10.249  0.1043 -0.1165 -0.1738
12959W        W28853   1.816   7.048  12.213 -0.1737  0.2953 -0.0752
12960W        W28854  15.968   4.120  13.678 -0.1297  0.0456  0.1908
12961W        W28855   6.899   8.725  11.311  0.0907 -0.0108 -0.2918
12962W        W28856   4.624  13.729   2.166 -0.1572 -0.0491 -0.0713
12963W        W28857   2.864  10.994   3.191  0.0492 -0.1746 -0.5466
12964W        W28858  10.569  18.471  13.327  0.2290 -0.0350 -0.0621
12965W        W28859   4.607   4.020  10.655  0.4200 -0.1254  0.1245
12966W        W28860   5.117   8.138   1.961 -0.1342 -0.1027 -0.1583
12967W        W28861   3.860  14.853  13.438  0.1760 -0.2293 -0.0293
12968W        W28862   7.994  10.598   2.287 -0.1685  0.0222 -0.2832
12969W        W28863   3.898   2.080  11.281 -0.3784  0.1503 -0.0322
12970W        W28864   5.472  11.823   3.533  0.2663  0.0920  0.2844
12971W        W28865  12.603  10.996  12.168 -0.0690 -0.2834  0.0794
12972W        W28866  16.787   6.506  11.309  0.4361  0.0700 -0.0596
12973W        W28867  13.163  11.745   2.457  0.1150 -0.2234  0.1412
12974W        W28868  14.154  10.855   5.086  0.3132  0.2689  0.1201
12975W        W28869   8.688  17.669  13.113  0.3083 -0.1716  0.2073
12976W        W28870   9.713   8.183   2.282 -0.2353 -0.0791  0.1065
12977W        W28871   3.398   0.125  13.312  0.2815 -0.5235 -0.2913
12978W        W28872  17.618   7.327   6.114  0.3750  0.2076  0.1411
12979W        W28873   3.375   2.112  13.412  0.0420 -0.1886  0.1441
12980W        W28874  15.891  10.113   2.971  0.0855  0.1449  0.2622
12981W        W28875   0.794   4.789  11.134  0.2167  0.2481  0.4198
12982W        W28876   9.391  12.976  12.978  0.0019 -0.0222  0.0063
12983W        W28877  10.231   3.457   4.452 -0.0800 -0.2316  0.0192
12984W        W28878  12.766  11.514  12.068 -0.1720  0.3020  0.2346
12985W        W28879   3.496  13.113   5.003  0.0060 -0.5382 -0.0892
12986W        W28880  19.113   4.540  12.697 -0.2686 -0.1061  0.0413
12987W        W28881  11.685   9.038  12.463  0.0399  0.3364 -0.0682
12988W        W28882  15.243   9.154   5.632 -0.3298 -0.1572 -0.1637
12989W        W28883   2.324   9.291  13.872 -0.1128 -0.1334  0.0993
12990W        W28884   5.727   3.280   9.943 -0.1596 -0.2025 -0.0135
12991W        W28885   1.578  14.817   2.421  0.0278 -0.2754  0.1517
12992W        W28886  17.313   3.392   4.693 -0.1620 -0.1380 -0.0817
12993W        W28887   9.106   6.303   3.791  0.0045  0.0149  0.1690
12994W        W28888  17.694  11.728  10.743 -0.0824  0.2812 -0.0556
12995W        W28889   5.940  14.441   5.201  0.1338 -0.2177 -0.0630
12996W        W28890  11.653   6.706   4.870 -0.3493  0.1286  0.2155
12997W        W28891  14.229  11.432  10.359 -0.0940  0.1419 -0.0989
12998W        W28892   3.522  13.312   0.557  0.2642 -0.0046 -0.1703
12999W        W28893  16.064   9.243   4.347 -0.1202  0.0526 -0.0118
13000W        W28894  11.216   1.518  10.764  0.0044  0.1797  0.1855
13001W        W28895  13.387  18.495  13.061 -0.3343  0.1584 -0.0877
13002W        W28896  16.534   3.885  14.813 -0.1188 -0.2852 -0.0132
13003W        W28897   0.535   8.654   3.871  0.0659 -0.0755 -0.1500
13004W        W28898  13.373   2.030   2.780  0.3171 -0.2442  0.3024
13005W        W28899   7.016  11.725  13.267 -0.1144  0.0740  0.1971
13006W        W28900  17.119   0.895  11.337  0.0425  0.2110  0.3734
13007W        W28901  17.220   9.310   1.972 -0.1075  0.3224  0.0146
13008W        W28902  13.413   3.358   4.419  0.0401 -0.2072 -0.0083
13009W        W28903  11.014   9.268  13.294 -0.1714 -0.1819 -0.0287
13010W        W28904   1.751  17.997   4.986  0.1837  0.1000  0.1986
13011W        W28905  11.112   1.440   3.142 -0.3432  0.2250  0.2569
13012W        W28906  10.609  12.812   5.052  0.1423 -0.0996  0.0286
13013W        W28907   3.060   4.846  12.266 -0.1092  0.0498  0.1104
13014W        W28908   0.703   7.480   1.256  0.0984  0.0014  0.1804
13015W        W28909  10.737   7.249   2.347 -0.4248 -0.1936 -0.1475
13016W        W28910   7.006   5.814   2.727 -0.1206  0.2289  0.3746
13017W        W28911   3.624   7.005  15.172 -0.2071 -0.1127  0.2354
13018W        W28912   4.208   5.231   2.321 -0.1907 -0.1646  0.0213
13019W        W28913   6.071   9.367  12.718 -0.2425  0.0354  0.1491
13020W        W28914  15.282  10.783  14.863 -0.1594 -0.3413  0.1095
13021W        W28915  14.504  14.025  10.728 -0.0287 -0.0385  0.0273
13022W        W28916  18.998   0.607   2.800 -0.1390 -0.1768  0.0405
13023W        W28917   2.909   1.493   4.285 -0.2900  0.2072 -0.2106
13024W        W28918  14.465  17.354   3.781  0.1346 -0.0862 -0.1054
13025W        W28919   5.305   2.128  13.438 -0.2555 -0.2070 -0.1309
13026W        W28920   3.591   5.361  13.283  0.1039 -0.0145 -0.1105
13027W        W28921  15.631  17.958  14.316  0.3619  0.1877 -0.0200
13028W        W28922   4.104  11.043  14.530 -0.1133 -0.1241  0.0795
13029W        W28923   8.299   9.447   1.603 -0.0831  0.0102 -0.2962
13030W        W28924  11.136   6.611  11.467 -0.2971  0.2821 -0.2922
13031W        W28925   4.281  10.203   0.637  0.2016 -0.1287  0.3503
13032W        W28926   4.385  13.882  11.289 -0.0202  0.0508  0.0632
13033W        W28927  16.372  13.760  13.071 -0.0138 -0.0374 -0.1077
13034W        W28928   8.008   6.674   4.818  0.3440 -0.1200  0.2866
13035W        W28929  15.749   6.759   3.683 -0.0285 -0.4793 -0.0683
13036W        W28930  10.165  14.178   0.858 -0.0188  0.3371 -0.0188
13037W        W28931  19.149   4.853   1.558 -0.1343 -0.2740  0.0987
13038W        W28932   5.352   6.755  14.405 -0.1136  0.1603 -0.1074
13039W        W28933   8.629  14.484  10.126 -0.0917  0.0453 -0.2336
13040W        W28934   4.269   2.008   3.705 -0.0419 -0.1996  0.2201
13041W        W28935  10.862   1.922  13.737 -0.5106  0.1703 -0.0992
13042W        W28936   7.019   9.613   2.103 -0.0215 -0.0719  0.3215
13043W        W28937  16.778  19.122   3.542  0.1705 -0.3512  0.0238
13044W        W28938   1.739  12.684   5.508 -0.0670 -0.0203 -0.0479
13045W        W28939   4.490  12.196   1.509 -0.1627 -0.2965  0.1123
13046W        W28940  17.146  16.351   0.974 -0.1823  0.0454  0.2426
13047W        W28941  11.875   1.349  11.982  0.1068  0.0736 -0.2512
13048W        W28942  16.939   8.731  12.741  0.1916 -0.1085 -0.0847
13049W        W28943   1.665   5.683   4.202  0.2235 -0.2898  0.1200
13050W        W28944  15.124  11.156   2.726  0.1334  0.4039  0.1950
13051W        W28945  16.279   7.930   1.499 -0.1231  0.0993  0.1590
13052W        W28946   2.913   5.467  14.568 -0.2104 -0.3068 -0.0047
13053W        W28947   4.332  10.915  10.535  0.2037 -0.1111 -0.0013
13054W        W28948   3.601   5.440  12.760 -0.2212  0.1965  0.2988
13055W        W28949   4.262   0.289  14.829 -0.0844 -0.0354 -0.1070
13056W        W28950   4.841   9.785  13.862  0.1265  0.1761  0.0893
13057W        W28951   6.815   4.559  13.851 -0.0457  0.3344 -0.2145
13058W        W28952  10.887   4.107  11.832  0.2340  0.0087 -0.0407
13059W        W28953   9.423   0.937  11.706 -0.0702 -0.0718  0.0709
13060W        W28954   3.054  16.321   4.459  0.3291 -0.2706 -0.3320
13061W        W28955  12.562   6.284   3.001  0.0390  0.0041 -0.0160
13062W        W28956   4.941  11.237  11.393 -0.0277  0.1565 -0.0417
13063W        W28957  17.213   0.955  11.836 -0.1237 -0.0340 -0.0385
13064W        W28958   0.169   7.295  12.036 -0.0188  0.2443 -0.1645
13065W        W28959   3.859   8.474  12.441  0.2618  0.0565  0.3734
13066W        W28960  13.157  11.819   3.443  0.3691  0.3178 -0.0323
13067W        W28961   9.253   9.307   3.755  0.2884  0.3042 -0.3929
13068W        W28962   8.987   2.025  11.214  0.3523  0.1278 -0.1540
13069W        W28963   4.097   2.383   1.670  0.0939 -0.0223 -0.0336
13070W        W28964  17.451  11.018   1.623  0.1835  0.1593 -0.0062
13071W        W28965  18.535  12.766   2.438  0.0748 -0.1138  0.0280
13072W        W28966  16.830  14.562  11.646  0.0828 -0.1371  0.1335
13073W        W28967  15.900   8.851   1.934 -0.1968 -0.1933 -0.0718
13074W        W28968  19.089   8.133  10.583 -0.0470  0.1479  0.4220
13075W        W28969   6.218   2.889  11.074  0.0061 -0.2827 -0.1328
13076W        W28970  13.225   3.335   0.142 -0.1477  0.0747 -0.0649
13077W        W28971  10.533   9.387   3.322  0.0310  0.0024 -0.1535
13078W        W28972   1.210  16.695   0.245 -0.0140  0.0004 -0.1831
13079W        W28973   1.612   1.840   4.390  0.0197 -0.1427  0.1279
13080W        W28974   2.065   6.854  11.348 -0.1840 -0.1611  0.0926
13081W        W28975  16.267   9.019   4.748  0.2651  0.0015 -0.2328
13082W        W28976  15.423   8.363   1.374  0.3110  0.1628  0.3277
13083W        W28977  18.411  18.739   5.092  0.2596  0.0221 -0.0251
13084W        W28978  16.269  17.064  11.710 -0.0442 -0.0870  0.4952
13085W        W28979   5.810  18.799   1.462  0.0568  0.0712  0.0197
13086W        W28980  17.940   0.689  12.064 -0.1338  0.1761 -0.2436
13087W        W28981  14.588   7.008   3.378  0.1701 -0.0580  0.1854
13088W        W28982  17.782  10.695  10.294  0.2192 -0.0662  0.1706
13089W        W28983   8.988  12.272   2.727 -0.1770  0.2064 -0.2108
13090W        W28984  13.187   2.910  13.961 -0.0595 -0.1761  0.1653
13091W        W28985   6.765   2.355  11.948  0.1657 -0.1307  0.1672
13092W        W28986  12.467  12.806   0.676 -0.2698 -0.6217 -0.0770
13093W        W28987  11.478   7.198  12.437  0.3736  0.0308 -0.3090
13094W        W28988   4.380   5.320   0.542 -0.0419  0.1500  0.0885
13095W        W28989  15.662   3.385  12.758  0.0830 -0.2692 -0.1851
13096W        W28990   5.268   4.822  12.724  0.3983  0.3042 -0.0686
13097W        W28991   7.725   9.250  11.144  0.2489  0.0768  0.2672
13098W        W28992  12.074  11.338  10.806 -0.1652  0.0826 -0.1980
13099W        W28993  19.169   3.824   5.561  0.2618  0.1689 -0.2116
13100W        W28994   5.941   4.017  11.094  0.0618 -0.0571 -0.2254
13101W        W28995   4.067   5.244  10.504 -0.1436 -0.2078 -0.0063
13102W        W28996  10.163   1.309   3.630  0.4543  0.3029  0.1550
13103W        W28997   8.187   0.075   1.511  0.2560  0.2107 -0.0581
13104W        W28998  16.147  10.435   2.615 -0.1126  0.3680 -0.1006
13105W        W28999  10.335  13.394   2.241  0.0243  0.0193  0.0566
13106W        W29000   4.784  12.034  13.866 -0.1628 -0.1665  0.1507
13107W        W29001   2.331   0.283   5.725 -0.2929 -0.0909  0.1925
13108W        W29002   1.478   7.519  14.122  0.2057 -0.0646  0.2881
13109W        W29003   8.138  11.875  12.803 -0.0684  0.0405 -0.0938
13110W        W29004   1.240  17.710   1.642  0.0994  0.0008  0.0380
13111W        W29005   3.773  14.848  14.439 -0.3563  0.2654  0.0316
13112W        W29006   6.713   9.202   4.812 -0.0302 -0.1597 -0.2092
13113W        W29007   5.638   1.302  10.848  0.0236 -0.1221  0.0063
13114W        W29008   1.132  14.917  13.473  0.0471  0.1376  0.3303
13115W        W29009   5.231   9.036  10.774 -0.1470 -0.0052  0.0835
13116W        W29010  10.090   1.796  13.688 -0.1029  0.1744 -0.1210
13117W        W29011  11.954  18.041  14.781 -0.0979  0.2214 -0.2960
13118W        W29012   6.711  10.497  14.042 -0.2446 -0.3195 -0.3422
13119W        W29013   3.931   5.163  12.326  0.1387 -0.1908 -0.0059
13120W        W29014  17.348  10.846  12.272  0.1541  0.0161 -0.0911
13121W        W29015   6.136   2.047  10.663 -0.1974 -0.2097  0.1818
13122W        W29016  14.993   3.887   0.959 -0.0195 -0.0209  0.3261
13123W        W29017  15.179   0.028  11.471 -0.1299  0.2406  0.4013
13124W        W29018   1.058  12.347   0.455  0.0230 -0.0601 -0.2524
13125W        W29019   2.016  13.754  13.300 -0.0738 -0.2959  0.1124
13126W        W29020  11.483   6.773   1.926  0.1962  0.0214  0.3505
13127W        W29021  17.202  16.124  11.515  0.2461  0.0191  0.1453
13128W        W29022  17.190   5.720   0.555 -0.1314  0.1779 -0.1204
13129W        W29023   8.421  10.336   1.196  0.0267 -0.2836  0.0457
13130W        W29024   1.879   5.099  13.721 -0.2392 -0.0398  0.0459
13131W        W29025   0.124  10.398   0.800  0.1584  0.1210  0.2878
13132W        W29026   5.719   3.283  14.703 -0.0847 -0.0971 -0.0622
13133W        W29027  17.175   6.694   3.805 -0.1481  0.1145 -0.1974
13134W        W29028  10.047   5.835  13.311 -0.0825 -0.2731  0.2973
13135W        W29029  13.800  14.364  10.726 -0.2499  0.1323  0.0438
13136W        W29030  11.421  13.351   3.263 -0.2938  0.2874  0.0801
13137W        W29031   7.455  11.132  14.152  0.1931  0.1284 -0.2063
13138W        W29032   1.492  17.588   2.671  0.4696 -0.0414 -0.0865
13139W        W29033  13.130   9.313   3.454  0.3345  0.0988  0.1194
13140W        W29034  12.472   3.838   0.471 -0.0476 -0.1009 -0.2611
13141W        W29035   7.441   2.330  10.925  0.1066  0.1123  0.0961
13142W        W29036  10.145   7.532   0.975  0.0929  0.2151 -0.2356
13143W        W29037   7.158  11.755   3.047 -0.3508 -0.1340 -0.0767
13144W        W29038   6.317   7.998   3.604  0.5242 -0.0932  0.2370
13145W        W29039  18.397   6.348  14.778  0.2812  0.1316  0.3927
13146W        W29040   0.223   2.914   3.904  0.1743  0.1567  0.5813
13147W        W29041  15.712   3.353  11.357  0.0304 -0.0633 -0.1492
13148W        W29042   7.453   2.496   3.493 -0.1443 -0.0091 -0.0528
13149W        W29043   5.107  18.444   4.345  0.0229 -0.0119 -0.0035
13150W        W29044   8.680  13.053   3.699  0.0595 -0.0690 -0.0039
13151W        W29045   9.952  16.018   0.511 -0.4004 -0.4347 -0.2209
13152W        W29046  17.574  10.147   1.887 -0.1965  0.0075 -0.0147
13153W        W29047   5.396  11.598  10.923 -0.2159 -0.1776  0.0319
13154W        W29048   4.416   6.400  14.507 -0.0588 -0.0723 -0.3582
13155W        W29049  18.307   4.818   1.690  0.0211 -0.0998  0.1812
13156W        W29050  11.875   7.340  12.806 -0.1680 -0.1376  0.1642
13157W        W29051   5.829   0.343  10.452 -0.0786 -0.0371  0.3851
13158W        W29052   4.574   1.649  12.492 -0.5915 -0.1842 -0.1059
13159W        W29053   5.329   2.347  14.866  0.2039 -0.0285 -0.2553
13160W        W29054  13.752  14.360  11.213  0.1010  0.1948  0.0494
13161W        W29055  18.734   9.584   1.133  0.0196  0.2017 -0.0899
13162W        W29056   3.675  13.100  13.472 -0.2042  0.0148  0.0945
13163W        W29057  13.421   3.270   0.620 -0.3870  0.1848 -0.1282
13164W        W29058  14.898  14.068   3.392 -0.0158  0.0666  0.0492
13165W        W29059   2.025  15.753   1.190 -0.0517  0.0930  0.1651
13166W        W29060   8.270  13.141   4.724 -0.1786 -0.0250  0.0477
13167W        W29061  15.258  11.374   2.320  0.3177  0.0274  0.1843
13168W        W29062  17.016  14.873  10.758  0.0228  0.1172  0.3240
13169W        W29063   4.590  10.066   0.977 -0.1073  0.2754  0.4016
13170W        W29064  17.137   5.947   1.265 -0.0448  0.1084 -0.4302
13171W        W29065  13.088   8.634   5.665 -0.1226 -0.0665  0.4358
13172W        W29066  17.841   9.463   5.534 -0.2455 -0.3118  0.1763
13173W        W29067  14.650  17.065   0.756 -0.2032  0.0949  0.1131
13174W        W29068  12.106  14.219   1.924 -0.1256 -0.1482  0.1556
13175W        W29069  18.824   6.727   0.751 -0.0346  0.0048  0.0797
13176W        W29070  18.065  15.176  11.801 -0.5142  0.0659 -0.1237
13177W        W29071  10.131   3.595   3.929 -0.0696 -0.0636  0.1205
13178W        W29072  12.663  13.834  14.975 -0.1006 -0.1594  0.0427
13179W        W29073  14.386  11.426  11.991  0.2394  0.0888  0.1762
13180W        W29074   0.775  14.679  14.231  0.5421  0.0584 -0.1996
13181W        W29075  18.761   4.874  13.830 -0.1373 -0.1530  0.1311
13182W        W29076  13.933  14.306   3.266 -0.0184  0.1346  0.1622
13183W        W29077   5.953  13.683   0.476  0.0870 -0.1343 -0.1091
13184W        W29078   7.621   1.852  13.332  0.0513  0.1763  0.3025
13185W        W29079  11.608   3.195   2.900  0.1574  0.0956 -0.1188
13186W        W29080  19.097  12.048  12.056 -0.1171  0.1634  0.1139
13187W        W29081  14.069   9.966  11.832 -0.1968  0.1094 -0.1463
13188W        W29082   2.942   9.528  10.860  0.0446 -0.1338 -0.2502
13189W        W29083  18.654   7.320  14.104  0.3015  0.0961 -0.0814
13190W        W29084  16.160   8.130  13.728  0.3218 -0.2660  0.1879
13191W        W29085   7.348   7.582   3.088  0.4381  0.1299 -0.0415
13192W        W29086   2.322  10.017   2.442 -0.0223  0.1075 -0.0934
13193W        W29087   0.536  13.230   5.006  0.3285 -0.1753 -0.1383
13194W        W29088   2.443  12.823   4.984 -0.1120  0.0457  0.1736
13195W        W29089  18.798   6.630   1.715  0.1830 -0.0071  0.1957
13196W        W29090  12.790  15.710   2.046  0.3013  0.1411  0.0604
13197W        W29091   2.509   7.675  12.037 -0.0604 -0.1135 -0.0115
13198W        W29092   1.046  10.012  14.850  0.0996 -0.3733  0.0567
13199W        W29093   9.289   2.528  11.225 -0.0650  0.1188  0.3095
13200W        W29094  14.533   4.890   3.110 -0.0644 -0.0154  0.2056
13201W        W29095   3.392   9.174  13.003 -0.1249  0.1087  0.3717
13202W        W29096   4.518   3.420  12.835 -0.0439  0.0214  0.2418
13203W        W29097  14.333  16.797   3.831  0.2492  0.0176  0.6265
13204W        W29098  10.088   9.557   4.653  0.2853 -0.3565  0.1196
13205W        W29099   8.980  12.420  11.102  0.2207  0.0111  0.1852
13206W        W29100  14.897  15.025  10.577  0.5988  0.2681 -0.1918
13207W        W29101  17.640  16.419   3.656  0.0365  0.3221  0.3819
13208W        W29102   9.849   4.003  14.156  0.0274 -0.0069  0.0243
13209W        W29103   8.858   9.465   4.068 -0.1839 -0.0218  0.1502
13210W        W29104  13.085   5.010  12.217  0.0475 -0.2624 -0.1237
13211W        W29105   5.602   0.820   1.133 -0.1386  0.2495  0.0290
13212W        W29106  16.703   0.195  12.320 -0.0393 -0.0489  0.0459
13213W        W29107  12.003   8.266   2.833 -0.0650 -0.0686 -0.1373
13214W        W29108   7.824   9.017  14.144  0.3547 -0.0101  0.0369
13215W        W29109  16.422   1.631   3.687 -0.0551 -0.0332  0.2828
13216W        W29110   1.005   4.586   0.450  0.0979  0.3847 -0.3577
13217W        W29111  10.655   1.427  10.822  0.1361 -0.2116  0.2517
13218W        W29112   8.518  16.199   4.112  0.1754 -0.0423  0.2515
13219W        W29113   3.482   9.218  14.452  0.2410 -0.0785 -0.0339
13220W        W29114  16.359   5.931  13.456  0.4482  0.0360  0.2341
13221W        W29115   8.821  18.563  14.129  0.1846 -0.1006  0.0876
13222W        W29116   7.085   4.663   1.855 -0.0424 -0.0709  0.2203
13223W        W29117   1.778   1.327   2.108  0.0963  0.0035  0.0961
13224W        W29118  14.399   5.514   6.130 -0.1090 -0.4088  0.1394
13225W        W29119  19.152   0.129  14.944 -0.1419  0.0593  0.0351
13226W        W29120  17.146   5.012   2.396  0.0129  0.2800 -0.0462
13227W        W29121  10.870  18.353  14.844  0.1876  0.0383  0.0959
13228W        W29122   9.797  10.862  12.598 -0.0733  0.1416 -0.0080
13229W        W29123  18.161   0.655   5.450  0.3844  0.1551 -0.0072
13230W        W29124   0.729   0.113  14.186  0.3898  0.1678 -0.2133
13231W        W29125   7.082  16.320   0.067 -0.4825  0.0558  0.5260
13232W        W29126  18.328   8.841  10.527 -0.2567 -0.2934  0.3059
13233W        W29127  10.388  12.851  10.838  0.0499 -0.2193  0.1073
13234W        W29128   8.764   2.521  11.199 -0.2940 -0.3034  0.1043
13235W        W29129  13.293  17.783   3.081 -0.0873 -0.2663 -0.1454
13236W        W29130   6.392   7.652   2.643  0.3746  0.1217  0.1076
13237W        W29131   4.196  18.781   0.049 -0.0285 -0.0149  0.1054
13238W        W29132   5.439   4.707  10.813 -0.0676 -0.1245 -0.1641
13239W        W29133  11.539   9.861  13.748  0.1045  0.0169  0.1166
13240W        W29134   3.320   6.256  11.594 -0.0845  0.0692 -0.1280
13241W        W29135  17.675  13.574   0.870 -0.0601  0.0475  0.1351
13242W        W29136  12.143   6.337  12.177 -0.0486 -0.0140  0.0326
13243W        W29137  18.569   7.241   4.004  0.0543 -0.0777  0.0337
13244W        W29138   7.175   8.935  11.712 -0.0104 -0.3866  0.1268
13245W        W29139  16.223  18.448   4.753 -0.2258 -0.1718  0.0589
13246W        W29140   7.253   7.961  11.672  0.1952 -0.1441 -0.0787
13247W        W29141   4.547  13.419  13.923  0.4151 -0.0771  0.2048
13248W        W29142   8.109   5.765  13.128 -0.1899 -0.0865 -0.3087
13249W        W29143   5.919   9.877   0.769 -0.0323 -0.0778 -0.0834
13250W        W29144   4.393   5.562  13.146 -0.1187 -0.2100  0.4060
13251W        W29145   9.914   3.030   5.017  0.3112  0.2633  0.0883
13252W        W29146   9.252   3.339   1.075  0.0661 -0.1455  0.0415
13253W        W29147   5.707   6.332  11.681 -0.2149 -0.0183 -0.2430
13254W        W29148  11.223  13.633   2.271  0.2801  0.0869 -0.2712
13255W        W29149  17.685  17.264   0.271  0.0446  0.0449 -0.1842
13256W        W29150   3.861   2.134  14.337  0.2344 -0.0631  0.0288
13257W        W29151  13.405   1.417  14.210 -0.1283 -0.0223 -0.0551
13258W        W29152  11.049   6.436   1.701 -0.2683  0.0544  0.0239
13259W        W29153  10.823  10.186   0.507 -0.0191  0.0467 -0.1507
13260W        W29154  13.608  11.835  14.374  0.0145 -0.1722  0.0079
13261W        W29155   7.689   1.212   3.245  0.1172 -0.1346  0.1003
13262W        W29156   3.396   4.231  11.583 -0.1161  0.0418  0.0123
13263W        W29157  12.562   3.930   1.385 -0.5063  0.5188 -0.1954
13264W        W29158   3.689  15.725   9.952 -0.2125 -0.1434 -0.2185
13265W        W29159  11.918   4.754  12.019  0.0465 -0.3553  0.2739
13266W        W29160   4.981  11.151   2.550 -0.1676  0.0126  0.2669
13267W        W29161  16.462  17.511  14.122 -0.0330  0.0011 -0.0700
13268W        W29162   3.373   5.393   0.881 -0.3224  0.0570 -0.0893
13269W        W29163   4.276  13.583   0.351  0.1817  0.0908 -0.1601
13270W        W29164  18.204  16.513  14.634  0.1675 -0.0836 -0.1096
13271W        W29165   2.001   6.137   2.302  0.0887  0.0583  0.3328
13272W        W29166   6.422  17.600  10.776 -0.0589 -0.0475  0.4496
13273W        W29167   0.546   8.073   2.956 -0.0135 -0.1563 -0.1119
13274W        W29168   9.779  10.228  10.912 -0.2730 -0.2310  0.2957
13275W        W29169   7.391   0.590   2.958  0.2177 -0.0919  0.0095
13276W        W29170   1.399  17.049  15.139 -0.1129  0.2348  0.1145
13277W        W29171   0.826   5.108   5.501  0.4134 -0.0640  0.0764
13278W        W29172   3.824  18.208   0.021 -0.0527  0.1001  0.1369
13279W        W29173   6.663  16.614  12.468  0.2411 -0.4604 -0.0151
13280W        W29174  13.353  13.428   1.810  0.2889 -0.0846 -0.1599
13281W        W29175  15.700  17.458  14.566  0.1017 -0.1578  0.2105
13282W        W29176  16.320   2.374  10.870 -0.1251 -0.0421  0.0711
13283W        W29177  10.740   2.429   3.934 -0.3128 -0.0625  0.0335
13284W        W29178   8.215  16.570  14.302 -0.2696  0.1381  0.0252
13285W        W29179  18.623   8.243  11.089  0.1485  0.2766  0.0853
13286W        W29180  17.626   3.291   5.448  0.3142  0.1092  0.1685
13287W        W29181  14.783   9.215   4.781 -0.0892  0.0837 -0.2641
13288W        W29182  16.674   3.419  14.738  0.0257  0.1482  0.3600
13289W        W29183  14.328   0.613   1.616 -0.1677  0.1483  0.1548
13290W        W29184  15.288   6.500   3.673  0.1877  0.2218 -0.0909
13291W        W29185  11.970  12.228  10.253 -0.1019 -0.1524 -0.3043
13292W        W29186  12.504   3.567  12.723  0.0629 -0.0920  0.2981
13293W        W29187   4.218   1.933   1.077  0.0513  0.1386 -0.0909
13294W        W29188  12.813   5.290   5.801  0.0052  0.0776  0.0733
13295W        W29189  10.212   1.627   5.425 -0.0967  0.0364 -0.2114
13296W        W29190  11.475   6.984   3.042 -0.1586  0.0235  0.2444
13297W        W29191  13.971  12.724   2.140  0.0633 -0.4400 -0.1257
13298W        W29192  16.289   3.061   0.524 -0.1615  0.0245  0.1146
13299W        W29193   2.159   4.604   4.949 -0.0269 -0.1490  0.1893
13300W        W29194   8.096   4.045  10.605  0.0206  0.1106 -0.1549
13301W        W29195  15.321  12.012   5.482 -0.1752  0.4054 -0.2151
13302W        W29196   8.792   3.954  14.498  0.2311  0.0004  0.1514
13303W        W29197   0.931   1.565  14.707  0.0877 -0.0523  0.1392
13304W        W29198   1.285  11.821  12.463 -0.2480  0.1628 -0.3015
13305W        W29199  18.642   0.133  13.487 -0.3587 -0.0463  0.1399
13306W        W29200   5.827  18.110  11.185 -0.1228  0.0789  0.0989
13307W        W29201   2.896   2.555   5.169 -0.5534 -0.0421 -0.0049
13308W        W29202   9.246   4.759  11.400  0.0210  0.0787  0.1639
13309W        W29203   7.151   5.227   1.898 -0.0450  0.4000  0.1499
13310W        W29204   5.792  13.328  12.854 -0.1304 -0.3199 -0.0319
13311W        W29205  16.463   4.239   4.004 -0.3275  0.1298 -0.2063
13312W        W29206   1.238   1.601   4.689 -0.1603 -0.0473 -0.0907
13313W        W29207  18.454   1.090  14.098 -0.0005 -0.0525 -0.2514
13314W        W29208   8.200   4.989   2.041  0.2661  0.0031 -0.0174
13315W        W29209   3.707  13.346   4.556  0.3260  0.3348 -0.0985
13316W        W29210   3.817  11.888   2.488  0.1470 -0.1790 -0.3519
13317W        W29211   6.025   8.963  12.456 -0.0445  0.2487  0.3164
13318W        W29212   4.543   0.593   9.884  0.0952  0.0679  0.1182
13319W        W29213  14.223   7.610  12.190 -0.0343  0.0219  0.0650
13320W        W29214   2.803  18.641  13.817 -0.0014 -0.0183  0.1191
13321W        W29215  15.929   4.765   4.089  0.1589 -0.1859 -0.3074
13322W        W29216  18.132  17.827  12.510  0.0289 -0.1633  0.4387
13323W        W29217   4.233   4.258  14.954 -0.1576 -0.1190 -0.0042
13324W        W29218   4.036   4.327  12.014 -0.3101 -0.2983 -0.0898
13325W        W29219  11.059   5.367   0.549  0.2634  0.0581 -0.0214
13326W        W29220   3.694   7.999   0.642  0.1133  0.0165  0.0803
13327W        W29221   5.557  17.838   3.621 -0.2458 -0.6695  0.1019
13328W        W29222   0.851   5.347  11.948 -0.3393  0.0362  0.0963
13329W        W29223  11.712  13.003  13.082  0.1756 -0.1623 -0.1162
13330W        W29224  13.755  15.124  12.831  0.1881 -0.1453  0.1373
13331W        W29225   5.696   0.228   5.100 -0.1423  0.2203  0.1081
13332W        W29226   7.921   1.385  13.909  0.0361 -0.1038 -0.0997
13333W        W29227   2.500   3.980  10.599  0.3268  0.2581 -0.0609
13334W        W29228  16.180  14.306  14.802 -0.3782 -0.3274 -0.1340
13335W        W29229   5.770  16.332   4.839  0.0068  0.0140 -0.0275
13336W        W29230   8.475   7.869  12.973  0.3012 -0.0397 -0.0714
13337W        W29231   0.484   2.296  14.361 -0.0919  0.0357 -0.0143
13338W        W29232  16.523  16.341  14.006 -0.2230  0.2656  0.0798
13339W        W29233  10.090  15.748   1.410  0.0158  0.1678  0.0669
13340W        W29234   6.287  17.450   0.489 -0.1719  0.1774 -0.4474
13341W        W29235  14.801  14.555  11.951 -0.0571  0.4240  0.0830
13342W        W29236  18.508  12.756   4.545  0.0257  0.2731  0.1143
13343W        W29237   2.708   8.774  14.701 -0.0655 -0.0687  0.1268
13344W        W29238  19.115  18.970   2.525  0.1957  0.2012  0.0579
13345W        W29239   6.295   3.231  14.737  0.1469 -0.1785  0.1348
13346W        W29240  16.229   6.022   2.109 -0.0900  0.1380  0.1514
13347W        W29241  11.642   7.829   1.623 -0.1607 -0.0718 -0.0692
13348W        W29242  14.463   2.315  10.649  0.0826  0.3384  0.3776
13349W        W29243   8.389   4.758  13.043  0.1375  0.0914  0.0789
13350W        W29244  13.871   8.948  12.657  0.1662  0.1262 -0.0154
13351W        W29245   4.038   6.382  14.149  0.0256 -0.1286  0.0140
13352W        W29246   0.266   9.193   1.691  0.2366  0.1170 -0.2524
13353W        W29247   5.279   8.083   2.722 -0.0163  0.0297  0.1976
13354W        W29248  14.944   3.285   2.947  0.2949  0.1074 -0.3191
13355W        W29249   0.535  10.703  13.479  0.2065 -0.2104  0.0041
13356W        W29250   9.998   9.347  13.140  0.1678  0.2199  0.2426
13357W        W29251   8.038  14.798  13.531 -0.1299 -0.2207  0.2588
13358W        W29252  12.453   4.476   5.476  0.0845  0.0404  0.1027
13359W        W29253   3.525  17.460   2.398  0.2862 -0.2333  0.0599
13360W        W29254   1.693  12.832  14.144  0.1255 -0.4470  0.2100
13361W        W29255  10.885   2.233   4.470  0.2081  0.2395 -0.0861
13362W        W29256   6.177  17.223  14.583 -0.2910 -0.1377 -0.0827
13363W        W29257   2.393  13.934  10.510 -0.0890  0.1630 -0.1335
13364W        W29258   3.296   3.777   4.767 -0.0549  0.3272 -0.2988
13365W        W29259   7.450  15.143   8.988 -0.1043  0.0982 -0.1054
13366W        W29260  15.334   5.851   1.159 -0.0732 -0.0265  0.0433
13367W        W29261   5.691   6.221   4.495 -0.0243  0.1395 -0.0314
13368W        W29262   6.728  18.036  10.666 -0.0091 -0.0065 -0.1111
13369W        W29263  18.453   1.317  14.630 -0.1905  0.2048  0.2541
13370W        W29264   6.821   1.811   2.629  0.0052  0.0342  0.1268
13371W        W29265   6.432   5.966  13.833 -0.2185  0.1339 -0.2318
13372W        W29266   5.616   2.281  11.248  0.2508  0.2288 -0.0721
13373W        W29267   7.354   3.689   3.608  0.2473  0.1062  0.0425
13374W        W29268   1.507   5.829   0.439 -0.2629 -0.0330 -0.3974
13375W        W29269   6.808   8.810  10.304 -0.0407 -0.1826 -0.0268
13376W        W29270   8.105   1.175  11.291  0.1465  0.1672  0.2755
13377W        W29271   8.640  13.914  11.804  0.0379 -0.1937  0.0164
13378W        W29272  17.804  17.916  14.539  0.2774  0.0347 -0.1506
13379W        W29273   2.695   3.510   3.663  0.0042  0.0231 -0.0985
13380W        W29274   4.546  16.011   3.292 -0.2022  0.3589  0.4340
13381W        W29275  17.043   2.551  14.238 -0.1939  0.3042 -0.1201
13382W        W29276  18.904  18.096  15.077  0.0652 -0.1757 -0.0267
13383W        W29277   9.809   7.112   3.843  0.1673  0.0917 -0.0766
13384W        W29278   6.477   9.740   1.514  0.0840 -0.2203 -0.3805
13385W        W29279   6.315  10.795   3.453  0.0839 -0.0631  0.0681
13386W        W29280   9.809  14.823  13.821 -0.1240 -0.0755  0.3215
13387W        W29281   8.007   5.506  12.031  0.1595  0.2391  0.1525
13388W        W29282  12.932  11.506   2.022  0.0050  0.0552 -0.4389
13389W        W29283   0.795  17.733  14.007  0.0719  0.0824  0.3586
13390W        W29284   4.325   8.974  14.168 -0.2889  0.1341  0.0268
13391W        W29285  16.165  13.472  13.533  0.1257  0.0521  0.0297
13392W        W29286   1.164   7.587   3.257  0.2110 -0.2466  0.1675
13393W        W29287   3.185   2.283  10.745 -0.1639  0.1530 -0.1525
13394W        W29288  18.931   3.989  11.477 -0.1530  0.0437  0.2669
13395W        W29289   5.040   9.908  14.622 -0.2072 -0.0257 -0.0126
13396W        W29290  15.115  11.661  13.997 -0.1165 -0.3133 -0.3763
13397W        W29291   8.497   7.142   4.096 -0.2177  0.1796  0.0104
13398W        W29292  12.534   2.014   3.335  0.0706 -0.0244  0.0482
13399W        W29293   2.100  16.393  12.521  0.1143 -0.0920 -0.3212
13400W        W29294   4.596   3.397   3.399 -0.0946 -0.0532  0.2449
13401W        W29295  10.074  14.621   2.695  0.2395  0.3179  0.2056
13402W        W29296   1.301   9.878   3.427 -0.0059  0.1115  0.0870
13403W        W29297   8.091  18.813  13.759  0.0538 -0.1393  0.0386
13404W        W29298   5.087  10.936   4.145  0.4536  0.3283  0.0838
13405W        W29299  10.910   6.159  11.278 -0.4026 -0.1398 -0.1444
13406W        W29300  14.669   4.426   2.446 -0.3975 -0.0524 -0.0929
13407W        W29301  12.219   5.456   2.031  0.3354 -0.0606 -0.0284
13408W        W29302  18.157   9.191   4.345  0.1328  0.0457  0.0538
13409W        W29303  19.051   5.454   4.389  0.2773 -0.1708  0.2626
13410W        W29304  15.788   9.977  11.256  0.1540  0.1355 -0.3538
13411W        W29305  16.232  15.750   5.397 -0.0649 -0.0554 -0.2833
13412W        W29306   9.728   3.322   2.728 -0.3987 -0.3099 -0.0855
13413W        W29307   0.805  18.427  11.297  0.2372 -0.1757 -0.0197
13414W        W29308   3.482  15.737  11.617  0.2969  0.0339  0.1980
13415W        W29309  17.598  15.317   0.174  0.1635  0.3448  0.0881
13416W        W29310   8.455  12.759  14.623  0.2211 -0.0163 -0.5002
13417W        W29311   1.249  10.790   5.166  0.4677 -0.2755  0.0436
13418W        W29312  11.978   3.622  12.699  0.3973  0.3011 -0.0970
13419W        W29313   6.781  16.683  15.148 -0.3743 -0.2000 -0.1841
13420W        W29314  17.397  12.130   2.363 -0.2076 -0.1640  0.0534
13421W        W29315   3.687   3.276  10.960 -0.0808 -0.1975  0.3077
13422W        W29316   1.492  18.617  12.501  0.0269  0.3946 -0.1175
13423W        W29317  13.822   4.804   1.442  0.2348 -0.0285  0.1374
13424W        W29318   8.177   0.747  12.528  0.2358 -0.1927 -0.1530
13425W        W29319  17.387   1.531   4.414 -0.0397 -0.0408 -0.0533
13426W        W29320   7.953   9.906  14.329  0.0258  0.0373  0.0217
13427W        W29321  14.932  13.894   4.401 -0.0776 -0.0499  0.2968
13428W        W29322  15.861   9.548   0.824  0.0062  0.1966 -0.3011
13429W        W29323   0.832  12.130   1.280 -0.1905  0.1059 -0.4037
13430W        W29324  12.266  16.993   3.302  0.1082  0.0646  0.1547
13431W        W29325   8.282   6.967  11.885 -0.0781  0.3164 -0.1418
13432W        W29326   9.761   1.375   0.580 -0.2079 -0.1779 -0.1643
13433W        W29327   3.551  16.182  14.233 -0.1886  0.0752 -0.3518
13434W        W29328   8.071   6.576   1.608  0.3898 -0.5125  0.1770
13435W        W29329   4.080  18.076  11.668  0.1226 -0.0771 -0.0418
13436W        W29330  18.113   3.932   1.949 -0.2257 -0.2432  0.2126
13437W        W29331  17.942  13.866   0.572  0.0126  0.2146  0.0287
13438W        W29332  10.066  10.921  14.128  0.2136  0.2365  0.0758
13439W        W29333  17.366  16.903   0.363 -0.3829  0.0978 -0.0607
13440W        W29334  14.201   5.894  14.517 -0.1987  0.3718  0.2930
13441W        W29335   9.735  14.084   1.124 -0.0468  0.0908  0.0763
13442W        W29336  13.465   5.982  11.912  0.0139  0.1683 -0.2835
13443W        W29337  12.933  12.909  10.948 -0.1705  0.0902  0.0363
13444W        W29338  12.686   3.372   3.814 -0.0721 -0.2644 -0.0892
13445W        W29339  10.193  12.508  12.587  0.1001  0.1251 -0.2811
13446W        W29340  14.415  18.526  12.888  0.0315  0.1305 -0.1037
13447W        W29341   8.027   9.385   1.021  0.0444 -0.0287  0.2940
13448W        W29342   1.731  12.217  11.571  0.2145  0.0562 -0.0396
13449W        W29343   0.633   2.376   2.668 -0.2263 -0.3027  0.2380
13450W        W29344  15.950  15.387  12.521  0.0655 -0.0573  0.1102
13451W        W29345   3.960  15.831   2.556 -0.1240  0.1819 -0.1670
13452W        W29346  15.102  12.382  12.450  0.4056  0.0231  0.0174
13453W        W29347  10.568   0.929   3.005 -0.2265 -0.3206 -0.0297
13454W        W29348  18.109   7.985   1.620 -0.0564  0.0363 -0.1551
13455W        W29349   9.000   8.807   0.076  0.0816 -0.0109 -0.3755
13456W        W29350   3.786  13.550   0.210 -0.1266  0.5855  0.3042
13457W        W29351  10.132   7.209   3.000  0.1294 -0.1141  0.2302
13458W        W29352  13.789  10.002   3.715 -0.1986  0.3554 -0.3895
13459W        W29353  10.158  10.616   5.510  0.1282 -0.1110  0.0036
13460W        W29354  11.390  10.023   5.671  0.5492 -0.1943  0.0107
13461W        W29355   7.698   0.543  14.821  0.1610 -0.1525  0.0237
13462W        W29356   2.286  16.841  13.222  0.2689 -0.3223  0.0201
13463W        W29357   0.683  17.366   3.005  0.0505  0.1489  0.1848
13464W        W29358  18.695   9.583  13.138 -0.2292  0.1646  0.1411
13465W        W29359   5.363  10.705   0.799 -0.1992 -0.0763  0.1597
13466W        W29360   4.485  12.089   3.515 -0.0229  0.0866  0.0758
13467W        W29361  10.789  11.513  10.684 -0.2068 -0.0208  0.0713
13468W        W29362   0.429  11.784  11.450 -0.0608 -0.0162  0.3814
13469W        W29363  16.516  16.746   1.778  0.2452 -0.0670  0.2119
13470W        W29364  10.851  12.680   1.730 -0.1880 -0.0210  0.0882
13471W        W29365   4.436  13.169   4.454  0.0118  0.2780  0.0072
13472W        W29366   5.586  13.037   2.467 -0.1779  0.0290  0.2204
13473W        W29367  14.151  17.147  13.320  0.0271 -0.3208 -0.0552
13474W        W29368  11.649   5.476  14.738 -0.2068  0.0399 -0.0990
13475W        W29369   0.133  16.210  15.159 -0.3504 -0.0846 -0.0166
13476W        W29370  18.145  16.909  12.868  0.4462 -0.3203  0.1241
13477W        W29371   0.816  11.834   0.154 -0.0497  0.4013  0.4159
13478W        W29372  13.322  16.653   2.423 -0.1609  0.2199 -0.1378
13479W        W29373   2.877   4.362   3.154  0.0823 -0.0066 -0.3628
13480W        W29374  18.427  18.287  14.842  0.1456  0.3712 -0.0217
13481W        W29375  18.355   8.032   3.357 -0.1234 -0.2646 -0.1250
13482W        W29376  15.884   4.632   0.702  0.1316  0.1926  0.2115
13483W        W29377  14.469  19.029   1.073 -0.0362  0.0978 -0.0048
13484W        W29378   2.532  10.832   1.750 -0.0494  0.1529  0.1144
13485W        W29379   9.156   5.544  13.770  0.2766  0.1617 -0.2559
13486W        W29380  16.312  12.721  15.150  0.0432 -0.3826  0.0705
13487W        W29381  12.822  12.294  13.924 -0.0898  0.0154 -0.0820
13488W        W29382   4.453  10.857  14.775 -0.1207 -0.1094 -0.0028
13489W        W29383   8.373  11.628  12.401 -0.0716 -0.2359 -0.1378
13490W        W29384  16.100   2.776   4.628  0.0377  0.0466  0.0858
13491W        W29385  13.862  17.144  13.930  0.0888 -0.2008 -0.4614
13492W        W29386   3.674   8.389   2.775  0.0860 -0.0696  0.1195
13493W        W29387  15.316   7.647   5.504  0.1764 -0.1571 -0.0970
13494W        W29388  17.659   7.922  14.739 -0.1124 -0.0617 -0.6765
13495W        W29389  15.303  17.438  11.507 -0.2663  0.1034 -0.4404
13496W        W29390   9.768   6.135   6.022 -0.2596  0.3040  0.0516
13497W        W29391   9.116  16.300  13.928 -0.3383 -0.1348 -0.0237
13498W        W29392  12.036   0.000   4.766 -0.0138  0.2748 -0.0913
13499W        W29393  11.716  18.404   4.273 -0.3790  0.2092 -0.0559
13500W        W29394  10.452  18.166   4.291 -0.1574 -0.2712  0.1325
13501W        W29395  16.144  13.337   1.186 -0.0888 -0.1314  0.2081
13502W        W29396   9.385   1.537   3.114  0.0321 -0.0791  0.4669
13503W        W29397   3.022   3.458   3.179  0.3671  0.0037  0.0769
13504W        W29398   6.084  16.890  14.193  0.0402 -0.0124  0.0435
13505W        W29399   0.187  16.565   0.320  0.0329 -0.1982  0.0257
13506W        W29400   4.499   5.468   0.974  0.0049  0.0217 -0.3408
13507W        W29401   4.050  10.865   3.166 -0.0647 -0.5171 -0.0611
13508W        W29402   9.683  13.199   1.087 -0.0960  0.0740 -0.0219
13509W        W29403   1.980  10.491   3.025 -0.1731 -0.2624 -0.1763
13510W        W29404  11.656  15.021   0.736 -0.4336 -0.0310  0.0569
13511W        W29405   1.694  18.407   4.730  0.0611 -0.2915  0.1613
13512W        W29406  10.843  17.424   5.167 -0.0629  0.1856 -0.4800
13513W        W29407  11.437  14.673   2.354 -0.0748 -0.1914  0.0003
13514W        W29408   9.712   3.305  14.713 -0.1092 -0.0453  0.4816
13515W        W29409   8.590  12.627  10.890 -0.2959  0.1753  0.6143
13516W        W29410   0.153   6.710  15.072  0.0506  0.3679 -0.1579
13517W        W29411  16.009   1.773  15.008 -0.0381 -0.1040  0.1836
13518W        W29412   8.696  16.907  11.979 -0.1667  0.0198 -0.0736
13519W        W29413  15.716   8.872   4.623  0.0178 -0.2489  0.0121
13520W        W29414  15.276   8.154   4.716 -0.0879  0.4819 -0.0456
13521W        W29415  15.484   7.490   1.061 -0.2715 -0.2923  0.2678
13522W        W29416  14.161   4.531   2.966 -0.1305 -0.0796 -0.2074
13523W        W29417  17.054   6.272   4.716  0.4471  0.2071  0.2374
13524W        W29418   4.649  13.982  12.825 -0.0594  0.0434  0.2253
13525W        W29419  10.769  16.155   4.881  0.2389  0.1328  0.4797
13526W        W29420  18.522  10.539   4.281 -0.0012  0.2664  0.2475
13527W        W29421   7.833   0.164   0.024  0.0620  0.0848 -0.1882
13528W        W29422  16.646  15.060  11.957 -0.4712 -0.0118 -0.0045
13529W        W29423   6.918   6.327   5.441 -0.1836 -0.0087 -0.1397
13530W        W29424   3.572  18.357  12.331  0.4081 -0.0488 -0.0603
13531W        W29425   5.640  10.669  12.424  0.0195  0.5634 -0.2982
13532W        W29426  15.641   1.673   0.251  0.0826 -0.2376 -0.1694
13533W        W29427   3.398   7.062   2.635  0.2338  0.2791  0.0378
13534W        W29428  12.087  14.047   0.959 -0.1284 -0.0476 -0.0807
13535W        W29429  10.247  16.976  11.568  0.0179  0.1469  0.0273
13536W        W29430   0.485   5.323   2.046  0.1933  0.3329 -0.1910
13537W        W29431   0.049   7.068  10.480 -0.0763 -0.4925  0.1014
13538W        W29432  12.184   0.244   3.395 -0.3394  0.0676 -0.2740
13539W        W29433   1.862   9.774  14.394 -0.2360  0.0681  0.0357
13540W        W29434   1.423   1.405   0.242 -0.2487 -0.0006 -0.2322
13541W        W29435  15.228  17.491  10.456 -0.0124  0.2800  0.4002
13542W        W29436   5.856  15.247  15.024 -0.5230  0.4034  0.2360
13543W        W29437   2.634  15.077   2.393 -0.1137 -0.0444  0.1146
13544W        W29438  13.819   5.791  13.917 -0.1394 -0.1897 -0.0864
13545W        W29439  14.477  16.043   2.479 -0.0863 -0.0369 -0.0516
13546W        W29440   8.009  15.622   1.273  0.0650 -0.1131 -0.1448
13547W        W29441   7.301  12.787   0.921 -0.2360 -0.2230 -0.0345
13548W        W29442  10.977   7.348   4.522  0.2316  0.3170 -0.1448
13549W        W29443   8.354   9.543   2.902 -0.2472  0.1103 -0.0652
13550W        W29444   5.384  12.248   1.948  0.1306  0.1598  0.1465
13551W        W29445  17.475   0.971  12.947  0.2201  0.1472  0.1876
13552W        W29446   1.735   8.413   2.650 -0.0219  0.0829  0.0931
13553W        W29447   8.336   9.581   4.235  0.0516  0.1000  0.3879
13554W        W29448   2.016  11.555   1.002 -0.1732 -0.0634 -0.1564
13555W        W29449  16.563   0.692   2.500  0.1036  0.0740 -0.3858
13556W        W29450  16.064   9.933  12.719 -0.5521  0.0434  0.3755
13557W        W29451   9.730   6.544  10.841  0.1351 -0.1108 -0.2638
13558W        W29452  15.231   5.692   0.290 -0.0558  0.1987 -0.0711
13559W        W29453   2.607   8.825   0.615  0.0235  0.1252  0.1162
13560W        W29454   8.914   5.702  11.182  0.3805  0.0187  0.4363
13561W        W29455  12.514  15.247  12.385 -0.2684  0.0034  0.0082
13562W        W29456  11.217  16.591  10.371  0.1636  0.0935 -0.1677
13563W        W29457  12.330  11.812  12.868 -0.0561 -0.0682 -0.2363
13564W        W29458  13.005  13.801   3.971  0.0122 -0.2674 -0.3368
13565W        W29459  15.027   0.571   2.829 -0.0248  0.3784 -0.2281
13566W        W29460   8.090  16.291   1.378  0.1198 -0.0485 -0.0230
13567W        W29461   3.834   6.054   0.027 -0.1995  0.3275  0.0361
13568W        W29462   9.210   4.491   0.146  0.0391 -0.0956  0.3971
13569W        W29463   1.142   8.421   3.641  0.2854  0.0941  0.5035
13570W        W29464   4.754   0.919  15.059  0.1690  0.2777 -0.0824
13571W        W29465   4.327   7.822  14.456 -0.0602  0.4436  0.2143
13572W        W29466  10.905   1.886   3.227  0.0193  0.1433 -0.0796
13573W        W29467  11.335   2.919   9.858 -0.1307 -0.0597  0.0272
13574W        W29468  18.397   3.608   4.187  0.1942 -0.0113  0.0715
13575W        W29469   2.209   4.224  12.809  0.0414  0.0909 -0.0418
13576W        W29470   6.776  13.293  12.939  0.2026 -0.2566 -0.2479
13577W        W29471   9.917   9.077   0.331 -0.0377 -0.2457 -0.1874
13578W        W29472  18.798  15.520  11.505 -0.2419  0.2018 -0.3011
13579W        W29473   5.308  18.835  14.333  0.2682  0.0175 -0.1174
13580W        W29474  10.591   8.244  10.533 -0.2999 -0.1585  0.2060
13581W        W29475   8.536  16.742  12.675  0.2663 -0.0141  0.1344
13582W        W29476   1.183   5.549  11.605 -0.0478 -0.2503 -0.0892
13583W        W29477  17.402   0.079  14.141 -0.3793 -0.2299 -0.2022
13584W        W29478   5.604  17.040   4.431  0.2715  0.2072  0.0027
13585W        W29479  16.239   9.044  14.731 -0.0338 -0.2014  0.1316
13586W        W29480  19.102  10.447  11.061 -0.2148 -0.3351 -0.3638
13587W        W29481  12.485   9.224  14.885 -0.2414  0.0210 -0.0891
13588W        W29482   4.260   3.410  11.894 -0.0632 -0.3120  0.2982
13589W        W29483   9.569  16.744  13.806 -0.0875  0.0165  0.1637
13590W        W29484   6.179  10.320   0.865 -0.1641  0.3046  0.5255
13591W        W29485  10.573   3.600   3.636  0.0980 -0.0496  0.1011
13592W        W29486   5.740  16.390  12.289 -0.1010  0.2160 -0.1149
13593W        W29487   7.908  18.212  11.372 -0.3020  0.0174 -0.0642
13594W        W29488   9.781  14.314  12.119 -0.0923 -0.0507 -0.0770
13595W        W29489   3.141   2.665  15.125 -0.0023  0.0632  0.0044
13596W        W29490   0.536   3.481  12.963 -0.2164 -0.0936  0.3133
13597W        W29491  18.392  14.244  10.846  0.2406  0.0348  0.0410
13598W        W29492  12.821  14.836   4.571  0.0868  0.0530  0.2351
13599W        W29493   1.159   0.671  12.066 -0.0357 -0.2401  0.3580
13600W        W29494  13.907   3.870  14.782  0.3388  0.2719 -0.1062
13601W        W29495  12.965   3.406   0.853 -0.1241 -0.2135  0.1843
13602W        W29496   5.427   7.049   1.593  0.0451  0.3735  0.3587
13603W        W29497  18.318   6.217  13.019 -0.0103 -0.0747 -0.3406
13604W        W29498   5.725  16.000  12.616  0.0108  0.4224  0.2160
13605W        W29499  17.974   5.926   4.487 -0.1890 -0.0963 -0.1830
13606W        W29500   7.993  15.122  12.326 -0.1070 -0.1781 -0.1426
13607W        W29501   9.189  10.425  13.999  0.1287 -0.4896 -0.0146
13608W        W29502   9.940  17.477   5.361 -0.1058  0.1593 -0.0049
13609W        W29503   1.507   5.393  14.658  0.1792 -0.0313  0.2229
13610W        W29504   7.382  16.402  10.554  0.4169  0.2359 -0.0279
13611W        W29505  18.894  14.983   0.185 -0.2372 -0.1218 -0.4624
13612W        W29506   5.861  13.726  13.554 -0.3224  0.2084  0.1211
13613W        W29507   0.772   9.335  12.925  0.2953  0.0123 -0.0442
13614W        W29508   2.163   0.013   2.117 -0.2267 -0.0870  0.0877
13615W        W29509   9.414   0.963   3.042  0.1515  0.0878  0.4638
13616W        W29510   1.969  14.876   3.853  0.0443 -0.1424  0.4981
13617W        W29511   0.085   2.431  10.599  0.0866  0.2315  0.1010
13618W        W29512   8.020  16.916  14.689  0.1441 -0.0394 -0.1574
13619W        W29513   1.015  11.351   3.142  0.0268  0.0912  0.1586
13620W        W29514   0.406   2.796  14.009 -0.2169  0.0916  0.2233
13621W        W29515  15.379   2.533   1.127  0.0670  0.0473 -0.1920
13622W        W29516  12.691   3.427   0.088 -0.2793  0.0022 -0.0838
13623W        W29517  18.452  13.588  12.850  0.0343 -0.0809  0.2729
13624W        W29518  17.071   3.899   0.900 -0.2829  0.1854 -0.0805
13625W        W29519  13.302   0.382   1.170  0.2592 -0.2863 -0.2388
13626W        W29520   9.937  16.525  10.371 -0.2204 -0.0136 -0.0430
13627W        W29521  16.148   9.485   5.574 -0.1104  0.3721  0.0676
13628W        W29522   7.107  15.714  11.203 -0.2391 -0.0765 -0.0801
13629W        W29523  18.615   1.119   4.091  0.0659  0.0657 -0.0958
13630W        W29524   7.789  15.888   1.608  0.1918  0.0130 -0.0505
13631W        W29525   6.228   1.542  15.124 -0.1239 -0.0039 -0.1389
13632W        W29526   7.045   1.420  10.789  0.1090 -0.0952 -0.0369
13633W        W29527  13.719   4.154  13.765  0.1089  0.0771 -0.1520
13634W        W29528   3.153   6.546  11.950 -0.0926  0.1019  0.2587
13635W        W29529   7.974  12.926   0.224  0.1182  0.0120 -0.4217
13636W        W29530  10.030   9.478  12.457 -0.1007  0.0934  0.1396
13637W        W29531  12.902  18.945  12.915 -0.1220  0.0147 -0.1370
13638W        W29532  16.423  17.105   4.927 -0.0567 -0.5265  0.0688
13639W        W29533  11.181  12.928  11.663 -0.0393  0.2180  0.1004
13640W        W29534   9.267  16.508   0.987 -0.1416 -0.0364  0.0815
13641W        W29535   3.689  15.027  10.626  0.3255 -0.0854  0.1153
13642W        W29536   3.141   4.972   0.656  0.1563  0.1012 -0.0490
13643W        W29537   5.910   7.300   1.004 -0.1172 -0.2546  0.1939
13644W        W29538  12.565   2.002  12.985  0.2518  0.0035 -0.0157
13645W        W29539   6.260   4.824   2.098  0.3874  0.1067  0.3760
13646W        W29540  11.842   8.320   3.808  0.0934  0.1165  0.0658
13647W        W29541  18.745  10.824   0.417  0.0565  0.0390 -0.1883
13648W        W29542  13.923   8.824  10.918 -0.2148  0.1693  0.0568
13649W        W29543  10.287   2.064   3.078  0.1476  0.2382  0.0482
13650W        W29544  15.069   1.753   1.504  0.0603 -0.2094 -0.0651
13651W        W29545  15.737  13.302  10.318  0.0416  0.0413 -0.1607
13652W        W29546   2.937  15.311  12.345 -0.1798  0.0680 -0.1689
13653W        W29547   5.029   3.513   0.696  0.0033 -0.0204  0.1092
13654W        W29548  12.947   3.745   0.502  0.1601 -0.1185  0.0891
13655W        W29549  18.899  10.798  12.543 -0.1062 -0.2045 -0.1762
13656W        W29550   0.593  12.301   2.203  0.0594  0.2302  0.1682
13657W        W29551  17.621  11.604   2.112 -0.0797  0.3745  0.1661
13658W        W29552  14.086  16.313   4.086 -0.3269 -0.1821  0.1015
13659W        W29553  13.136   4.787   0.798 -0.0534 -0.4055  0.0613
13660W        W29554   8.956  11.787  13.744 -0.1351  0.2386 -0.0706
13661W        W29555  16.050  13.916   0.086  0.1532 -0.1308 -0.0912
13662W        W29556   0.343   4.928  12.976 -0.2707  0.1429 -0.0007
13663W        W29557  16.245  18.251   1.903 -0.0284 -0.2570  0.0187
13664W        W29558  10.917   6.323   2.787  0.1821 -0.2643 -0.0131
13665W        W29559   4.787   8.832  10.902  0.0888  0.0135 -0.0416
13666W        W29560  10.857  13.640  14.920  0.0012 -0.0543 -0.0561
13667W        W29561  17.472   6.779  14.153  0.2509 -0.0294  0.0959
13668W        W29562  18.671   2.413  10.315  0.0651 -0.5375  0.1039
13669W        W29563  12.701   8.750   3.814  0.0043  0.0467  0.1052
13670W        W29564  12.443  17.147  15.037 -0.2090  0.0484 -0.1187
13671W        W29565  16.503   4.124   3.203  0.2571 -0.3786  0.0053
13672W        W29566   0.214   3.811  12.537  0.0086 -0.0638  0.0839
13673W        W29567  13.264  12.387  12.647 -0.1390  0.4400  0.1770
13674W        W29568  15.196  17.498   0.153 -0.0754  0.0655 -0.1860
13675W        W29569  12.207   3.870  10.688 -0.0404 -0.1499  0.3218
13676W        W29570   8.715  12.658   1.277 -0.2636  0.0427  0.1335
13677W        W29571   8.990  12.927   0.295  0.3920 -0.2565 -0.0407
13678W        W29572  14.978  16.429  14.048  0.4617  0.0652 -0.0855
13679W        W29573   7.044  12.489   0.253  0.1676 -0.2565  0.1423
13680W        W29574  11.337  18.242   3.742  0.0776 -0.0633 -0.0391
13681W        W29575   0.094   9.886  11.448 -0.0131  0.1003 -0.1335
13682W        W29576  15.426   4.739   3.641  0.4533  0.0560  0.3696
13683W        W29577  17.957   9.466   2.779  0.4735 -0.2980  0.1767
13684W        W29578  17.236  11.293  12.607 -0.3402  0.0568 -0.2770
13685W        W29579   2.461  16.982  13.763 -0.2032  0.3170 -0.0440
13686W        W29580  11.767  15.997  13.902  0.2847 -0.0674 -0.3296
13687W        W29581   7.993  17.497   4.211 -0.1635  0.5548  0.2188
13688W        W29582  14.720  12.163  12.211  0.1216  0.0502  0.0171
13689W        W29583  17.365  13.219   3.899  0.1053  0.0139  0.4010
13690W        W29584   6.695   5.151  11.488  0.0018 -0.0200  0.4204
13691W        W29585   2.224  10.149   4.322 -0.0561  0.3187  0.0657
13692W        W29586   7.007   0.332   2.541  0.3863 -0.3179 -0.4479
13693W        W29587   4.396   6.543   1.511 -0.0016 -0.2410 -0.0291
13694W        W29588  11.191  11.582  11.065 -0.3718 -0.0858  0.0209
13695W        W29589   1.641  13.259  13.874  0.1102 -0.0566 -0.2106
13696W        W29590  12.261   0.403   5.232 -0.0465 -0.2879  0.2352
13697W        W29591  10.705  17.786   2.246  0.0616  0.2289  0.0608
13698W        W29592   6.118  11.948   3.180 -0.0193 -0.2313  0.2766
13699W        W29593   8.311   7.734  12.477 -0.1042  0.1642  0.2087
13700W        W29594   1.939   2.757   2.454  0.3419  0.0639 -0.0250
13701W        W29595  11.899   3.483  14.818 -0.1893 -0.2050 -0.0168
13702W        W29596   0.090  18.536  12.272 -0.2005  0.1953 -0.0012
13703W        W29597   8.417  15.889  14.018  0.1960 -0.1331 -0.1807
13704W        W29598  16.107   0.725   0.813  0.1556  0.0769 -0.0521
13705W        W29599  17.479  18.697   0.197  0.3154  0.0014  0.0369
13706W        W29600   2.633  19.089  15.173  0.0501  0.1999 -0.2956
13707W        W29601  13.809  11.642   1.630  0.0964  0.2173 -0.0634
13708W        W29602  14.368  15.789  15.170 -0.3122  0.0423 -0.0405
13709W        W29603   1.963  12.019  11.123  0.1196 -0.0664  0.0511
13710W        W29604   8.368   4.652   0.446  0.2746 -0.0562  0.0544
13711W        W29605   4.849   6.643   3.414  0.4861 -0.1485  0.1095
13712W        W29606  12.767  18.176   4.389 -0.0049  0.2071 -0.4524
13713W        W29607  11.652   2.079  14.899 -0.0497  0.2265 -0.3192
13714W        W29608   6.358  10.512   5.513  0.1195 -0.1219  0.0470
13715W        W29609  13.180   5.793   0.645 -0.2800  0.0325 -0.2728
13716W        W29610  18.996  18.438  14.157 -0.1219  0.2046  0.4201
13717W        W29611   8.617  12.198   1.354 -0.1286 -0.0022  0.2450
13718W        W29612  18.851   1.722  13.008  0.2073 -0.1309  0.1853
13719W        W29613   3.044   7.223   4.580  0.0839  0.0156 -0.0257
13720W        W29614  15.459   9.132  12.325  0.2566  0.0521 -0.1427
13721W        W29615  15.517   3.965  11.004 -0.4289 -0.0708 -0.2473
13722W        W29616   2.581   9.894   4.205 -0.2379 -0.0769 -0.0943
13723W        W29617   2.227  13.722  12.112 -0.0030 -0.4046 -0.1081
13724W        W29618   6.894  15.056   0.396 -0.0788  0.0679  0.1535
13725W        W29619   7.252   3.984  12.376 -0.1495 -0.2049 -0.0193
13726W        W29620   7.323  16.920  12.025 -0.2781  0.0700 -0.3632
13727W        W29621   4.216   3.577  12.492 -0.2517 -0.2931  0.0520
13728W        W29622   0.990   8.680   0.369  0.3465  0.2351 -0.0721
13729W        W29623  12.139  15.738   1.998 -0.0861 -0.1168  0.0273
13730W        W29624  14.165  10.268   5.170  0.0534  0.1048  0.0170
13731W        W29625  11.107  15.951   5.160  0.1185  0.0353  0.1074
13732W        W29626   5.237   0.642   2.509 -0.1612  0.0083 -0.1678
13733W        W29627   4.016  18.496   2.078  0.1948  0.2836 -0.1643
13734W        W29628   2.887   6.153   4.644  0.1923 -0.0150 -0.0077
13735W        W29629   3.410   5.918  13.219  0.0622 -0.2606  0.1930
13736W        W29630  12.516  10.071   5.952 -0.2286  0.1860 -0.1522
13737W        W29631   5.376  10.490  14.488  0.2576 -0.0717  0.0493
13738W        W29632  11.066   1.911   1.275 -0.1756  0.0888  0.2493
13739W        W29633  13.537   9.592   4.069 -0.1492  0.0062 -0.2280
13740W        W29634   9.098   3.379  11.655 -0.1425  0.1362 -0.0622
13741W        W29635   3.991   3.641  11.166 -0.1289 -0.0692  0.0920
13742W        W29636   2.153  16.773  11.012  0.1992 -0.1403  0.0726
13743W        W29637  18.331   3.319  12.352  0.1927 -0.0036  0.1380
13744W        W29638  17.738   4.183  13.921  0.0086  0.0214  0.0137
13745W        W29639   0.696   6.170   2.031  0.0981 -0.1165  0.2005
13746W        W29640   4.987   7.766   1.412  0.2873 -0.1011  0.2475
13747W        W29641   0.083   1.561   5.410  0.1183 -0.1814 -0.0840
13748W        W29642   2.088  13.721   3.518 -0.4958  0.3126  0.2645
13749W        W29643  15.612   9.841  13.629  0.0314 -0.1597 -0.0910
13750W        W29644   6.368  12.767  11.858 -0.0373 -0.2871  0.1809
13751W        W29645   5.553  13.557   3.335 -0.1112  0.0220 -0.0590
13752W        W29646  18.822  16.598  10.683 -0.2756  0.2120  0.2228
13753W        W29647   0.394   9.114  14.233 -0.0328 -0.0187  0.4831
13754W        W29648  13.122   5.549   4.199 -0.2986 -0.2071 -0.1644
13755W        W29649   9.607  17.252  10.755  0.2242  0.1234 -0.2921
13756W        W29650  11.096  17.461   3.036 -0.1067  0.0642  0.0232
13757W        W29651  17.774   3.945  10.834 -0.0647  0.1439  0.0886
13758W        W29652  18.727   9.916  13.608 -0.0621 -0.0323 -0.0756
13759W        W29653  13.336  18.202  13.963 -0.0324  0.2325  0.0789
13760W        W29654  12.158  13.002  12.923 -0.0946  0.0586  0.1238
13761W        W29655   2.429   4.244  11.696  0.1203 -0.0984 -0.4763
13762W        W29656   3.433   3.477  14.907  0.0810  0.1458  0.0548
13763W        W29657   9.918   0.709   4.530 -0.2142  0.2963 -0.2190
13764W        W29658   5.377   9.932  13.731 -0.2137 -0.1954 -0.0911
13765W        W29659   1.646  13.766  15.050  0.2299  0.1193  0.0815
13766W        W29660  17.833  10.817   2.810  0.0637  0.2282 -0.0999
13767W        W29661   7.550   6.318   1.697  0.2551  0.0537  0.1747
13768W        W29662   2.475  10.418   2.132  0.0491  0.1097 -0.0409
13769W        W29663   4.318  17.041  14.215 -0.1138 -0.0880  0.2453
13770W        W29664  19.181   2.364   4.194  0.2197 -0.1522  0.2523
13771W        W29665   8.814  18.067  12.500  0.1396 -0.0888  0.2781
13772W        W29666   1.196  17.459  14.692 -0.2720 -0.1517 -0.1524
13773W        W29667   1.936   2.782   1.104  0.2201 -0.0935  0.1554
13774W        W29668   0.146  12.080   2.259  0.3176  0.2140  0.0871
13775W        W29669   5.049   9.082  11.252 -0.1780 -0.2229  0.1719
13776W        W29670  12.075   2.028   3.076  0.0234 -0.0423 -0.1657
13777W        W29671   7.353   6.769  10.703 -0.1979  0.0246 -0.0000
13778W        W29672   6.564   8.440  11.707 -0.2102 -0.0567  0.0513
13779W        W29673  11.367   1.818  12.390  0.1040  0.2829  0.3288
13780W        W29674   7.291   3.338   1.230  0.0691 -0.3347  0.2839
13781W        W29675   9.984   1.322  12.932 -0.5001 -0.2097  0.0475
13782W        W29676  16.494   4.172  14.232  0.0728 -0.1657 -0.2421
13783W        W29677   7.217  13.905  13.559  0.0021 -0.1349  0.0036
13784W        W29678   3.756   3.906  11.791  0.0864  0.1540 -0.3369
13785W        W29679   9.201   7.041  12.038  0.0892  0.0641 -0.2459
13786W        W29680   0.751  17.343  14.369  0.3834 -0.2102 -0.1419
13787W        W29681  13.929  12.624  13.941  0.1715 -0.2216  0.4545
13788W        W29682   9.054   2.906  13.608  0.2337 -0.1204  0.0887
13789W        W29683   1.158   8.771  11.426 -0.3535  0.3522 -0.3294
13790W        W29684  18.344  18.241  13.639  0.0107  0.0265  0.0125
13791W        W29685  11.436  13.587  12.334  0.1147 -0.3316  0.0932
13792W        W29686  15.866   9.422  13.454  0.1236 -0.1739 -0.2763
13793W        W29687  11.766   4.301  15.115  0.1698  0.0263  0.2519
13794W        W29688   8.582   2.326  10.484  0.0026 -0.0793 -0.1626
13795W        W29689  17.129  12.210  13.509 -0.2221 -0.0551 -0.0620
13796W        W29690   9.023  18.086  11.049 -0.0594 -0.1983 -0.3156
13797W        W29691  16.327  10.259  12.470  0.5207 -0.4605  0.1918
13798W        W29692   2.122  11.970   1.141 -0.0235 -0.2259  0.0540
13799W        W29693   3.426  10.934   1.701  0.1877  0.2191  0.0652
13800W        W29694  15.214  11.773   0.607 -0.0455 -0.3883  0.0710
13801W        W29695   6.155   5.891   1.465  0.2206  0.2322  0.1360
13802W        W29696  14.756   1.505  11.964 -0.2715  0.0243 -0.3468
13803W        W29697  10.061  10.716   2.381 -0.0714  0.1690 -0.2598
13804W        W29698   6.170  17.855   2.772  0.0189  0.1499  0.0582
13805W        W29699   4.913  16.349  14.684  0.0581  0.2310 -0.1889
13806W        W29700  14.936   0.216   1.877 -0.0011  0.0631 -0.1379
13807W        W29701  15.637   5.395  13.520  0.0919 -0.0506  0.1954
13808W        W29702   4.968  14.136  13.860  0.1044  0.1518 -0.0797
13809W        W29703  17.912  12.271   1.101 -0.1035 -0.0622 -0.2500
13810W        W29704  11.355  10.105   5.156  0.0971 -0.1135  0.1268
13811W        W29705  10.166   2.469  11.433 -0.1311  0.2805  0.0055
13812W        W29706   9.427  16.906   1.799 -0.0618 -0.0624  0.1941
13813W        W29707   2.494   9.670   2.786  0.3261  0.1616  0.1825
13814W        W29708  13.842  13.171  13.758 -0.0845  0.0472 -0.1559
13815W        W29709   0.408  16.388   3.315  0.3897  0.0734 -0.0049
13816W        W29710  18.861  16.906  11.057 -0.0253  0.1181  0.0637
13817W        W29711  18.851  18.399   5.015 -0.3362  0.0334  0.2367
13818W        W29712  14.182  11.771  12.936 -0.2598  0.0956  0.0472
13819W        W29713   1.104   8.698   1.275  0.0220 -0.2095  0.0154
13820W        W29714   5.668  13.119   4.108 -0.0680 -0.1044  0.3851
13821W        W29715  15.680   1.691   2.309  0.0243  0.1173  0.2697
13822W        W29716   8.818   4.079   4.770  0.0403 -0.0226 -0.0702
13823W        W29717   8.644  11.997  12.516  0.1277 -0.3420 -0.0715
13824W        W29718   8.705  14.570  12.793 -0.0216 -0.2191 -0.1624
13825W        W29719   5.229   5.848   3.018  0.2238 -0.3236  0.0575
13826W        W29720   5.420  12.328   3.867  0.1146 -0.0598 -0.2210
13827W        W29721  13.393  18.178   1.778 -0.1474  0.0088 -0.0414
13828W        W29722  10.275   2.634   3.058 -0.0680 -0.2370  0.0219
13829W        W29723   9.403  15.083   0.790 -0.1435 -0.1571 -0.0505
13830W        W29724  12.372  11.097  15.066 -0.2603 -0.1740 -0.3197
13831W        W29725   5.827  18.808  14.272 -0.2745 -0.0543 -0.0057
13832W        W29726   1.317   5.436  10.442  0.0890  0.0438 -0.0520
13833W        W29727   1.519  13.762   5.660  0.0106 -0.0474  0.1620
13834W        W29728   0.269   1.582   3.716 -0.0228 -0.0601  0.1356
13835W        W29729   0.432   6.383   3.887  0.0682  0.1566  0.2782
13836W        W29730  14.860  11.868   0.996  0.1982  0.0939  0.0759
13837W        W29731  13.335  19.049  10.501 -0.0524 -0.1870 -0.1111
13838W        W29732  11.146  11.098  10.766  0.0931 -0.2873 -0.0946
13839W        W29733  12.309   6.760   1.879 -0.2418 -0.0614  0.5737
13840W        W29734   7.760   0.280  10.784 -0.0624 -0.0191 -0.0418
13841W        W29735   0.039  17.396  15.125  0.1325 -0.3420  0.0945
13842W        W29736  17.222   6.327  13.305  0.0186 -0.2500 -0.2856
13843W        W29737  13.539  11.940   4.255 -0.2089  0.1118 -0.3021
13844W        W29738  19.137   4.411   4.226 -0.0846 -0.0648  0.0096
13845W        W29739   7.916  13.531   3.386 -0.2884 -0.2108 -0.0996
13846W        W29740   9.432  17.621  13.217 -0.1604  0.0264 -0.0709
13847W        W29741  17.400   4.981   3.755 -0.0551  0.1051  0.2442
13848W        W29742  16.096  10.595   5.713 -0.0858  0.1566  0.2271
13849W        W29743  17.681  12.970  12.870  0.0334  0.0262  0.3603
13850W        W29744  16.691   6.354  13.274 -0.0740 -0.0791  0.3032
13851W        W29745   0.197   3.421   2.639 -0.0118 -0.2922  0.2122
13852W        W29746   0.021   6.729  11.735 -0.0793  0.0699 -0.0708
13853W        W29747   4.753  16.421  12.663  0.2826  0.2463 -0.0305
13854W        W29748   3.721   9.249   2.302 -0.4313 -0.3847  0.0542
13855W        W29749   3.318  11.554  12.165  0.0522  0.0338 -0.3361
13856W        W29750   7.470   1.288  13.153  0.0339  0.3486 -0.0605
13857W        W29751  14.320  16.199   1.864 -0.1798  0.2676  0.2238
13858W        W29752   5.400   5.124  13.522  0.2068  0.4385  0.2321
13859W        W29753   2.351   0.384   3.656 -0.1897  0.1018  0.0358
13860W        W29754  14.248   8.244  13.449  0.4511  0.0646  0.0253
13861W        W29755  15.816   7.051  11.169 -0.0716  0.0429  0.0459
13862W        W29756   4.623  18.576   0.923 -0.0177  0.3732  0.0107
13863W        W29757  15.000  15.921  12.075 -0.4455 -0.0469  0.0647
13864W        W29758  10.181  15.786  12.298  0.0203  0.0590 -0.1044
13865W        W29759   5.012   8.430  14.694 -0.1596 -0.4219 -0.0610
13866W        W29760  10.113  14.010  12.633  0.5117  0.1493 -0.1461
13867W        W29761  16.675   0.219  11.734  0.1909  0.0174 -0.3559
13868W        W29762  10.479   6.411   2.479 -0.1095 -0.0574  0.1705
13869W        W29763   7.492  16.992  11.525  0.0650 -0.0879  0.0029
13870W        W29764   0.344  13.266   2.109 -0.0182  0.4137  0.0347
13871W        W29765  17.632  16.760   4.992 -0.1420 -0.0107 -0.0140
13872W        W29766   9.745  18.935  13.207  0.3523 -0.0779 -0.2391
13873W        W29767  13.233   1.865  11.046  0.0091 -0.1815 -0.0576
13874W        W29768   0.919   0.483  13.436  0.4170  0.0449 -0.2282
13875W        W29769   3.813  18.992   3.195 -0.1245 -0.1360 -0.3258
13876W        W29770   8.986   7.667  13.718 -0.2977  0.2607 -0.1355
13877W        W29771  14.112   6.553  12.701 -0.1198  0.0167  0.0898
13878W        W29772  16.571   4.724   4.088  0.2003 -0.0701 -0.1758
13879W        W29773  16.033  14.992   0.811  0.4977  0.0817 -0.0043
13880W        W29774  15.457  13.759  11.229 -0.0476 -0.0584  0.2703
13881W        W29775  19.093  16.627  12.312  0.0747 -0.0742  0.1357
13882W        W29776  11.665  15.444   1.978  0.2122  0.0197  0.1712
13883W        W29777   7.043   2.268   3.669 -0.3269  0.1745 -0.3506
13884W        W29778  18.312   2.749   2.645  0.1836 -0.1203  0.1884
13885W        W29779  14.786  14.674   9.912 -0.0655 -0.3412  0.1394
13886W        W29780  14.715   8.007  13.484 -0.4269 -0.1100  0.2218
13887W        W29781  10.800   5.800  11.687  0.0509 -0.0284  0.0667
13888W        W29782   8.537  12.030   0.154  0.0246  0.2138 -0.2679
13889W        W29783   1.473  12.027  13.816 -0.0023  0.0398 -0.0026
13890W        W29784  11.018   7.127  13.013  0.3940 -0.0550 -0.0633
13891W        W29785   9.910  17.718   1.171 -0.1415 -0.4081  0.0523
13892W        W29786  16.754  18.712   3.900  0.1241  0.0685  0.0415
13893W        W29787   4.662  10.039  11.762 -0.1121  0.0051  0.2714
13894W        W29788   9.113   3.142  12.925 -0.1188 -0.4061  0.1503
13895W        W29789   5.083   7.432  12.872  0.2123  0.0965  0.0886
13896W        W29790  18.485  11.091  11.256  0.0276 -0.0988  0.2320
13897W        W29791   4.115  17.416  14.795 -0.0976  0.0417  0.0111
13898W        W29792  15.553   3.731  13.106 -0.2535 -0.2701 -0.0444
13899W        W29793  11.290  15.154   2.844 -0.0069 -0.0843  0.3016
13900W        W29794  14.654  13.064  12.621  0.1205 -0.0847  0.1003
13901W        W29795   0.181  15.739  13.125 -0.4511 -0.0098 -0.0260
13902W        W29796  14.979   6.699   0.630  0.0337 -0.1657  0.1708
13903W        W29797  16.664  17.042  12.785 -0.1765 -0.1603 -0.0425
13904W        W29798   1.735   1.016  13.572  0.4711  0.0899 -0.1604
13905W        W29799   9.589  17.566  12.138  0.3627 -0.0970 -0.3320
13906W        W29800  17.435  10.280  10.397 -0.2297 -0.2047 -0.2884
13907W        W29801   9.229   0.513  10.367  0.0527  0.1506 -0.2081
13908W        W29802   9.279   6.984   3.902 -0.4527 -0.1430  0.0479
13909W        W29803   5.319   6.037  11.857 -0.0539 -0.0499 -0.0245
13910W        W29804   7.418   5.365   2.411 -0.1897  0.0166 -0.2012
13911W        W29805   8.272  17.571   3.728  0.2015 -0.2205  0.0916
13912W        W29806   2.720  13.418  11.965 -0.1038 -0.2550 -0.0787
13913W        W29807  16.527   2.540  14.171 -0.0898  0.4199  0.1151
13914W        W29808  14.970  17.267  13.400  0.2282 -0.5090  0.2244
13915W        W29809   0.940   3.204   2.571  0.0427 -0.0657  0.2479
13916W        W29810  15.050  14.279  12.707 -0.2259  0.0132  0.0105
13917W        W29811   5.149   1.546  14.414 -0.1737  0.2165 -0.1142
13918W        W29812  11.888  12.881   3.019  0.0155 -0.2017  0.1738
13919W        W29813   1.802  18.727   4.276 -0.2132  0.1654 -0.1107
13920W        W29814   7.748  12.476  13.224  0.1296 -0.0514 -0.0289
13921W        W29815   4.892   0.012   4.089 -0.0877  0.3107 -0.0546
13922W        W29816   0.097   0.937   2.406  0.3203  0.3311  0.0083
13923W        W29817  13.559  10.330   2.553  0.1315  0.0230 -0.1304
13924W        W29818   7.039   4.688   4.618  0.1745 -0.0157 -0.1283
13925W        W29819   8.615  18.861   1.986  0.2130  0.0599  0.0043
13926W        W29820   5.467   7.356   3.624  0.0887 -0.0553 -0.1853
13927W        W29821   8.258  12.338  13.984  0.3767 -0.0304 -0.0445
13928W        W29822  16.398   5.304   2.768  0.0871 -0.1260  0.2534
13929W        W29823   9.221   3.042   1.459  0.0225 -0.2808  0.0862
13930W        W29824   1.220   2.686   0.399 -0.0238 -0.0210  0.0975
13931W        W29825  11.899  12.950   1.986 -0.0628  0.0932  0.0025
13932W        W29826  10.655   6.347   0.353 -0.0904 -0.0321 -0.0040
13933W        W29827  17.433   9.705  11.218 -0.0924 -0.2317  0.3102
13934W        W29828   5.897   0.624   2.936  0.1086  0.2204  0.0437
13935W        W29829  12.444   4.251   9.920  0.3442 -0.0774  0.1016
13936W        W29830   5.825   7.013  12.364 -0.1469  0.2568  0.1856
13937W        W29831  12.056   2.070  10.836  0.0398 -0.1241 -0.2509
13938W        W29832  18.274   9.104   4.765 -0.0892 -0.3222 -0.1977
13939W        W29833   3.012   2.942   3.020 -0.1760 -0.1226  0.0963
13940W        W29834  16.718   8.662   0.249 -0.0880  0.2804  0.1686
13941W        W29835   2.638   6.087   4.119  0.2263 -0.4882 -0.2442
13942W        W29836  11.179  10.029   3.361 -0.0764  0.0628 -0.1519
13943W        W29837  18.304   9.923  11.908  0.4421 -0.0472  0.0220
13944W        W29838  11.183  18.607  15.156  0.0575 -0.3141  0.0595
13945W        W29839  11.713  17.971  13.064 -0.2036 -0.0177 -0.0455
13946W        W29840   8.999  11.277  11.240  0.1662  0.3239  0.3144
13947W        W29841   1.582   2.836   4.123 -0.0291 -0.2698  0.1770
13948W        W29842   9.830  13.848  11.812  0.1126 -0.0136 -0.1956
13949W        W29843   1.744  18.187   0.634 -0.4185  0.1994 -0.1247
13950W        W29844   5.015   5.566  15.191  0.3220 -0.0624 -0.0146
13951W        W29845   0.650  15.844  13.292 -0.1621 -0.1507 -0.0843
13952W        W29846   6.620  15.217   3.329  0.1015  0.2135  0.0848
13953W        W29847   0.533  14.847  10.707  0.3380  0.2291 -0.0931
13954W        W29848   1.825  13.328  10.808  0.0763  0.0028 -0.1976
13955W        W29849   6.384  14.418  12.400  0.1808 -0.3873 -0.0512
13956W        W29850   0.586  10.498   3.851 -0.1850 -0.0172 -0.0760
13957W        W29851   9.299   0.480  11.799 -0.0525 -0.0152  0.0482
13958W        W29852   4.348  12.625   4.432  0.3077 -0.1645  0.0832
13959W        W29853  10.082  10.547  13.607 -0.0336  0.2610  0.1279
13960W        W29854   0.860   0.896  11.662 -0.3091 -0.0509  0.1217
13961W        W29855   4.726   6.944   1.396  0.2187 -0.3418 -0.1163
13962W        W29856  11.961   5.312  13.941  0.1122  0.1712  0.0433
13963W        W29857  14.302   9.017   0.931  0.0239 -0.4266  0.0241
13964W        W29858  15.869   4.771  11.755 -0.0006  0.4307 -0.0582
13965W        W29859  13.342  13.393  11.927 -0.0756  0.0557 -0.4189
13966W        W29860  13.998   3.459   3.053  0.1820  0.1031  0.1753
13967W        W29861   4.099   3.440  10.155  0.0329 -0.1550 -0.2353
13968W        W29862  14.717   6.737   1.363  0.3928  0.0233 -0.0032
13969W        W29863  19.046  13.226   0.698  0.0967  0.0839  0.1599
13970W        W29864   8.046  13.191   1.501  0.1040 -0.2946  0.0499
13971W        W29865   2.267   8.397   1.944  0.0682 -0.0262  0.0973
13972W        W29866  13.480   4.427   4.781 -0.1811  0.2769  0.0295
13973W        W29867  18.097   7.219  14.093 -0.1242  0.1491  0.0812
13974W        W29868   5.673  11.260  14.137 -0.0189  0.1764 -0.0711
13975W        W29869   9.215  18.216   0.248 -0.1291 -0.1365  0.1308
13976W        W29870   9.572  16.913   0.432  0.3066 -0.2117  0.1025
13977W        W29871  12.240   6.082  13.521  0.2638  0.0166  0.0659
13978W        W29872  16.718  11.285  12.401  0.1504  0.1263  0.1439
13979W        W29873  13.635  17.723   5.305 -0.1292 -0.0865  0.1479
13980W        W29874  18.754   8.817  14.002 -0.0523  0.0073 -0.0337
13981W        W29875  15.848  10.174  10.744 -0.1631 -0.1514 -0.0141
13982W        W29876   3.023  16.728  12.479  0.3621  0.1275 -0.2499
13983W        W29877  16.899   1.623   3.016 -0.4008 -0.1121  0.1341
13984W        W29878  18.436   2.321  11.197 -0.1824  0.1987  0.2044
13985W        W29879  10.837   6.888  14.349  0.0827 -0.2014  0.0449
13986W        W29880  12.555   0.655   1.783  0.0516  0.1837  0.0529
13987W        W29881  10.423   6.575  13.759  0.0123  0.0448 -0.0924
13988W        W29882   1.779   0.803  14.010  0.3531  0.1285  0.2070
13989W        W29883   9.393   4.319   0.566 -0.0092  0.1966  0.1528
13990W        W29884  14.628  15.358  12.119 -0.2098 -0.0241  0.2272
13991W        W29885   1.663   5.789  14.393  0.3087 -0.0896  0.0050
13992W        W29886   9.036   4.797   5.216  0.5373 -0.0748  0.0304
13993W        W29887   9.519   7.024  12.628  0.0311  0.2005  0.1336
13994W        W29888   3.184  15.643  12.619 -0.0753  0.0715  0.2291
13995W        W29889  18.503  16.616   0.584 -0.2213  0.1628 -0.0332
13996W        W29890   6.267  11.826  13.970  0.1763  0.0281  0.2854
13997W        W29891  18.224  10.968  13.537  0.1375  0.5086 -0.1030
13998W        W29892  11.414   4.482   2.212 -0.0363 -0.2460 -0.2540
13999W        W29893   3.916   7.578   3.660 -0.1776  0.1223 -0.1131
14000W        W29894  11.476  14.168   1.558  0.3356 -0.0281  0.2660
14001W        W29895   2.826   3.685   4.073  0.0918 -0.3286 -0.1253
14002W        W29896  18.067   2.423  12.535 -0.1413 -0.1530 -0.0069
14003W        W29897  18.426  17.926   0.059 -0.1438  0.1698  0.2842
14004W        W29898   0.512  13.445  14.515  0.2682 -0.0020  0.1471
14005W        W29899   6.776  11.152   0.748  0.0710 -0.0661 -0.1107
14006W        W29900  12.464  11.695   4.926 -0.2370  0.1623  0.2429
14007W        W29901   4.842   7.934  13.837  0.0929  0.0622 -0.2438
14008W        W29902  15.615  15.152   1.238 -0.0155  0.2966 -0.1841
14009W        W29903   6.901   6.173   0.829  0.2346 -0.0413  0.1404
14010W        W29904   5.043  17.061   1.786 -0.2379 -0.0123 -0.2275
14011W        W29905  15.110   9.767  11.616  0.0593 -0.0392 -0.1443
14012W        W29906  11.275   6.890   2.341 -0.0081 -0.2293  0.2536
14013W        W29907   6.472   0.595   3.951  0.0522 -0.2041  0.0046
14014W        W29908  16.081  13.782  13.949  0.0993  0.1844  0.1721
14015W        W29909   0.835   5.870   4.686 -0.0009  0.0685 -0.1313
14016W        W29910   6.392  14.620  11.222 -0.2332 -0.1790  0.1518
14017W        W29911   3.929   8.768   0.046  0.0690  0.2085  0.0277
14018W        W29912   7.227  10.466   1.076  0.0886  0.1375  0.1402
14019W        W29913  11.479   7.498  14.297 -0.0346  0.1017  0.0347
14020W        W29914   8.920   2.892  14.066  0.1723  0.0965 -0.0620
14021W        W29915   6.335  10.682  13.648 -0.3523  0.0101  0.2362
14022W        W29916   6.379   7.387   0.624 -0.4664 -0.0872  0.1727
14023W        W29917   7.136  12.759  12.159 -0.0207  0.0763  0.3902
14024W        W29918  10.991   6.227   0.765 -0.0854 -0.0938  0.0374
14025W        W29919  12.953  15.053  11.422  0.0189  0.0476 -0.1664
14026W        W29920   7.076   2.735   9.315 -0.1573  0.1971 -0.4677
14027W        W29921  18.271   8.539  11.307  0.3770 -0.1329  0.5236
14028W        W29922   8.945  13.393  10.200  0.1696  0.0009 -0.0211
14029W        W29923   1.161  15.301   4.172  0.1896  0.2525 -0.2445
14030W        W29924   6.106   2.292   4.048  0.1475  0.0584  0.1716
14031W        W29925   0.832   5.681   1.980  0.2003  0.1660  0.1120
14032W        W29926  10.580   8.042  14.957  0.1963  0.0097 -0.1450
14033W        W29927  13.299  16.891   1.486 -0.2698 -0.2212 -0.1611
14034W        W29928  10.611   0.385   9.484 -0.3603 -0.0919  0.1049
14035W        W29929  13.411  19.025   3.726 -0.2431  0.1193  0.0256
14036W        W29930  10.134   9.284   2.512 -0.0930 -0.2055  0.3602
14037W        W29931  13.672  16.602   2.767 -0.2255 -0.0481  0.1827
14038W        W29932   2.755   7.217   1.570 -0.1348 -0.1589 -0.2407
14039W        W29933  13.652   9.785  11.012  0.1467  0.1275  0.0150
14040W        W29934  10.361   5.829  14.345 -0.1622  0.0622 -0.0353
14041W        W29935  14.215   8.948  11.378 -0.1823 -0.2449  0.0944
14042W        W29936  13.612  18.831   2.337 -0.0297 -0.2197 -0.1283
14043W        W29937  17.213  12.120  12.245  0.2465 -0.1070  0.2603
14044W        W29938  14.824   5.046   1.458 -0.1643 -0.1827 -0.1988
14045W        W29939  12.916   8.749  11.830 -0.0515  0.3810  0.0347
14046W        W29940   3.908   0.827  13.358 -0.0986  0.0831  0.0296
14047W        W29941  12.659   9.067  11.452 -0.3800  0.1968  0.1095
14048W        W29942  17.046   6.231  12.392  0.2703 -0.0669  0.0461
14049W        W29943   4.572   2.760   4.362 -0.3872 -0.1553 -0.1672
14050W        W29944   5.656   7.826  11.184  0.1219 -0.1053 -0.2484
14051W        W29945  17.241   4.564  14.833  0.0465  0.0239 -0.2112
14052W        W29946   5.464  15.090   4.624 -0.2289 -0.0864  0.0718
14053W        W29947   6.896  15.648   3.331 -0.0342  0.4583 -0.0379
14054W        W29948   4.697   2.007   4.065  0.0318  0.0892  0.1124
14055W        W29949   6.358  16.766   3.697  0.1200  0.0249 -0.3431
14056W        W29950  15.025   8.120  11.040 -0.0144  0.0411  0.0235
14057W        W29951  17.193  17.223   1.265  0.1535  0.0983  0.2219
14058W        W29952   5.808  14.902  12.027 -0.0974  0.2067 -0.0531
14059W        W29953   5.843   7.647   2.590 -0.3114 -0.0289 -0.1272
14060W        W29954   7.643   7.768  11.429 -0.0305  0.0745  0.0034
14061W        W29955   8.195   6.382  11.062 -0.1060  0.1976  0.4205
14062W        W29956   7.099   2.537   0.654  0.3971 -0.1900  0.0199
14063W        W29957  15.827  16.517  14.485 -0.1388  0.0495  0.0396
14064W        W29958  18.160   2.212   1.320 -0.1967 -0.0005 -0.1910
14065W        W29959  12.987   6.593   0.768  0.1936  0.3609  0.0276
14066W        W29960  15.136  17.510  10.991  0.0357 -0.0824  0.0773
14067W        W29961   3.874  16.346  12.368  0.1183 -0.1479  0.1635
14068W        W29962  16.858   6.222   6.319 -0.0244  0.1195  0.2236
14069W        W29963  10.634  14.459  13.722  0.0105  0.1240 -0.1384
14070W        W29964   5.870   6.232  13.776  0.2203  0.1500  0.0441
14071W        W29965  13.158  17.965  13.029 -0.0535  0.0318  0.0385
14072W        W29966  13.462   6.257   0.188  0.0876  0.1800 -0.1391
14073W        W29967   8.254  10.932   4.994 -0.0979 -0.3611  0.2407
14074W        W29968  16.216   0.870  14.089  0.2253  0.3852 -0.1791
14075W        W29969   7.485   0.899  15.030 -0.0688 -0.3092 -0.2874
14076W        W29970   0.198   8.112  13.503 -0.1414  0.0200 -0.1704
14077W        W29971   4.821   5.001   2.955  0.1433  0.0632 -0.2674
14078W        W29972   3.795   0.523  11.126  0.1945  0.2298  0.0330
14079W        W29973   4.227  15.720  13.985 -0.1501  0.2350 -0.1617
14080W        W29974   2.841  15.763   3.953 -0.0377  0.1373  0.3219
14081W        W29975   2.725  15.630   5.087 -0.4434  0.0929 -0.3938
14082W        W29976   2.456   8.328   0.395 -0.0677 -0.2498 -0.2197
14083W        W29977  10.456   8.151  12.882  0.1545  0.3785  0.1964
14084W        W29978  14.536  16.401  14.256  0.5499 -0.0397 -0.0833
14085W        W29979   3.984  14.409  13.679 -0.3110  0.2134  0.0309
14086W        W29980  16.833  18.173   3.394 -0.2461 -0.1612 -0.2930
14087W        W29981   2.215  18.340  10.336  0.1825 -0.1522 -0.1181
14088W        W29982   2.798  18.831  10.756 -0.0236  0.0485 -0.1130
14089W        W29983   3.014   4.187   2.106 -0.0646  0.0541  0.2258
14090W        W29984   3.527  16.322   5.384  0.2394 -0.2992 -0.0038
14091W        W29985  18.184  12.333   4.510 -0.2103 -0.0559 -0.0007
14092W        W29986  15.957  14.138   3.269 -0.0899 -0.0198  0.0415
14093W        W29987  18.611   9.287  12.589  0.0345  0.5344 -0.0662
14094W        W29988   6.417  12.906   5.390  0.0056  0.1122  0.3537
14095W        W29989   5.754   7.768   3.471  0.1421 -0.2279  0.2606
14096W        W29990   2.651   3.289  11.461 -0.0033  0.0956  0.0274
14097W        W29991  15.724  13.394  14.899 -0.1397 -0.2508  0.0142
14098W        W29992  17.820  15.472  10.644 -0.1644 -0.1010 -0.0536
14099W        W29993   3.767  15.875  13.266 -0.3564 -0.2449  0.1440
14100W        W29994   4.076   4.185   4.314 -0.2103 -0.3699 -0.2590
14101W        W29995  19.085   4.383   3.427  0.1813  0.0686  0.0687
14102W        W29996   3.868   2.833  13.149 -0.1694 -0.2473  0.1872
14103W        W29997   5.379   0.550   2.982 -0.0058  0.1883 -0.2898
14104W        W29998  17.586  12.162   3.907  0.0010  0.0636 -0.3483
14105W        W29999  16.122   9.972   0.156 -0.0641 -0.1899  0.0866
14106W        W30000   6.033  16.458   3.934 -0.1417  0.3637 -0.2357
14107W        W30001   9.911  11.593  12.627 -0.0131 -0.0507 -0.4089
14108W        W30002  18.028  10.466   1.987  0.1641  0.3357 -0.1449
14109W        W30003   1.964   5.902   1.134 -0.1652  0.1549  0.0772
14110W        W30004   5.934   3.641  14.971  0.0408  0.1619  0.2819
14111W        W30005  10.335   6.264   4.940  0.1450 -0.1128 -0.0187
14112W        W30006   3.762  15.487  11.893  0.0448 -0.0110 -0.2814
14113W        W30007  14.178  13.495  10.034  0.2960 -0.2194 -0.0501
14114W        W30008  17.522   5.559  10.821  0.0872 -0.1817  0.0690
14115W        W30009  13.711   9.467  13.839 -0.2451 -0.2374 -0.0817
14116W        W30010  13.597   0.942  11.843 -0.0865  0.2853 -0.0773
14117W        W30011   8.758   8.781   1.966 -0.0146  0.4586 -0.1185
14118W        W30012   5.732   1.000  10.396  0.3740 -0.3984  0.0379
14119W        W30013   2.805   4.003   1.238  0.1795 -0.1129  0.0802
14120W        W30014  13.381  17.162   0.268  0.1160 -0.0262 -0.3695
14121W        W30015  15.435   9.108  11.757  0.0729 -0.1256  0.0963
14122W        W30016  16.003  17.921   1.601 -0.0804  0.1987  0.2962
14123W        W30017   9.853   7.833  12.053 -0.1132 -0.1984 -0.2480
14124W        W30018  13.737   4.222   5.197 -0.0623  0.0470  0.4068
14125W        W30019  18.798   8.094   5.764  0.0428  0.0017 -0.1750
14126W        W30020  10.129   5.873   4.510  0.3217 -0.1816 -0.2224
14127W        W30021  10.005  14.752  10.834 -0.1074  0.1816 -0.2652
14128W        W30022   5.250  15.971   2.655  0.2796  0.1457 -0.2366
14129W        W30023  10.328   9.639  11.560  0.1655  0.0715  0.0360
14130W        W30024   4.183  10.216  13.327 -0.1228  0.1243  0.1484
14131W        W30025   6.006   5.709   4.531 -0.1118 -0.4573  0.2648
14132W        W30026   1.431   0.758  12.610  0.1082  0.0391  0.1922
14133W        W30027  14.296   0.404  12.878 -0.2387 -0.0257  0.0683
14134W        W30028  11.336   0.199  11.791 -0.1865 -0.3331 -0.3374
14135W        W30029  14.654  18.692  13.355 -0.0527  0.0792  0.0694
14136W        W30030  13.092  13.757   2.551 -0.2993  0.2617  0.0021
14137W        W30031   2.691   1.005   2.678 -0.0809  0.1286 -0.3170
14138W        W30032  11.528   1.649   2.349  0.1370 -0.0880 -0.0324
14139W        W30033  16.650  15.156   3.202 -0.0655  0.2273  0.0285
14140W        W30034   8.299   5.894  11.087  0.1113  0.1768  0.0078
14141W        W30035   2.748   1.045  14.779 -0.0412 -0.0733 -0.1738
14142W        W30036   9.856  10.800   4.207 -0.1736  0.1340  0.2317
14143W        W30037   3.985  11.661   3.580  0.0203  0.1483  0.0202
14144W        W30038  12.864  18.225   5.535  0.3751 -0.1855  0.0885
14145W        W30039   3.942   4.840   3.107 -0.2511 -0.3827 -0.2591
14146W        W30040  11.371   0.645  11.493 -0.2183 -0.2556  0.2995
14147W        W30041  19.128  10.368   4.010 -0.1578 -0.0414 -0.0156
14148W        W30042  14.911  16.654   5.521 -0.0860 -0.0305 -0.1945
14149W        W30043  17.478  10.062  12.077 -0.1867 -0.1220 -0.1109
14150W        W30044   9.147   4.493   4.132 -0.2658  0.0075 -0.0351
14151W        W30045  17.176   6.461   1.134  0.0234  0.3221  0.0641
14152W        W30046  10.926   3.503   3.294 -0.0374  0.1684  0.1255
14153W        W30047   8.817   0.138   4.337 -0.0627 -0.3722  0.3029
14154W        W30048  10.015   3.725   1.375 -0.1323  0.3339  0.0750
14155W        W30049   3.522   7.671   0.286  0.3039  0.2155 -0.1001
14156W        W30050  10.103   3.611  11.214  0.1577 -0.0211 -0.0889
14157W        W30051   0.252   7.526   1.012 -0.0576 -0.0337  0.0838
14158W        W30052  14.405   1.000   5.483 -0.1778 -0.1368  0.1359
14159W        W30053   1.005  18.130  13.674 -0.1799 -0.1880 -0.0725
14160W        W30054  14.097   6.624   0.753  0.1106  0.2094 -0.0746
14161W        W30055   3.733   3.842  10.273 -0.1857  0.2383  0.1543
14162W        W30056   8.578   0.538  13.459  0.1822  0.0459  0.2707
14163W        W30057  14.882  13.131   3.156 -0.2098  0.1848 -0.0288
14164W        W30058  18.233  14.737   2.081  0.0438 -0.0071 -0.0303
14165W        W30059  10.837  15.523   3.159  0.0691  0.0218  0.2395
14166W        W30060   5.980   3.394   1.226 -0.0747  0.0521  0.1366
14167W        W30061  12.323  13.027   4.135  0.2774  0.1880  0.0406
14168W        W30062   1.499  11.297   3.233  0.0725  0.1698  0.1284
14169W        W30063   8.156   8.451   1.214 -0.0729  0.0247 -0.1115
14170W        W30064  14.094   8.522   1.055 -0.0067 -0.2712 -0.0693
14171W        W30065  13.425  11.377   5.703 -0.0201 -0.2817 -0.0752
14172W        W30066   2.991   1.249  12.747  0.0613  0.0182  0.0944
14173W        W30067   0.129   0.268   0.331  0.1106 -0.2130 -0.2160
14174W        W30068   5.180  18.175   2.732 -0.0781 -0.1644  0.0086
14175W        W30069  13.603  13.694  12.299 -0.1590 -0.1602  0.0266
14176W        W30070   9.503  15.010  13.466 -0.0583 -0.0841  0.1600
14177W        W30071   5.674  15.890  10.753  0.3303 -0.1411 -0.4757
14178W        W30072  13.261   7.144   0.993  0.0011 -0.3112 -0.1670
14179W        W30073  12.437  14.134  14.621  0.1244  0.0941  0.0999
14180W        W30074  16.747   0.915   4.209 -0.1284  0.1484 -0.1411
14181W        W30075  10.271   8.535  14.473  0.0913 -0.2167 -0.2762
14182W        W30076  17.350  18.093  11.774  0.1298  0.5456  0.0100
14183W        W30077   2.031  17.739  12.381 -0.2452 -0.4128  0.2851
14184W        W30078  13.674  16.328   4.361  0.0569  0.0240 -0.2973
14185W        W30079  11.722  11.316   5.330 -0.2016 -0.0106 -0.1615
14186W        W30080  13.181  18.723  13.480 -0.0148 -0.1118  0.2366
14187W        W30081   1.170   7.076   3.843  0.0123 -0.0116  0.3154
14188W        W30082  14.593  16.532   0.643  0.0363  0.2188 -0.2240
14189W        W30083  11.943   6.571  10.704 -0.1444  0.2442 -0.0701
14190W        W30084  14.386  12.128  10.530 -0.0471  0.0626  0.3868
14191W        W30085  18.834   0.136   4.883 -0.1394  0.0436  0.0878
14192W        W30086  11.628   1.174   3.289 -0.0490 -0.0590  0.4432
14193W        W30087  16.465  10.176  11.979 -0.2930 -0.2014 -0.1298
14194W        W30088   7.578  14.140  10.970 -0.0372 -0.2207  0.3389
14195W        W30089  18.239   3.105  14.467 -0.1630 -0.1825  0.2686
14196W        W30090   6.732   2.918   3.945  0.0396  0.1555 -0.0147
14197W        W30091  11.025   5.288   0.083 -0.0417  0.3178  0.1827
14198W        W30092   0.720  16.796  13.569  0.0125 -0.4050 -0.1020
14199W        W30093  12.792  17.602  10.610  0.2690 -0.0427  0.0670
14200W        W30094  17.942   9.111  12.263  0.0819  0.1674 -0.0291
14201W        W30095  13.896   9.495   3.607 -0.1845  0.3245 -0.1103
14202W        W30096  11.233  13.897   3.390  0.0769  0.0508  0.0521
14203W        W30097   2.560  11.767  12.251  0.2294  0.0705 -0.3559
14204W        W30098  13.309  11.451   0.885 -0.5495 -0.2500  0.1240
14205W        W30099  18.517   8.642   1.466 -0.2351 -0.3171 -0.1483
14206W        W30100  16.597   6.337  13.891 -0.0722  0.0756  0.2003
14207W        W30101   6.235   4.534  13.548 -0.0990  0.1247  0.3317
14208W        W30102  16.284   9.692  14.710  0.1137  0.2738  0.1432
14209W        W30103  19.145   0.372  11.149  0.3622  0.2151 -0.1236
14210W        W30104  15.479   3.761  14.433 -0.0854 -0.3246  0.1700
14211W        W30105  11.499   4.748  13.511 -0.0273  0.1525 -0.1712
14212W        W30106   1.774   6.844  14.711  0.0234 -0.0613  0.0175
14213W        W30107  17.090   8.618   3.295  0.3319  0.0288  0.1523
14214W        W30108  13.496  11.663   3.812  0.1533 -0.1418 -0.1620
14215W        W30109   3.480  14.601  14.791  0.2797 -0.1394 -0.1434
14216W        W30110  15.738   6.780   1.137  0.2041  0.2830 -0.3544
14217W        W30111  15.320   9.609  13.251 -0.1781 -0.0963 -0.2053
14218W        W30112  14.909  19.068   3.579 -0.1848  0.3159  0.0619
14219W        W30113  18.594   7.010   2.974  0.2322  0.0006 -0.0272
14220W        W30114  13.284  11.371  11.397  0.1892  0.1080 -0.0303
14221W        W30115  11.574  10.353  11.712  0.1218 -0.1044  0.1189
14222W        W30116  13.648  18.638   1.855 -0.1148 -0.0302  0.2584
14223W        W30117  18.181  17.401  12.884  0.3233 -0.1784  0.0064
14224W        W30118  15.486   6.012  11.311 -0.3136 -0.3849  0.0204
14225W        W30119  16.685  13.521   2.391  0.0525 -0.0863 -0.1708
14226W        W30120  14.750   5.370  11.242  0.0194  0.1114 -0.1224
14227W        W30121   0.373  15.978   3.062 -0.0857  0.3679  0.0998
14228W        W30122   3.669  12.113   5.051  0.1182 -0.3031 -0.0526
14229W        W30123  11.351   9.586  12.006  0.0813  0.5153  0.0515
14230W        W30124   5.814  12.040  13.691 -0.1376  0.0864 -0.0551
14231W        W30125   0.123  10.438  12.166  0.1551 -0.0275 -0.1104
14232W        W30126  18.857   7.128   1.730 -0.0728  0.1560  0.0745
14233W        W30127  12.434   7.635  11.404  0.0267  0.0740  0.0320
14234W        W30128  16.929  15.379  11.615  0.0130 -0.2670  0.0836
14235W        W30129  10.967  10.010   3.845 -0.3583  0.0218 -0.0651
14236W        W30130   0.447  18.717   2.405  0.0500  0.3462  0.2097
14237W        W30131  15.980   7.894  10.924  0.6053 -0.1569 -0.1158
14238W        W30132  19.073  12.614  10.468  0.0215  0.0752 -0.0199
14239W        W30133   9.020  14.971  12.660 -0.2151  0.0402  0.0035
14240W        W30134  17.150   1.511   1.013 -0.2742  0.1370 -0.0442
14241W        W30135   1.461  14.728   4.000 -0.0610  0.0438  0.2203
14242W        W30136  14.494  12.649   2.052 -0.4303 -0.3096 -0.3031
14243W        W30137   7.468  15.337  13.161 -0.2407 -0.0893  0.0464
14244W        W30138   6.936  18.845   1.401 -0.3671 -0.1288 -0.2292
14245W        W30139  12.512   2.433  12.672  0.2632 -0.3198  0.1605
14246W        W30140  12.699  17.121   3.053 -0.0164 -0.0275 -0.0856
14247W        W30141   8.980   5.601   0.379 -0.1279 -0.1869 -0.1510
14248W        W30142  13.561   7.594   0.900  0.0679 -0.0617 -0.1777
14249W        W30143   1.243  17.555  14.138 -0.0099 -0.1194  0.2142
14250W        W30144  18.641  18.726   2.372  0.4560 -0.2231  0.0585
14251W        W30145   8.738  14.937   2.849  0.3930 -0.0506 -0.0970
14252W        W30146   3.565   3.043  14.044 -0.0654  0.1792  0.1116
14253W        W30147  13.107  16.638  14.548 -0.1156  0.0270 -0.3163
14254W        W30148  11.960  11.049   0.286  0.1682  0.0330 -0.1099
14255W        W30149  15.858  18.693   2.555 -0.2233  0.2999 -0.3758
14256W        W30150  17.814   4.233   3.840  0.2173 -0.1143 -0.0151
14257W        W30151   3.135  12.519   3.136  0.0826  0.0470  0.1943
14258W        W30152   8.964   0.273  11.428  0.2812 -0.0804  0.1800
14259W        W30153  17.740   0.501  13.342 -0.1192  0.0387  0.3251
14260W        W30154   9.038   2.550  14.575 -0.0763  0.0272  0.1940
14261W        W30155  12.085   3.397   5.239  0.1540 -0.0049 -0.3131
14262W        W30156  16.602  14.787   1.059  0.2279  0.0984 -0.1623
14263W        W30157  15.844   9.142   3.362  0.0202  0.0146 -0.0988
14264W        W30158   1.341  10.583   2.677  0.0943  0.1610 -0.0152
14265W        W30159   8.181   5.018   1.331  0.1665  0.0512 -0.1647
14266W        W30160   7.965   9.696   3.556 -0.1316 -0.2649 -0.0606
14267W        W30161   4.693  17.239  10.968  0.2021  0.2157  0.1352
14268W        W30162   9.365   5.458   3.214 -0.0431  0.0597 -0.0719
14269W        W30163  11.976   6.058   1.343  0.1223  0.0606 -0.0398
14270W        W30164   1.502  12.378   3.920  0.1671  0.1934 -0.2553
14271W        W30165  14.814   8.990  13.663  0.1135  0.0312 -0.4458
14272W        W30166   6.481   2.031   3.522  0.0180 -0.1237  0.2004
14273W        W30167   7.111  15.508  11.692  0.1122 -0.1073  0.5495
14274W        W30168  11.290  12.875   1.252 -0.1722  0.1867 -0.1848
14275W        W30169   2.725   1.212  11.079 -0.0867 -0.3232  0.0874
14276W        W30170  16.672   5.326   0.478  0.0561 -0.2441 -0.0091
14277W        W30171  11.265  15.838  13.888  0.2805 -0.0431 -0.0992
14278W        W30172   4.386  13.203  10.225 -0.0933  0.0841  0.0793
14279W        W30173  18.960  13.976   0.218 -0.2207 -0.1220 -0.2550
14280W        W30174   6.586  12.284   2.747  0.1255  0.0051 -0.1024
14281W        W30175   9.937   9.368   0.805 -0.1803 -0.2689 -0.3502
14282W        W30176   3.202  17.365   1.531  0.0083  0.0153 -0.1530
14283W        W30177   4.388  10.026   4.115 -0.0739  0.2018 -0.0279
14284W        W30178  11.359  11.061  14.888  0.2240 -0.1522 -0.5215
14285W        W30179   9.844  16.709   4.390  0.1359 -0.0151 -0.0727
14286W        W30180   1.496   3.811   1.590 -0.0093 -0.3971 -0.0274
14287W        W30181  11.860   8.966   2.352 -0.0826 -0.0530 -0.1441
14288W        W30182  11.807   1.631  12.511 -0.2473  0.2656  0.0724
14289W        W30183  10.148   9.816  12.889  0.0947 -0.1171 -0.2216
14290W        W30184  16.036  16.305   2.176  0.0950  0.2621 -0.0149
14291W        W30185   6.846   4.914  10.654 -0.0999  0.1323 -0.1116
14292W        W30186  14.816  14.455  10.324  0.3962  0.1492  0.2652
14293W        W30187  16.693   9.921  13.847  0.0297 -0.1731 -0.0979
14294W        W30188   5.472  14.835  12.836  0.3340  0.0680 -0.2071
14295W        W30189   4.760  14.973  11.871 -0.3326 -0.0379  0.1662
14296W        W30190  15.861  13.662   0.916 -0.2275  0.3067 -0.3874
14297W        W30191  17.351  12.001  13.892 -0.1946  0.2903 -0.0114
14298W        W30192  13.285  14.529  13.946 -0.0289 -0.0151  0.5346
14299W        W30193   9.073   0.625  13.935 -0.0217 -0.0145 -0.2781
14300W        W30194   8.571   2.464   0.873 -0.1442 -0.0771  0.1206
14301W        W30195   0.807   7.129  10.427  0.2850  0.1709 -0.0315
14302W        W30196   6.217  14.943   3.204  0.1362 -0.1633 -0.1132
14303W        W30197   5.144  10.289   2.474  0.0310  0.0228  0.0174
14304W        W30198   7.713  16.288  14.419  0.0641  0.0982 -0.0283
14305W        W30199   7.164  13.381   0.477  0.2653 -0.0778  0.1335
14306W        W30200   1.731  14.693   0.321 -0.0698 -0.2529 -0.0853
14307W        W30201   2.938  11.359   2.773  0.0602 -0.2534 -0.4009
14308W        W30202  17.460  13.289  12.380  0.1552  0.2447  0.2373
14309W        W30203  16.854  11.300   4.719  0.0618 -0.2589 -0.0648
14310W        W30204   6.944  18.290   4.583  0.0409  0.0061 -0.0248
14311W        W30205  10.675  13.164   3.733 -0.0279 -0.1165 -0.1687
14312W        W30206  10.723  17.881   5.064  0.0980  0.0292 -0.2246
14313W        W30207  11.318   8.668   3.200 -0.0725  0.0788 -0.3040
14314W        W30208   0.281   2.650   5.800  0.2867 -0.1348  0.5919
14315W        W30209  15.944   7.245   2.806  0.0523 -0.1616  0.0185
14316W        W30210   9.754   4.844   2.151 -0.1589  0.0055 -0.2234
14317W        W30211  14.716  15.589   1.761 -0.1537  0.0664  0.1186
14318W        W30212   3.879   1.558   3.085  0.1413 -0.0559  0.1455
14319W        W30213   1.901   4.675   2.684  0.1763 -0.0237 -0.1386
14320W        W30214  17.957   2.527  13.036 -0.1856  0.2847  0.0778
14321W        W30215   5.602   0.083   0.820 -0.3277  0.1097 -0.0564
14322W        W30216   7.380   0.273  14.349  0.2227 -0.1101  0.1671
14323W        W30217   2.800  10.709  15.117 -0.0661  0.1333 -0.4291
14324W        W30218  18.265   1.305   4.770  0.3169  0.2826  0.0872
14325W        W30219   2.409   0.151   0.393  0.0373  0.0294  0.1726
14326W        W30220  10.043   1.237   4.869 -0.3508 -0.0888 -0.0001
14327W        W30221  13.504   3.918   1.330 -0.2233  0.0317  0.1333
14328W        W30222   6.305  17.431  14.072 -0.0059 -0.2426  0.2642
14329W        W30223  12.941  13.140   0.829 -0.2059  0.0638  0.2511
14330W        W30224   6.259   8.157  14.389  0.1995  0.0097 -0.0128
14331W        W30225   2.341   0.705   4.456 -0.0554 -0.0132  0.0314
14332W        W30226  17.020   2.596  14.848  0.0602 -0.0088 -0.0115
14333W        W30227  12.008  13.809  14.168  0.0953  0.0473  0.0441
14334W        W30228   1.198   0.142  12.548 -0.0436 -0.3535 -0.1408
14335W        W30229  11.937   8.027  12.075 -0.0994 -0.0556 -0.3079
14336W        W30230  16.880  15.524  13.027 -0.0404 -0.0828  0.4207
14337W        W30231  12.009   7.098   2.913  0.1240  0.2949  0.4284
14338W        W30232   4.677  15.125   2.616 -0.0172  0.3993 -0.0628
14339W        W30233   0.010   5.892   0.855  0.0718 -0.4941  0.2755
14340W        W30234  17.390  17.924   1.465 -0.0035  0.2067 -0.1663
14341W        W30235   9.265   1.289   1.795 -0.0911  0.1879 -0.0936
14342W        W30236   4.787  15.024  14.486 -0.1539 -0.2490  0.1076
14343W        W30237   2.414  15.339  11.727  0.2078 -0.2253  0.0484
14344W        W30238  15.256  12.893  11.217 -0.1797 -0.0638 -0.0118
14345W        W30239  15.390  17.013  13.374 -0.1325 -0.0668  0.0316
14346W        W30240   8.512   3.860  12.487  0.2623  0.2883  0.0630
14347W        W30241   6.350  17.598  14.872 -0.2273 -0.2439 -0.2756
14348W        W30242   6.851   4.659  14.750 -0.1004  0.1300 -0.0046
14349W        W30243   7.357  13.350   0.922 -0.1203 -0.2527 -0.4219
14350W        W30244  13.256  11.534  12.066  0.1942  0.0672  0.0283
14351W        W30245  11.901  16.532  12.589  0.1388  0.3464  0.0245
14352W        W30246  16.621  16.983  14.280  0.1551  0.1409  0.0814
14353W        W30247  14.990  12.226   4.540  0.1333 -0.4401 -0.1612
14354W        W30248  10.017   4.429   1.927  0.0888 -0.1187 -0.1950
14355W        W30249  12.526  18.039  13.846 -0.1915  0.3858  0.0690
14356W        W30250  16.769   4.043   2.289 -0.1531 -0.1305  0.2573
14357W        W30251  12.294   4.036   3.265  0.0228  0.0843  0.1468
14358W        W30252   8.841  13.393   2.082  0.1763 -0.1749 -0.1353
14359W        W30253   8.547  15.335   3.029  0.0213 -0.1226 -0.2918
14360W        W30254   0.549   3.600  14.477  0.0638  0.1327  0.1240
14361W        W30255   4.769  11.014   4.866  0.1315 -0.3027 -0.3011
14362W        W30256   9.591   9.308  11.197 -0.0259 -0.2172 -0.0751
14363W        W30257   6.122   3.321  10.373 -0.2421 -0.2100 -0.1998
14364W        W30258   1.027  19.044   3.759 -0.0530 -0.1213 -0.1980
14365W        W30259  16.547   2.471  13.321  0.0345 -0.2096 -0.2190
14366W        W30260  14.854   8.356   4.520 -0.0991 -0.0564  0.1459
14367W        W30261   9.655   3.818  13.111  0.1357  0.1358  0.2901
14368W        W30262  17.195   5.263  13.579  0.2386  0.0000  0.1225
14369W        W30263   6.535   4.538  11.385 -0.3989  0.3637 -0.1266
14370W        W30264   8.781  11.930   0.647  0.1118 -0.0016  0.0707
14371W        W30265  10.371   3.125  14.062 -0.0391 -0.0383 -0.0930
14372W        W30266  12.203   7.683  12.443  0.1784  0.3097  0.0021
14373W        W30267  16.282   5.061   0.369  0.0686  0.0808  0.0668
14374W        W30268   5.670  10.674  13.303  0.2135 -0.1809 -0.0117
14375W        W30269   1.281  11.492   6.254 -0.0665 -0.0634  0.1740
14376W        W30270  17.438  13.069   4.841 -0.3093  0.0413 -0.2004
14377W        W30271  10.167   3.823   0.125  0.3055  0.0317 -0.0765
14378W        W30272   7.850  16.051  10.022 -0.1136  0.2739 -0.1054
14379W        W30273  15.197  10.221   4.078  0.1416 -0.1132  0.1565
14380W        W30274  12.861  12.175  15.110  0.0841  0.4463 -0.1167
14381W        W30275  17.201  15.948   3.795 -0.3979  0.2140  0.2661
14382W        W30276   6.752  13.931  13.942 -0.1039 -0.0025 -0.1606
14383W        W30277   0.846   6.466   4.320 -0.2214  0.1079  0.1960
14384W        W30278  15.999   8.271   3.951  0.0841  0.1009  0.5568
14385W        W30279   8.042  10.428   4.086 -0.0262 -0.1014 -0.1811
14386W        W30280   8.273  11.743   2.674 -0.0784  0.1195 -0.2069
14387W        W30281  12.641  11.818  10.888  0.0487  0.1660  0.3888
14388W        W30282  13.743   5.367  12.715 -0.0151 -0.0685 -0.0396
14389W        W30283   9.511  15.359  13.045 -0.0055 -0.0210 -0.0734
14390W        W30284   0.392  16.866  12.902 -0.1455 -0.0590  0.2160
14391W        W30285  13.481  18.543   3.658 -0.0380  0.1619  0.4282
14392W        W30286  14.866   5.681  12.011  0.1621 -0.0515 -0.3457
14393W        W30287  18.300   5.017  12.105 -0.1985  0.0598  0.1924
14394W        W30288  12.242  12.588   3.960  0.0635  0.1973  0.1263
14395W        W30289   5.276   5.789  10.819  0.1362  0.1541  0.1771
14396W        W30290   7.406  10.032  14.111 -0.1463 -0.1428  0.1172
14397W        W30291  16.410  15.829   3.698  0.0246 -0.1417 -0.1260
14398W        W30292  12.813   7.051   0.659  0.0077  0.1813  0.1991
14399W        W30293   9.509   5.205   4.466  0.0648  0.0108  0.0819
14400W        W30294  17.151  11.217   2.643 -0.0986  0.0762 -0.3066
14401W        W30295  12.039   4.373  12.324 -0.2106  0.1790  0.0987
14402W        W30296  16.732   4.562  13.958  0.1437 -0.0961 -0.2569
14403W        W30297   6.932   8.741  12.139 -0.3657 -0.3911  0.2092
14404W        W30298   3.222  10.146  12.442 -0.4000 -0.0878 -0.0209
14405W        W30299   7.094   5.654   4.571  0.1604 -0.2705  0.0584
14406W        W30300   4.983   5.935   4.174  0.0700 -0.0069  0.2379
14407W        W30301   8.510   2.310   2.002 -0.0671  0.0421  0.0639
14408W        W30302  17.480  17.383   1.613 -0.0492 -0.1740 -0.0465
14409W        W30303  16.988   0.902   5.876  0.1338  0.2365  0.1932
14410W        W30304   3.464   9.820   3.796  0.3277  0.1657 -0.0166
14411W        W30305   2.511  12.274  11.245 -0.2527  0.1801  0.4573
14412W        W30306   7.766  17.793   0.786 -0.4078 -0.0194 -0.1548
14413W        W30307  10.290   8.311   0.065 -0.0248 -0.0079  0.3523
14414W        W30308  14.433   0.076   4.068  0.4110  0.4705 -0.3034
14415W        W30309  12.884   9.566  14.129  0.0558  0.0712  0.4968
14416W        W30310   9.776   2.597  13.187  0.1246 -0.2702  0.2564
14417W        W30311   6.635   3.528   2.997 -0.1494 -0.0681  0.1619
14418W        W30312   2.522   1.707   3.264  0.0918 -0.3433  0.0022
14419W        W30313  17.077  16.794  10.998  0.4089  0.0048 -0.1642
14420W        W30314  11.933  18.039   0.126 -0.0489 -0.1641  0.1754
14421W        W30315  12.787   5.749   2.725  0.0579  0.1094  0.0055
14422W        W30316   5.423   2.471  12.768 -0.5242 -0.3068  0.0896
14423W        W30317   2.736   7.655   4.788  0.0657 -0.0772 -0.0437
14424W        W30318   9.073   5.944   4.138 -0.0320  0.2140  0.3706
14425W        W30319   5.111  16.595  14.295  0.0800  0.0918 -0.2697
14426W        W30320   9.010   2.070   1.519  0.3452 -0.1355 -0.2682
14427W        W30321  10.157   0.083   2.731  0.3199 -0.1644 -0.2119
14428W        W30322   8.730   9.840   2.486 -0.0857  0.0928 -0.2765
14429W        W30323   9.226   1.142  14.233 -0.1511  0.1886 -0.1518
14430W        W30324   8.465  16.341  11.318  0.1407  0.1799 -0.3079
14431W        W30325   4.604  14.619   2.421  0.1670  0.0183 -0.4011
14432W        W30326   3.141  13.116  11.294 -0.1272  0.1319 -0.0837
14433W        W30327   3.649  16.636   2.820 -0.0592  0.0627 -0.0684
14434W        W30328  14.111   5.463  15.066 -0.0937 -0.0699 -0.6197
14435W        W30329   0.368  11.391  14.840  0.1699  0.1129  0.2001
14436W        W30330  14.318  14.482   1.177 -0.1323  0.0999  0.1416
14437W        W30331   8.103  11.002  15.145 -0.2122 -0.0113 -0.3230
14438W        W30332  16.993  12.634  14.713 -0.1418 -0.1556  0.0321
14439W        W30333  14.439   7.051   2.027 -0.3821  0.4349  0.3196
14440W        W30334   2.538  10.102   1.645  0.1436 -0.2255  0.1434
14441W        W30335  11.239  17.433   0.170 -0.2156  0.2445 -0.0160
14442W        W30336   8.889  15.578   3.348  0.0752 -0.0875 -0.2414
14443W        W30337  11.409  16.126   3.968  0.0022 -0.1425  0.1856
14444W        W30338   5.708   0.927   3.398 -0.0305 -0.4070 -0.1459
14445W        W30339  10.863   9.019   1.709 -0.1137 -0.1062 -0.0768
14446W        W30340  17.731   5.030   4.798  0.0174 -0.3302  0.2387
14447W        W30341   6.344  11.232   2.560  0.0733  0.1034 -0.3631
14448W        W30342   7.959   7.650   0.419 -0.1588  0.1044 -0.2223
14449W        W30343   9.848   6.525   1.599 -0.1746 -0.0939  0.0090
14450W        W30344   5.116   4.883  11.756  0.2946  0.0304  0.3164
14451W        W30345  13.540   9.352   0.809  0.3500 -0.1266  0.2683
14452W        W30346   2.724   9.104   4.795  0.2536 -0.1045 -0.1164
14453W        W30347   2.337   3.862  12.062  0.0745  0.1689  0.1467
14454W        W30348   8.159  18.706   2.160 -0.0297  0.2065  0.0480
14455W        W30349  10.741   7.107   1.087  0.0984  0.1802 -0.1758
14456W        W30350   9.160   7.016   1.919 -0.2401 -0.0785  0.3289
14457W        W30351  17.758   3.020   3.908  0.0391 -0.0416 -0.1438
14458W        W30352  17.267   6.358  14.478 -0.2159  0.0102  0.4352
14459W        W30353  16.345  17.437   0.957 -0.3069  0.0002 -0.0844
14460W        W30354  16.909  17.335   0.797  0.0244  0.2532 -0.0616
14461W        W30355  18.147  14.214   0.229 -0.1054  0.0063  0.0199
14462W        W30356   8.456  14.275   5.193  0.0123 -0.1052 -0.1495
14463W        W30357   5.650   6.856  10.946 -0.2801 -0.1181  0.0670
14464W        W30358   8.314  12.840  13.802 -0.3235 -0.2781  0.4810
14465W        W30359   8.781   4.240   0.882  0.0124 -0.0738  0.0307
14466W        W30360  14.759  11.956   3.750  0.0054  0.0059 -0.1122
14467W        W30361   5.988  17.753  13.774 -0.0780  0.0708 -0.0998
14468W        W30362  14.097  10.239  13.165 -0.0782  0.2586  0.0690
14469W        W30363  10.856   0.359  13.279 -0.1192 -0.1096  0.0734
14470W        W30364  16.684   6.412   0.376 -0.0996  0.1021  0.1197
14471W        W30365   0.927  15.072   2.416  0.1141  0.1634 -0.3325
14472W        W30366  10.930  14.685   5.119 -0.2857  0.0424  0.3015
14473W        W30367  10.585   3.351   4.072 -0.2133  0.1357  0.1240
14474W        W30368   7.603   1.101  11.386  0.3673  0.0597 -0.1952
14475W        W30369   9.850   9.452  10.205 -0.2357 -0.1667  0.0210
14476W        W30370  11.858  11.086   4.604  0.3534 -0.3200  0.1035
14477W        W30371   3.688  15.167   4.299 -0.1066 -0.1124 -0.1492
14478W        W30372   0.617   4.282  14.297 -0.0414 -0.0549 -0.1840
14479W        W30373   5.589   9.340   9.286 -0.0509  0.1049 -0.0393
14480W        W30374  12.873  13.806   3.106 -0.0094 -0.0073 -0.0232
14481W        W30375  15.333   1.563   5.301  0.2484  0.2081  0.0863
14482W        W30376   4.402  16.225   4.861  0.2218  0.1053 -0.0315
14483W        W30377  13.649   6.815   4.462 -0.1610  0.1863 -0.1698
14484W        W30378   8.794  17.505   3.531  0.2343 -0.1485 -0.2091
14485W        W30379   8.220   3.663   1.454  0.0140  0.0788 -0.0707
14486W        W30380  19.165  11.061   0.056 -0.2405  0.3017 -0.1821
14487W        W30381   3.166  18.807  13.561  0.1094  0.1547  0.3469
14488W        W30382   2.448   1.083   4.798  0.2097  0.0855 -0.0155
14489W        W30383   1.855   4.907   3.155 -0.0537  0.2450 -0.0032
14490W        W30384   4.843   5.836   3.705  0.2896  0.0895 -0.1916
14491W        W30385   7.287   7.530   4.839 -0.1021 -0.0775 -0.4135
14492W        W30386   9.654   7.915   0.825 -0.2539  0.0619 -0.0008
14493W        W30387  14.347   5.540   4.702  0.0600 -0.0278  0.1745
14494W        W30388   1.742   2.837   1.954 -0.2248 -0.0633  0.1122
14495W        W30389   9.322   7.478  14.315 -0.3176 -0.0536 -0.0055
14496W        W30390   6.984  11.267   1.240  0.2518 -0.2739 -0.3242
14497W        W30391   0.256  15.893   1.214 -0.0239 -0.0097  0.1645
14498W        W30392  11.351   5.059  14.978  0.0813  0.0680 -0.1554
14499W        W30393  14.638   5.717   2.923  0.3891  0.0605 -0.2360
14500W        W30394   2.955  14.738  14.999 -0.0341 -0.1739  0.0336
14501W        W30395  11.118  14.573   2.672  0.2517  0.5065 -0.2425
14502W        W30396   8.891  18.947   2.395 -0.3510  0.0462  0.0714
14503W        W30397  14.112   3.099   4.240 -0.4135 -0.3065 -0.1781
14504W        W30398   5.037   2.024   4.514 -0.2766 -0.1724  0.0952
14505W        W30399   8.119   5.400  11.124 -0.1412  0.1952 -0.0310
14506W        W30400  15.527  17.719   1.391  0.0307 -0.2684  0.0484
14507W        W30401   3.831   4.573  11.586  0.0690  0.2921 -0.1255
14508W        W30402   3.576   7.199  14.128 -0.0802 -0.5480  0.0300
14509W        W30403  18.989   8.689   5.026 -0.2117  0.1996  0.2400
14510W        W30404   6.872   1.306   1.188 -0.1773 -0.0746  0.0522
14511W        W30405  15.901  19.108   2.893  0.0205 -0.1560  0.1838
14512W        W30406   7.923  12.676  12.648  0.1044  0.2227 -0.0447
14513W        W30407  11.132  11.278   2.585 -0.1998 -0.0846 -0.0320
14514W        W30408   7.845  15.263  13.494  0.0330  0.2782 -0.2178
14515W        W30409  18.188   2.559   3.878 -0.1508 -0.1391 -0.1459
14516W        W30410  18.207  16.743   3.595 -0.2609 -0.1224 -0.1779
14517W        W30411  13.660   0.399   4.662 -0.0518  0.2990  0.0207
14518W        W30412  13.002   9.435  10.705 -0.2006  0.0332  0.0575
14519W        W30413   4.897   2.563   0.890  0.5985 -0.1005 -0.0777
14520W        W30414   1.039  11.389  12.351  0.0091  0.0973 -0.0450
14521W        W30415  14.141   3.980   1.055  0.4135  0.2683 -0.0101
14522W        W30416   3.313  15.046  11.985 -0.0363 -0.1464 -0.3478
14523W        W30417  16.805   7.534   5.119  0.0642  0.0272 -0.2185
14524W        W30418  17.998  13.033   0.499 -0.0864  0.0932 -0.0933
14525W        W30419   7.026  18.085  15.143  0.1359  0.1072 -0.1083
14526W        W30420  13.478   2.022  14.976 -0.0423  0.1220 -0.0562
14527W        W30421  12.309  15.219   0.379 -0.1150 -0.1601 -0.0409
14528W        W30422   0.408   9.074   0.938  0.1846  0.0608  0.2351
14529W        W30423   1.533  17.054  12.705 -0.0779  0.2018  0.2957
14530W        W30424   6.383   3.545   0.437 -0.1407  0.0336  0.3858
14531W        W30425   5.993  11.032  12.328 -0.1539 -0.3228 -0.1726
14532W        W30426   3.474  10.297  14.855  0.0530 -0.1773 -0.0933
14533W        W30427  18.846  18.278  13.701 -0.1043  0.0090  0.6074
14534W        W30428  11.688   6.943  14.888 -0.0770  0.1144 -0.0514
14535W        W30429   1.026  13.714  11.486  0.3807 -0.1894  0.0474
14536W        W30430   3.510   1.571   2.619 -0.1813  0.2243  0.2235
14537W        W30431   9.851  14.984   0.568 -0.0769 -0.0401  0.0036
14538W        W30432   1.004   3.315   1.621  0.3401  0.2220  0.1652
14539W        W30433   3.670   1.853   0.763  0.2245 -0.0379  0.2609
14540W        W30434  12.404  10.731   0.182  0.0142  0.0782  0.0044
14541W        W30435   5.292  14.408  13.596  0.1224 -0.0512 -0.0860
14542W        W30436  10.591   3.029   4.462  0.2340  0.1314  0.0918
14543W        W30437  16.707   5.827  13.902 -0.2784 -0.0882  0.0186
14544W        W30438  11.456   4.800  11.119  0.1109  0.4674 -0.3077
14545W        W30439   0.326   2.307  14.842  0.0816  0.1569  0.0424
14546W        W30440   5.633  15.760  14.780  0.0158 -0.1077 -0.0672
14547W        W30441  16.941   7.981  11.883 -0.1943  0.2884  0.0172
14548W        W30442  11.348   9.624   1.258 -0.2903  0.0116  0.0127
14549W        W30443   5.938   4.920  10.749 -0.1334 -0.2756 -0.2008
14550W        W30444  11.409  18.886  11.896 -0.0642  0.1303  0.2290
14551W        W30445   3.413  15.494  13.368  0.0354  0.2102  0.1370
14552W        W30446  18.588   3.832  11.078  0.4347  0.1677  0.1448
14553W        W30447  14.033  10.794   0.333 -0.0127 -0.0759 -0.1408
14554W        W30448   3.830   3.182  14.890  0.2058  0.1306  0.1551
14555W        W30449   5.818  10.922  12.835  0.3703 -0.1141 -0.0880
14556W        W30450  18.646  13.053   0.420 -0.1012  0.2159  0.1546
14557W        W30451   5.277   8.414   4.496  0.1217  0.2612 -0.4011
14558W        W30452  13.686   6.883   0.867  0.0271 -0.3316 -0.0882
14559W        W30453  17.632   3.440   5.899  0.0180 -0.2525  0.2421
14560W        W30454   0.342   8.974  13.208 -0.0371  0.0001  0.1704
14561W        W30455   4.850  13.461   1.828  0.0754  0.2744 -0.1345
14562W        W30456  10.042   0.990   3.068  0.1357 -0.1481  0.3524
14563W        W30457  15.514   0.742   2.605 -0.0112 -0.0308  0.2527
14564W        W30458  10.058   5.283  11.687 -0.1893  0.1752 -0.0110
14565W        W30459   1.788   9.016  14.752  0.2090 -0.2413  0.0138
14566W        W30460   8.361  15.674   4.792 -0.2730  0.1452  0.1059
14567W        W30461  17.503   9.621   4.622  0.2019 -0.0617 -0.2496
14568W        W30462   1.392  17.291   5.755 -0.2899  0.3840 -0.0561
14569W        W30463  10.971  13.004  11.178  0.0914  0.0365 -0.0557
14570W        W30464   0.206  14.208   0.711  0.0233  0.1331  0.0147
14571W        W30465   5.056  12.867  12.102  0.1716 -0.0614  0.0687
14572W        W30466  11.301   4.107   1.389 -0.2570 -0.1586 -0.0830
14573W        W30467   4.090  13.326  14.197  0.1178  0.0182 -0.1699
14574W        W30468   0.585  13.718   2.001  0.5300  0.1853 -0.1970
14575W        W30469   2.720  13.092  14.149  0.1319 -0.0518  0.1737
14576W        W30470  13.075   7.891  11.000 -0.0431  0.4002 -0.1318
14577W        W30471   7.906   3.729  14.169  0.1933 -0.0746 -0.1964
14578W        W30472  14.801   1.273  13.219 -0.0267  0.1782  0.0543
14579W        W30473   7.215   6.895   3.056  0.2128 -0.5622  0.3321
14580W        W30474   3.297  11.128   3.712 -0.0263  0.2101  0.0124
14581W        W30475   3.660  18.212   4.175  0.0982  0.0755  0.0389
14582W        W30476  13.308  14.673   2.154 -0.0532  0.1216  0.0184
14583W        W30477  15.987   2.164  13.365  0.1913 -0.0875  0.0472
14584W        W30478  14.426   3.246  13.688  0.0582 -0.1402 -0.0670
14585W        W30479  16.110  18.044  11.026  0.4084  0.3899  0.0715
14586W        W30480  14.980   8.193   1.632 -0.0587 -0.0463  0.3014
14587W        W30481  17.675   5.196  12.907  0.0997 -0.0691 -0.1541
14588W        W30482   0.595  10.564   1.916 -0.2520  0.3835  0.0483
14589W        W30483  17.967  12.870   2.541  0.2898  0.0757  0.0226
14590W        W30484  14.328   0.753   2.113 -0.1350 -0.3983 -0.0408
14591W        W30485   9.654   8.888   0.767 -0.3009 -0.0535 -0.2803
14592W        W30486  15.728  14.378  13.662 -0.0508  0.0190  0.2478
14593W        W30487   3.924  13.618   0.747  0.3056 -0.0543 -0.1831
14594W        W30488   6.699   0.233  11.480  0.3433 -0.3083  0.2404
14595W        W30489  11.292   5.244   4.052  0.2555 -0.1346 -0.0653
14596W        W30490  16.432   9.370   2.206 -0.0862  0.1482  0.0249
14597W        W30491   8.600  18.840  11.330 -0.0166 -0.4477  0.1368
14598W        W30492   4.649  13.477  13.381  0.2140  0.2430 -0.0043
14599W        W30493  17.924  17.274  12.500  0.1241 -0.1972  0.0968
14600W        W30494   5.760  10.285   3.922  0.0796 -0.0499  0.1161
14601W        W30495  14.069   6.148   0.936 -0.2661 -0.1471 -0.5865
14602W        W30496  15.776  13.499   0.422 -0.2685  0.1123  0.2230
14603W        W30497  13.001   6.384  11.188  0.0285  0.3058  0.1884
14604W        W30498   5.970   8.972   1.233  0.0605 -0.1193  0.1856
14605W        W30499  15.463   5.381   2.048 -0.0866 -0.0096  0.0887
14606W        W30500   6.099   0.297   0.198 -0.1044  0.1697  0.1205
14607W        W30501  16.576  16.923  11.192  0.1711  0.1257 -0.0752
14608W        W30502   5.596   2.050  13.886  0.2070  0.2756 -0.0933
14609W        W30503  12.513  16.617   0.113  0.4774 -0.2324  0.4285
14610W        W30504   0.254   8.698   4.884 -0.2028 -0.0468  0.0026
14611W        W30505   1.282   8.728  15.143 -0.2240 -0.1579 -0.1518
14612W        W30506   7.117  12.059  11.056  0.1861 -0.0201 -0.0651
14613W        W30507   3.083  13.917  11.987  0.1793 -0.1504  0.3521
14614W        W30508  16.368   3.003   3.122 -0.2883 -0.0018  0.5275
14615W        W30509  13.004  13.816  11.976  0.0224 -0.1401 -0.0030
14616W        W30510   1.128   6.722   5.679 -0.2825  0.0682  0.0019
14617W        W30511   1.634   1.167  10.713 -0.0582  0.0087  0.1846
14618W        W30512  15.275   8.566  15.020 -0.2948 -0.1052 -0.4030
14619W        W30513   7.586  18.348   1.169 -0.0031  0.0112 -0.1551
14620W        W30514   5.843   2.910   1.336  0.1319 -0.3084  0.1465
14621W        W30515   5.059   9.258  12.375  0.1343 -0.0135  0.0402
14622W        W30516  19.011  13.355   2.944  0.3830  0.1388  0.0701
14623W        W30517   4.408  17.543  14.120 -0.2568  0.0930  0.2384
14624W        W30518   3.789  16.716  13.035  0.1056  0.1608 -0.0758
14625W        W30519  13.684  17.045  10.685 -0.2941  0.1084 -0.3035
14626W        W30520  13.575   8.520   1.208 -0.0734 -0.0075 -0.2296
14627W        W30521   3.564  13.891  11.185  0.0952  0.1495  0.2433
14628W        W30522  18.846   3.054  11.706  0.1438  0.2691  0.1192
14629W        W30523  11.723   8.971  11.016  0.1096 -0.0981 -0.0244
14630W        W30524  14.718   0.749  13.873 -0.2839  0.1992 -0.1972
14631W        W30525   8.499  10.444   3.104  0.1780  0.0951  0.1355
14632W        W30526  17.630  15.017   3.396  0.1741 -0.3079  0.0745
14633W        W30527   1.703  15.921   1.517  0.4619 -0.0976 -0.1223
14634W        W30528  12.530  10.382  11.983 -0.0332  0.1608  0.1064
14635W        W30529  14.505  13.527  13.008 -0.1138 -0.1465 -0.3441
14636W        W30530  13.891   7.800  10.523 -0.0977 -0.1118 -0.0796
14637W        W30531   2.085   4.908   4.227 -0.0048 -0.1400 -0.0616
14638W        W30532   5.471  11.623   4.441  0.1523 -0.3835  0.1658
14639W        W30533   6.898   8.581   1.096 -0.0166 -0.0795  0.0182
14640W        W30534   1.442  16.028   5.057  0.2495  0.1361  0.0771
14641W        W30535  18.411  10.543   4.768 -0.1742 -0.0367  0.0867
14642W        W30536   5.533  10.131  12.814  0.2092 -0.1641 -0.2740
14643W        W30537  11.169  15.071  12.547  0.0477  0.0540 -0.1245
14644W        W30538   4.903  17.717  13.952 -0.2338 -0.1139  0.3429
14645W        W30539   8.311  13.291   2.093 -0.0932 -0.1580 -0.0103
14646W        W30540   3.481   2.319  10.334  0.1351 -0.1129 -0.0558
14647W        W30541  17.968   4.214  11.504  0.4574  0.1238  0.0875
14648W        W30542   4.249   2.091  10.766  0.0864  0.1153 -0.1175
14649W        W30543   9.807   9.753  11.165 -0.4958  0.0809  0.1053
14650W        W30544   8.097   9.317   3.246  0.0812  0.2622 -0.0647
14651W        W30545  17.312   6.865  12.352 -0.0671  0.0154  0.0661
14652W        W30546   0.963  18.162  13.120  0.1097 -0.0947 -0.2229
14653W        W30547   5.432   3.791   0.893  0.0561  0.0610 -0.1963
14654W        W30548  15.063  14.395  14.069  0.0945  0.2298 -0.1943
14655W        W30549   1.498  17.805  12.363  0.0555 -0.3597 -0.0916
14656W        W30550   6.761   7.971  11.636  0.0731 -0.1089  0.0860
14657W        W30551  13.519  12.599  11.824 -0.0647 -0.2004 -0.1539
14658W        W30552   3.828  17.474   0.459 -0.0198 -0.1925 -0.1366
14659W        W30553   6.050  18.731   1.019  0.0998  0.0561 -0.4247
14660W        W30554  11.635  19.083   5.560 -0.1952 -0.3174 -0.0728
14661W        W30555  12.487   7.546   0.026  0.0976  0.1547 -0.0717
14662W        W30556  14.480   2.799   5.538 -0.1599  0.1623  0.0307
14663W        W30557   7.700  11.217   5.327 -0.3812 -0.0519 -0.2689
14664W        W30558   9.511  13.527  14.178 -0.2549 -0.1097  0.3673
14665W        W30559  10.053  10.274   0.473 -0.4083 -0.2387 -0.1072
14666W        W30560  18.345  14.413  13.371 -0.3436 -0.1838  0.0445
14667W        W30561   6.680   1.906  10.348 -0.1839 -0.1117 -0.1305
14668W        W30562  18.625   3.918   2.773  0.1609  0.1371  0.1521
14669W        W30563  12.623   1.254   4.647  0.2198  0.0020  0.1393
14670W        W30564   0.478   3.749  10.772 -0.2321  0.1009  0.1209
14671W        W30565  11.344  17.644   3.434  0.0176 -0.1950  0.0406
14672W        W30566   9.103   6.583  14.199 -0.0625 -0.1006  0.1624
14673W        W30567  16.335   9.617   4.605 -0.0546  0.0497 -0.1434
14674W        W30568  12.744  17.041  11.111 -0.3812  0.1313  0.3012
14675W        W30569  11.183  16.791  10.906 -0.0060  0.0596  0.0236
14676W        W30570  18.189  18.490   5.516  0.0107 -0.1950 -0.0109
14677W        W30571   9.903   9.979   4.768  0.4287 -0.4666  0.1459
14678W        W30572  10.598   3.960  13.799  0.0008  0.1927 -0.3752
14679W        W30573  12.764  18.913   1.806  0.0091 -0.0517  0.1032
14680W        W30574   7.042  12.043   2.506 -0.0250  0.1771  0.1454
14681W        W30575  11.956  10.735   1.087 -0.2953 -0.0582  0.3512
14682W        W30576  16.715  16.079  12.231 -0.3812 -0.0354 -0.0255
14683W        W30577  12.676  10.992   0.487 -0.3873 -0.3442  0.1695
14684W        W30578   7.837  14.643  12.710  0.2665 -0.2661  0.0741
14685W        W30579  11.032   8.951  14.700 -0.0941 -0.1101 -0.1011
14686W        W30580  18.016  10.060  14.155  0.1349  0.1173  0.1943
14687W        W30581   4.946   7.791   3.672 -0.0312 -0.0477  0.0012
14688W        W30582   7.298   5.941   5.022 -0.4707  0.0570  0.3026
14689W        W30583   0.401  15.222   4.160  0.2448  0.3450  0.0342
14690W        W30584  15.357   5.431   0.767 -0.1649 -0.2259 -0.0209
14691W        W30585   7.174   9.848  11.508  0.4378 -0.0292  0.0646
14692W        W30586  14.878  18.536   0.870 -0.5133  0.0056 -0.2656
14693W        W30587   1.867   4.273   2.399 -0.0360 -0.0444  0.3445
14694W        W30588  18.890  11.221  13.744  0.0232  0.2637 -0.2224
14695W        W30589  17.343   2.760   4.069  0.0269 -0.2758  0.2815
14696W        W30590   8.154   1.776   0.175  0.3464 -0.0424  0.0014
14697W        W30591  15.006  14.909  13.341 -0.2665  0.2473  0.0741
14698W        W30592   4.679  16.171   1.352  0.3492  0.0322 -0.1511
14699W        W30593  17.701   1.178  13.426 -0.2645 -0.2037  0.2157
14700W        W30594  10.457   9.285   1.615 -0.1203  0.1071  0.0149
14701W        W30595  12.289   1.613   1.520  0.4435  0.0046 -0.2244
14702W        W30596  16.307   7.851   0.497 -0.3192 -0.0769 -0.3884
14703W        W30597   5.285  14.459  10.952  0.0851 -0.0223  0.1166
14704W        W30598   4.939   1.281   3.905  0.2003 -0.0425 -0.1043
14705W        W30599  15.409   6.272   1.951  0.1867  0.0350 -0.0789
14706W        W30600   9.919   7.675   4.237  0.3713  0.0414 -0.1476
14707W        W30601  17.832   1.591   1.457 -0.3144  0.0071  0.1073
14708W        W30602  17.498   5.986   0.015 -0.3463  0.0862 -0.1049
14709W        W30603  12.883  11.188  13.999 -0.3691 -0.3097 -0.2072
14710W        W30604   2.999   5.784  11.531 -0.0263 -0.0925 -0.3681
14711W        W30605   4.240  10.609   3.680  0.3881 -0.1046  0.1557
14712W        W30606   4.286   4.667  10.236 -0.0860  0.2473  0.0933
14713W        W30607   3.735   3.951   4.618  0.0398 -0.1397 -0.0335
14714W        W30608   9.949   4.854   5.401  0.0128 -0.6458  0.2542
14715W        W30609   0.619  12.435   3.745  0.0961  0.1122  0.1117
14716W        W30610  17.771   4.408   4.616 -0.1237 -0.3164  0.1587
14717W        W30611  18.859  17.759   4.249  0.0644 -0.1125  0.1665
14718W        W30612  10.983  18.937  10.697  0.0018 -0.0446 -0.0953
14719W        W30613   4.736   4.735  12.647 -0.0568  0.1640  0.0878
14720W        W30614   5.364   7.917   4.322 -0.0041  0.1542 -0.0624
14721W        W30615  11.685  10.827  14.539 -0.1842 -0.2580  0.1428
14722W        W30616  13.624   7.181  13.136  0.2338 -0.0510  0.1058
14723W        W30617   1.904  18.266   1.127  0.0224 -0.4627 -0.0594
14724W        W30618   3.732   3.044   4.921 -0.0265  0.1840  0.0394
14725W        W30619   6.166   0.832   4.220  0.1813 -0.2246 -0.1957
14726W        W30620  16.762   8.075  12.770 -0.2117  0.1248  0.1808
14727W        W30621  12.576   0.289  11.356 -0.1929  0.3331 -0.1413
14728W        W30622   9.387   9.642  14.287 -0.0137  0.3236 -0.2924
14729W        W30623  17.462   0.436   1.436  0.1628  0.0503 -0.1131
14730W        W30624  18.413   2.735  10.636  0.1881  0.1054  0.3563
14731W        W30625   9.366  11.085  13.258 -0.1495  0.0774  0.0159
14732W        W30626   2.664  17.106   0.724  0.1257 -0.1029 -0.4006
14733W        W30627   0.872   6.696  11.938 -0.0146 -0.2539 -0.1979
14734W        W30628  13.359  17.654   0.334  0.2352  0.0988  0.0615
14735W        W30629  15.541  11.811  14.272 -0.0464 -0.0468  0.1497
14736W        W30630  14.529  18.937   2.440 -0.0384 -0.1581  0.0540
14737W        W30631  18.323  16.691   4.414  0.1027 -0.1422  0.1479
14738W        W30632  18.770   7.716   3.938 -0.0269  0.2010 -0.1111
14739W        W30633   0.390  15.847   2.548 -0.3680 -0.0611 -0.2992
14740W        W30634  17.843   2.152   3.728 -0.2165  0.1328  0.2778
14741W        W30635  19.054   1.818   4.325 -0.1832  0.0997  0.0030
14742W        W30636  11.064  18.168   2.442  0.2537 -0.0248 -0.1197
14743W        W30637   2.484   8.172  10.385 -0.1665  0.0171 -0.1189
14744W        W30638  15.121  18.452  13.727 -0.0914 -0.0405  0.1822
14745W        W30639   5.799  11.391  12.696  0.1756  0.0567  0.0222
14746W        W30640   8.833  10.459  13.640  0.2450 -0.2986 -0.3932
14747W        W30641  14.866  10.545  10.561 -0.0049  0.1142 -0.3659
14748W        W30642  14.950   1.630  14.017  0.4828  0.2317 -0.2992
14749W        W30643   0.198   8.296   1.478 -0.2186 -0.3100  0.2226
14750W        W30644  16.012  17.586   0.582 -0.2007  0.1921 -0.0267
14751W        W30645  12.718   3.243   5.879 -0.0761  0.1037  0.0978
14752W        W30646   9.900  10.085   5.326 -0.0985  0.0177 -0.2413
14753W        W30647   3.532   0.798   0.932  0.1251  0.2741  0.1211
14754W        W30648  16.900  12.131  10.833 -0.0789  0.2607  0.0397
14755W        W30649  14.897   9.594  14.881 -0.0039  0.0291  0.1640
14756W        W30650   6.183   3.286   4.465 -0.0155  0.2479 -0.0407
14757W        W30651   3.770   1.855  14.814  0.0870  0.1823 -0.3231
14758W        W30652  12.817  16.306   1.123  0.1903 -0.2348  0.1608
14759W        W30653  16.406  15.361   2.345 -0.2171 -0.1748 -0.1776
14760W        W30654  17.261   5.934   4.327 -0.3395  0.3516 -0.0354
14761W        W30655   0.578  18.707  14.468  0.2345  0.3030 -0.1234
14762W        W30656  14.945  14.029  10.524  0.2419 -0.1459 -0.1397
14763W        W30657   6.849  18.768   0.034  0.1819 -0.1695  0.0733
14764W        W30658   8.376  15.151  11.404 -0.1441  0.0075 -0.1922
14765W        W30659  14.321   2.353   5.642 -0.1946 -0.1374  0.0236
14766W        W30660   6.078  15.627  10.947  0.1846 -0.0433 -0.0067
14767W        W30661  11.924   2.586   0.844  0.2943  0.2634  0.1464
14768W        W30662   5.159  16.357   1.337  0.0111  0.1374 -0.1500
14769W        W30663  15.376   8.024   5.177  0.4073  0.1254 -0.1566
14770W        W30664  17.292   4.793  13.973 -0.3902 -0.0271 -0.1942
14771W        W30665  14.041  13.779   0.576  0.0756 -0.1448 -0.0557
14772W        W30666  16.398   8.746   1.060  0.0697 -0.4154  0.1257
14773W        W30667   4.385   6.120  11.944 -0.3622  0.1406 -0.0828
14774W        W30668  14.983  11.603  10.743  0.1632  0.0804  0.3566
14775W        W30669  12.195  14.203   2.480  0.0116 -0.0002  0.2009
14776W        W30670   5.442   6.097   2.164  0.1465 -0.0436  0.1297
14777W        W30671  14.576  11.794  14.849 -0.3311  0.1681 -0.0710
14778W        W30672  15.184   0.141  12.375  0.4012 -0.1522 -0.0467
14779W        W30673   4.045   3.442   3.320  0.2152  0.1724 -0.1208
14780W        W30674  13.646  14.180   3.857  0.3581 -0.0241 -0.0959
14781W        W30675   0.948   1.901   1.977 -0.2103  0.1428  0.2100
14782W        W30676  11.577  15.583   0.169  0.0477 -0.0835 -0.1359
14783W        W30677  15.553   5.154  11.746 -0.0713 -0.4831  0.2968
14784W        W30678   1.505   9.933  11.630  0.4986  0.0835  0.0704
14785W        W30679   2.548   7.840   3.236  0.0119 -0.1474 -0.0166
14786W        W30680   6.324  12.766   0.103 -0.1035 -0.3295  0.2649
14787W        W30681  18.098  10.130   4.105  0.0025 -0.1101  0.0238
14788W        W30682   5.651  14.306   3.867  0.3027  0.0905  0.4095
14789W        W30683   0.976  15.333   1.304  0.1529  0.0005  0.1377
14790W        W30684   1.241  16.131   0.127  0.5131  0.2397  0.0230
14791W        W30685   3.850  11.629   0.185  0.0108  0.0508 -0.0116
14792W        W30686  17.875  18.838  13.066 -0.0612  0.3386 -0.1915
14793W        W30687  16.952   2.498   2.078 -0.1837  0.0610 -0.1236
14794W        W30688  18.600  15.188   4.623 -0.1917 -0.4081 -0.1160
14795W        W30689   2.069  17.740  10.746 -0.0444 -0.4142 -0.2701
14796W        W30690   2.180   9.419  11.141 -0.0011  0.2459 -0.2146
14797W        W30691   8.420   9.266   4.707  0.2977  0.1220 -0.0944
14798W        W30692   5.457  17.076   3.007  0.1028 -0.0534  0.0860
14799W        W30693   1.458   8.353  10.181  0.0752  0.2110  0.5755
14800W        W30694   0.501  18.075   0.688 -0.0348  0.1384  0.0763
14801W        W30695  17.490  11.483   4.162 -0.0370 -0.3036 -0.0474
14802W        W30696   0.540  13.891   0.537 -0.0733  0.1939 -0.0423
14803W        W30697  16.127   7.004   0.275 -0.1432 -0.3899 -0.0686
14804W        W30698   7.766   1.524  12.233  0.0411  0.2218  0.2250
14805W        W30699  18.775   3.290  14.288 -0.3361  0.1154 -0.2706
14806W        W30700  18.924  18.217   3.194  0.0092  0.0907  0.2445
14807W        W30701   7.500   4.479   0.290 -0.2580  0.2208  0.1720
14808W        W30702  15.342   3.818   1.949  0.0996 -0.0538 -0.0619
14809W        W30703   0.430   5.150  12.105 -0.1852  0.0480  0.1217
14810W        W30704   3.661  18.034   2.693 -0.1866 -0.2687 -0.1352
14811W        W30705  13.578  13.231  12.388  0.1513 -0.1894 -0.2897
14812W        W30706   2.596   3.948   1.698  0.2449 -0.1276 -0.0382
14813W        W30707  13.736  12.225  12.253 -0.0346 -0.1577  0.2668
14814W        W30708  14.947   0.257   0.923  0.0644  0.1529 -0.0350
14815W        W30709  13.274  10.707  11.538  0.0085  0.0734 -0.1114
14816W        W30710  13.655  14.146  13.092  0.4960 -0.4183  0.1190
14817W        W30711   7.349   6.422   3.618  0.0482  0.1202  0.0359
14818W        W30712   3.499  16.003   3.536  0.2231  0.0770  0.2061
14819W        W30713   7.245  15.771   2.432 -0.2269  0.0717  0.1475
14820W        W30714   0.682   8.147   0.118 -0.1525 -0.1427 -0.1956
14821W        W30715   6.572  18.397   3.966 -0.0952 -0.0560  0.2022
14822W        W30716   9.972   4.313   1.363 -0.0900 -0.2808 -0.2752
14823W        W30717   8.208  15.011  14.738  0.1137  0.1695  0.0706
14824W        W30718  16.576  13.275   3.974 -0.2086 -0.0194 -0.2042
14825W        W30719  16.799   1.203  12.096  0.2577 -0.0340  0.0874
14826W        W30720   0.761  15.553   3.978 -0.0062  0.2344 -0.0397
14827W        W30721  15.355  13.595   4.501 -0.1931 -0.2569  0.1401
14828W        W30722   0.989   4.532  11.546  0.0812 -0.4539 -0.0803
14829W        W30723   0.913   9.842   0.576 -0.0795  0.0607  0.3861
14830W        W30724  14.630  19.087   4.669  0.0580  0.0432  0.2832
14831W        W30725   4.614  14.188  14.249 -0.0839 -0.0978 -0.0240
14832W        W30726   8.076   7.033   2.361  0.0605  0.0218 -0.1155
14833W        W30727  11.296  18.069  14.843  0.2657  0.0202  0.1483
14834W        W30728  18.205   4.204  10.994 -0.1111  0.0413 -0.3680
14835W        W30729  11.829   7.065   2.084 -0.1157  0.2568  0.0811
14836W        W30730   1.898   3.243   4.002  0.1114  0.2082 -0.0302
14837W        W30731   6.641  13.187   2.754  0.0661  0.0656  0.0580
14838W        W30732   6.922  16.847   1.245  0.0292  0.1649 -0.2230
14839W        W30733   4.743   2.199  11.645 -0.0168  0.0021 -0.0410
14840W        W30734   4.262  17.354   0.647 -0.0345 -0.0094 -0.4610
14841W        W30735  16.003   3.891  12.416  0.1215  0.2678 -0.3324
14842W        W30736   1.374   9.349  13.208 -0.0939  0.0204 -0.2657
14843W        W30737   1.979  11.298   1.483  0.1690  0.2839  0.0900
14844W        W30738   7.547   4.085   4.682 -0.0727  0.0268  0.2212
14845W        W30739  12.865  17.940  11.964 -0.2024 -0.1614  0.3491
14846W        W30740  11.147   0.761   0.602 -0.2827  0.0810 -0.4148
14847W        W30741  12.964   1.497  14.646 -0.0770 -0.0589 -0.0117
14848W        W30742  11.067   7.583  15.097  0.1367  0.1125 -0.1097
14849W        W30743  17.320   1.906  11.531  0.1284 -0.0750 -0.1775
14850W        W30744   0.876   4.353  14.761 -0.0110 -0.1083 -0.0822
14851W        W30745   6.640  11.022  13.361  0.1822 -0.1475 -0.0187
14852W        W30746   8.645  14.818   4.868  0.2034 -0.2966  0.0353
14853W        W30747   2.136   5.408   4.540 -0.0342 -0.2076  0.3201
14854W        W30748  18.848   2.812  14.122 -0.3276  0.0459  0.0621
14855W        W30749  16.030  18.208   2.323  0.0953 -0.1804  0.0399
14856W        W30750   4.600   5.596  11.774  0.2829 -0.1183  0.0410
14857W        W30751  15.876  16.898  13.570  0.2335 -0.0152 -0.0065
14858W        W30752   5.594  16.899   2.552 -0.1085  0.0594  0.3206
14859W        W30753  16.988  13.749   3.274 -0.0788  0.0282  0.1656
14860W        W30754  17.387  13.221  13.163  0.2045 -0.1099 -0.2992
14861W        W30755  15.413  12.936  13.646 -0.1238 -0.0932 -0.1576
14862W        W30756  14.972  13.463  13.734 -0.2282 -0.1492  0.1013
14863W        W30757   1.255   0.260   1.588 -0.1284  0.2289 -0.1656
14864W        W30758  11.873   8.426  11.821  0.0348  0.0788 -0.1522
14865W        W30759   7.650  13.653   2.086 -0.0298 -0.2560 -0.0811
14866W        W30760  17.969  14.800   3.981 -0.0447 -0.0613 -0.0061
14867W        W30761  12.344  13.248   5.244  0.2053  0.1210  0.2187
14868W        W30762  10.286  12.987   0.126  0.1604 -0.5138 -0.0297
14869W        W30763   7.098  10.609   2.069 -0.1607  0.1012 -0.4334
14870W        W30764  17.995   1.621  13.479 -0.1171  0.1986 -0.1940
14871W        W30765  17.906   2.684   3.486 -0.2006 -0.0354  0.1034
14872W        W30766  14.097   5.162   3.399  0.3379 -0.0328  0.3273
14873W        W30767  13.864   3.647   0.792  0.0699  0.1277  0.2334
14874W        W30768   9.772  17.887  14.545 -0.0431  0.0155  0.0603
14875W        W30769  11.483   3.448   4.484  0.2110  0.0632 -0.0577
14876W        W30770  18.403   0.922   1.903 -0.0505 -0.2410 -0.2625
14877W        W30771   6.085  17.262  10.839  0.1748  0.0742  0.1270
14878W        W30772   5.710  16.140  14.166 -0.1779  0.2491 -0.0524
14879W        W30773   5.808   2.334  11.763  0.2258 -0.0303 -0.0653
14880W        W30774   2.550  11.674   0.342  0.1750  0.1651  0.0080
14881W        W30775  13.402   2.554   0.629 -0.5448 -0.2919 -0.2771
14882W        W30776   8.796  16.762  11.476 -0.1780  0.0076  0.0884
14883W        W30777  13.213  13.952   3.537  0.0995  0.3277 -0.0017
14884W        W30778  18.164   0.524   4.370  0.2193 -0.2344  0.3491
14885W        W30779   0.413  17.949   5.416 -0.4204  0.2785 -0.1842
14886W        W30780   6.415   1.291   0.980  0.3382  0.0814 -0.0327
14887W        W30781  19.125  18.206   4.177  0.3128  0.1618 -0.0250
14888W        W30782   8.624   8.846  11.362  0.1581 -0.2164  0.2898
14889W        W30783   0.359   2.449  13.028  0.1266 -0.1411  0.1102
14890W        W30784  10.711   6.690   9.869 -0.2485 -0.0377  0.0152
14891W        W30785   2.424   9.004   4.422  0.1548  0.3913 -0.0946
14892W        W30786   7.085  10.408  10.627 -0.1838 -0.0301 -0.2886
14893W        W30787  13.066  10.378   1.185  0.0225  0.2206  0.1433
14894W        W30788   8.441   0.901  14.946 -0.1426 -0.2347  0.1703
14895W        W30789  11.509  12.574  14.061  0.0104  0.0379 -0.2427
14896W        W30790   1.862   6.222   0.639  0.3271 -0.0299 -0.4192
14897W        W30791  19.011  13.103  11.340  0.0982 -0.3201  0.0344
14898W        W30792  16.494  10.429   5.509 -0.1608  0.1259  0.1706
14899W        W30793   8.130   3.547  10.683 -0.3454 -0.1486 -0.2541
14900W        W30794   1.178   4.447  12.059 -0.2679 -0.2139 -0.0970
14901W        W30795   7.840  18.479   2.467 -0.1031  0.1191 -0.1956
14902W        W30796   4.473  18.515   2.324  0.3046  0.0247 -0.1874
14903W        W30797   9.337   6.705  11.740 -0.3475  0.3899  0.2227
14904W        W30798   7.957   6.917   4.374 -0.0488 -0.0593  0.2031
14905W        W30799   7.282  18.534  15.042  0.1279 -0.4340 -0.1641
14906W        W30800   3.416  13.875   0.587 -0.0103  0.0339  0.0920
14907W        W30801  16.177  14.981   3.280 -0.1414  0.0517 -0.1591
14908W        W30802  13.810  12.092  11.260 -0.2404 -0.0603  0.1653
14909W        W30803   1.866  15.521   0.239  0.0491 -0.3143 -0.0422
14910W        W30804   3.942   1.112  11.962  0.0351 -0.1701 -0.1298
14911W        W30805  18.807  15.386   2.680  0.1485  0.0441  0.2725
14912W        W30806   6.018   6.354   0.624 -0.0031  0.0533  0.0660
14913W        W30807  16.163  17.431   4.595 -0.0811  0.1278  0.1825
14914W        W30808   3.207  13.799   1.484 -0.0335  0.0746 -0.1599
14915W        W30809  15.957   2.700  13.374  0.2440 -0.4666 -0.0454
14916W        W30810  10.503   8.058   3.444 -0.0943  0.0949  0.0036
14917W        W30811   4.005   8.334   1.812 -0.0286  0.1934  0.1374
14918W        W30812   7.245  10.934   1.003 -0.1613  0.3025 -0.0903
14919W        W30813   6.852  10.123   0.662  0.1321  0.0955  0.2225
14920W        W30814  17.602  16.429  11.761  0.0025 -0.1786  0.3322
14921W        W30815   8.630   5.680  10.640  0.3640  0.3081  0.0947
14922W        W30816   1.920  18.900   3.231  0.1820 -0.1398 -0.0251
14923W        W30817  17.306  17.737   1.030  0.2151  0.0610 -0.0520
14924W        W30818   6.478  17.258   5.413  0.1353 -0.0468  0.1479
14925W        W30819  13.672  17.523  10.796  0.0302  0.0847  0.1091
14926W        W30820   9.905  13.717  10.742  0.1752  0.2595  0.0258
14927W        W30821   7.008   5.751   0.576  0.3465  0.4032  0.0638
14928W        W30822   2.979  17.459  14.483 -0.0080  0.3948  0.1621
14929W        W30823   0.876  15.441  11.012 -0.1164 -0.5476  0.0086
14930W        W30824   6.608   5.651  10.719  0.0659  0.0291  0.1294
14931W        W30825   0.443  10.312   1.215 -0.1531  0.0518  0.4473
14932W        W30826  16.126   8.119  14.212 -0.2394  0.0365  0.0103
14933W        W30827   8.737  11.678   4.568  0.0720 -0.1109  0.1876
14934W        W30828  13.963  11.011   2.377 -0.4857 -0.2180 -0.0492
14935W        W30829   6.877   2.537   1.963 -0.0559 -0.1332  0.0588
14936W        W30830   4.798  13.338  12.915  0.1214 -0.0721  0.0117
14937W        W30831   4.419   5.119  13.585  0.2451  0.0080 -0.1185
14938W        W30832   6.575   5.371  14.130  0.0120  0.1816 -0.2734
14939W        W30833  16.500   6.648   3.177  0.0335 -0.2090  0.3463
14940W        W30834  12.268  15.708   4.268 -0.1853 -0.0806 -0.0290
14941W        W30835   9.183   9.566  14.788 -0.1590 -0.0008  0.1551
14942W        W30836  11.272  16.414   3.304  0.1361 -0.1150  0.2050
14943W        W30837   2.159   3.727  11.575  0.3113  0.2018  0.0205
14944W        W30838  18.932  14.925   4.386 -0.1696 -0.1011 -0.2345
14945W        W30839   3.934   7.049  11.410 -0.3855  0.2860 -0.1113
14946W        W30840  18.539  14.319   3.887  0.0389  0.2011 -0.3462
14947W        W30841  11.386   5.874  11.090  0.2483 -0.1496  0.1692
14948W        W30842   7.739  14.251   2.142  0.2084 -0.2132  0.3028
14949W        W30843  14.238   9.585  14.038 -0.0495  0.2474  0.1709
14950W        W30844   9.233   9.701  13.410  0.0607 -0.0975  0.0366
14951W        W30845   9.276   4.773  12.091  0.0585  0.2259  0.1325
14952W        W30846  18.906   5.963   2.070 -0.2008 -0.0639 -0.0968
14953W        W30847   7.281   4.729  12.414  0.3807  0.0026 -0.2718
14954W        W30848  13.159   6.190   1.910  0.2844 -0.0555 -0.0545
14955W        W30849   3.256   6.346   9.838 -0.2457  0.0431  0.0586
14956W        W30850  17.053  15.042   0.936 -0.1685 -0.1486 -0.1614
14957W        W30851  16.113   8.764   3.827 -0.1201 -0.0163  0.1487
14958W        W30852  15.509   2.973  13.400 -0.2006 -0.0459  0.2012
14959W        W30853  11.672  16.179  13.002 -0.2973 -0.0006  0.0333
14960W        W30854   6.467  18.229   2.657  0.1412  0.0232  0.0839
14961W        W30855  15.739  10.916  10.746  0.1534 -0.2347 -0.0208
14962W        W30856  11.268   1.649  11.873 -0.3006 -0.3778 -0.0717
14963W        W30857   1.814  14.886  12.288  0.1958 -0.0358  0.1657
14964W        W30858  18.732  13.564   2.416 -0.0826 -0.2972  0.1032
14965W        W30859  16.593   6.546  15.114 -0.0545  0.1137 -0.1436
14966W        W30860  15.312   7.345   0.561 -0.0330  0.1378 -0.1651
14967W        W30861   8.634   0.917   3.245  0.0244  0.2737  0.1932
14968W        W30862  18.097  17.898  11.911  0.2181 -0.0405 -0.0041
14969W        W30863   0.445   1.439   1.656 -0.0183  0.2493 -0.0586
14970W        W30864  11.275  17.591  14.283  0.0613  0.1792  0.2468
14971W        W30865   1.537   8.048   0.473  0.2883  0.1151  0.2680
14972W        W30866  18.545   8.003  13.105 -0.3076  0.0529  0.2049
14973W        W30867   3.856   0.945  15.190 -0.2365 -0.1369 -0.1343
14974W        W30868   2.757  15.585   1.179 -0.1725 -0.0278  0.1280
14975W        W30869   1.088   6.838   0.206  0.1418  0.2945 -0.0768
14976W        W30870  14.992   7.533  11.016  0.1427  0.2279 -0.0180
14977W        W30871   9.296  17.671   1.096  0.1542  0.2457  0.0499
14978W        W30872  17.253   0.819  13.463 -0.3376  0.1002 -0.0449
14979W        W30873   4.276   3.847   0.096 -0.0081 -0.1728  0.0517
14980W        W30874  15.917   9.936   1.228  0.1301 -0.2968  0.0174
14981W        W30875  17.083  13.502  15.131  0.3034  0.0789 -0.0134
14982W        W30876   9.688   7.650  10.830 -0.1230 -0.0244  0.3493
14983W        W30877  15.642   9.775  11.747  0.2011 -0.0890 -0.3378
14984W        W30878   7.239  17.453   3.442  0.0524  0.3287  0.3383
14985W        W30879  14.856  12.935   1.192 -0.1944  0.1181 -0.0180
14986W        W30880   1.904   7.532  13.224 -0.1323  0.2151 -0.2111
14987W        W30881  12.900   3.001  15.137  0.1152 -0.0645  0.0100
14988W        W30882   1.975   3.841  13.299  0.2032 -0.0396  0.0724
14989W        W30883  14.178  15.790  11.304 -0.1198 -0.0456  0.1920
14990W        W30884  14.670  16.451  13.550  0.0791 -0.3964 -0.3550
14991W        W30885  10.855  16.691   3.367 -0.1760 -0.1372 -0.2001
14992W        W30886   7.868   7.676   1.474  0.2964 -0.3145  0.0456
14993W        W30887  16.773  14.474   2.175 -0.1489 -0.1269  0.1890
14994W        W30888   2.441   1.397  10.583 -0.3113  0.2078  0.2996
14995W        W30889   5.507   1.361  14.703  0.0549  0.0021 -0.2502
14996W        W30890  16.546  14.124   4.472 -0.3163  0.3458 -0.3325
14997W        W30891  14.913  18.615   1.419 -0.2890 -0.6105  0.0803
14998W        W30892  18.819  11.552   1.954  0.2720  0.2254  0.0586
14999W        W30893  12.781  12.757   3.936 -0.1172  0.1280 -0.0928
15000W        W30894  18.987   0.901  12.747 -0.1036 -0.2546  0.0090
15001W        W30895   8.566   7.898  11.928 -0.0163  0.2068 -0.2188
15002W        W30896  16.585   3.409   3.973  0.2512  0.0525 -0.2368
15003W        W30897   6.745  16.872  12.890 -0.5110  0.0417  0.3289
15004W        W30898   3.897   5.404   1.431 -0.3584 -0.0911  0.4481
15005W        W30899   0.665  15.158   1.700 -0.1454 -0.0745 -0.0230
15006W        W30900  18.511   7.129  12.027  0.1705 -0.2294  0.0773
15007W        W30901   3.198   2.685  13.842 -0.1795  0.1625  0.4648
15008W        W30902  11.374   8.861   0.473 -0.0699  0.1022  0.2478
15009W        W30903   3.179   1.255  12.119 -0.2912  0.1011 -0.0343
15010W        W30904   8.971   7.463  11.347  0.4564  0.0524  0.0543
15011W        W30905  12.917   8.783   0.764  0.1522 -0.5463  0.0211
15012W        W30906   2.302   7.756  11.563 -0.2362 -0.2040 -0.3796
15013W        W30907  17.288   7.163  14.515 -0.1879 -0.2261  0.2627
15014W        W30908   4.926   4.433   3.586 -0.3368  0.0393 -0.2701
15015W        W30909   9.570   5.452  10.958 -0.0907  0.0508 -0.0714
15016W        W30910   4.930   1.460   2.112  0.1963  0.3103  0.1017
15017W        W30911   1.143   7.980  13.355 -0.0482  0.0041  0.2282
15018W        W30912   0.742   5.854   2.910  0.0547 -0.2915 -0.1264
15019W        W30913   9.573  17.277   2.251  0.2494  0.1967  0.1745
15020W        W30914   1.790   2.741   0.206  0.3003 -0.1497  0.2513
15021W        W30915   9.812   6.505   3.002 -0.3178  0.0654 -0.0383
15022W        W30916  19.149   0.586  15.163  0.3977  0.0234  0.1956
15023W        W30917  11.217   0.852  12.450 -0.0547  0.3287  0.0493
15024W        W30918   7.405  13.623   4.664 -0.0631 -0.2556 -0.2743
15025W        W30919  14.881   1.933  12.617 -0.0365  0.2012  0.2072
15026W        W30920  14.215  14.215   1.807  0.4022 -0.0054  0.0189
15027W        W30921   3.708   1.517   0.403 -0.4483  0.0349  0.3093
15028W        W30922   4.493  14.340  13.149  0.0208 -0.0925  0.1374
15029W        W30923  16.693  10.044  10.921 -0.3187  0.2517  0.0969
15030W        W30924  12.536  18.587   5.261 -0.1187  0.0983  0.1563
15031W        W30925  13.532  14.506   4.305  0.4934  0.0804 -0.0876
15032W        W30926  15.825  19.094   1.149 -0.1215  0.2240  0.0937
15033W        W30927  15.826  15.301   1.657 -0.0131  0.0942  0.3572
15034W        W30928  18.226  10.032   0.478  0.0557  0.0569  0.5091
15035W        W30929  18.815  16.291   4.289  0.4415  0.3105  0.1171
15036W        W30930   3.988  16.067  11.282 -0.0856 -0.0711  0.1954
15037W        W30931  12.633  17.675   1.910  0.0428  0.0948  0.3685
15038W        W30932  14.371   8.408  11.765  0.2271 -0.0337  0.2368
15039W        W30933   6.948   8.702   4.066 -0.0591  0.2008 -0.0809
15040W        W30934   4.474   0.504   1.579 -0.1198 -0.0022  0.0415
15041W        W30935   4.733   2.670   9.344  0.0029 -0.4501 -0.2396
15042W        W30936   6.876  10.038   1.345 -0.0211 -0.2615  0.1817
15043W        W30937   8.835  12.879  10.022  0.2333 -0.1916 -0.0095
15044W        W30938   2.507   1.234  12.481  0.1166  0.2622 -0.3847
15045W        W30939  17.761   0.549   4.084 -0.0721  0.2774  0.1229
15046W        W30940   1.778   8.899   0.664  0.1353 -0.1536 -0.2752
15047W        W30941   2.529  12.383  13.147  0.1617  0.1663 -0.1947
15048W        W30942  10.412   4.802  10.985 -0.2091 -0.1936 -0.1287
15049W        W30943  11.339   2.271   1.520 -0.0344  0.0677  0.2660
15050W        W30944  14.839  12.545  14.433  0.3379  0.2152 -0.0697
15051W        W30945  13.577  13.826  13.949 -0.3839 -0.2462 -0.0742
15052W        W30946  13.018  15.672  13.292  0.4016  0.0370  0.2555
15053W        W30947  18.461  17.144   0.487  0.2368  0.1618 -0.2257
15054W        W30948   5.088   3.793  11.434  0.1087  0.1246  0.3533
15055W        W30949   2.731  11.904  13.663 -0.1175  0.3801  0.0685
15056W        W30950   2.537  15.191   4.774  0.0361  0.2943  0.2278
15057W        W30951  17.134   8.034  13.386  0.0500  0.0302 -0.2213
15058W        W30952  18.364   1.315  12.721  0.1480  0.4837 -0.3683
15059W        W30953   7.117  17.935  14.403  0.1117 -0.1478  0.1313
15060W        W30954   8.238   6.065   2.193  0.0893  0.4758 -0.0394
15061W        W30955  15.577   6.187  11.807  0.1337  0.4059  0.0160
15062W        W30956  12.939   5.783  12.799 -0.1409  0.1344  0.2899
15063W        W30957  16.445  10.583   4.166 -0.0637  0.0415 -0.1642
15064W        W30958   5.652  18.007   0.067 -0.1690 -0.2308  0.3589
15065W        W30959  14.979  12.536  11.967  0.2038 -0.0945  0.0480
15066W        W30960   7.774  16.725  11.920 -0.1100 -0.0243 -0.1980
15067W        W30961   3.872   9.857   5.101 -0.2251  0.0530  0.1701
15068W        W30962  18.142  13.141  11.948 -0.3005  0.0240 -0.0244
15069W        W30963  17.049  14.284   4.634  0.0231  0.0682 -0.3877
15070W        W30964   7.871  10.226  12.087 -0.3736  0.0647 -0.1706
15071W        W30965   0.863   3.077   2.082  0.1607 -0.1534 -0.2062
15072W        W30966   8.304  17.891   1.279  0.0891  0.2485 -0.0053
15073W        W30967   1.242  10.000   1.481 -0.1061 -0.1300 -0.0901
15074W        W30968  15.210   9.188  10.380 -0.0647 -0.1873  0.1322
15075W        W30969  15.740   8.761   0.115  0.3658  0.1247 -0.0147
15076W        W30970   6.413  10.980  10.974  0.0952  0.0661  0.4673
15077W        W30971   8.442  14.761   4.415 -0.0944  0.1173 -0.3494
15078W        W30972  17.600  12.615   5.626  0.1080  0.2641 -0.0372
15079W        W30973   5.785  14.014  14.226  0.1338  0.1405  0.1416
15080W        W30974  14.200  14.975  14.696  0.3931  0.0698  0.0811
15081W        W30975  12.904   1.476   5.627 -0.1210 -0.1214 -0.0815
15082W        W30976   0.867  15.064  12.949 -0.0313  0.2190  0.0239
15083W        W30977  11.695  18.892  14.345  0.2255 -0.2902 -0.1779
15084W        W30978  18.402   8.601  14.780 -0.1582 -0.0145 -0.1840
15085W        W30979   6.169  10.807   1.098 -0.1891 -0.2566  0.2108
15086W        W30980   7.568   2.711   1.873  0.0572  0.1600  0.0119
15087W        W30981  10.307  17.659   0.205  0.1710  0.0300 -0.0563
15088W        W30982   8.085   7.126  12.991 -0.2328  0.2214  0.0331
15089W        W30983   9.823  13.219  13.155 -0.1805  0.1040 -0.2813
15090W        W30984   3.783   1.991   2.770  0.0448  0.0003  0.0591
15091W        W30985  10.683   2.464   0.752  0.2418  0.0763 -0.2766
15092W        W30986   9.388  18.541   4.670 -0.0256  0.4127  0.1597
15093W        W30987  18.875   2.682   2.673  0.1341  0.1009  0.2094
15094W        W30988  10.303   2.632  13.014  0.3728  0.1432  0.0003
15095W        W30989  16.813   4.338   0.637  0.0763 -0.0392  0.0092
15096W        W30990   1.044  16.776   1.503  0.3309  0.2746  0.1086
15097W        W30991  11.219  16.497   4.207 -0.1509 -0.0208 -0.0405
15098W        W30992  15.268   9.292   1.439  0.1479  0.1130  0.1033
15099W        W30993   1.895   5.701   2.891  0.2730 -0.2365  0.1331
15100W        W30994   5.674  17.190   3.487 -0.0688  0.1308 -0.2836
15101W        W30995   2.408  19.009  14.720  0.1529  0.1098 -0.2372
15102W        W30996   1.268  12.008  10.326 -0.0039 -0.3130 -0.2355
15103W        W30997   6.966   7.140   1.750 -0.1034 -0.0154 -0.0890
15104W        W30998  13.038   3.159   1.324  0.1396 -0.0927  0.0032
15105W        W30999   2.396   2.308  10.331 -0.4804  0.2133 -0.1113
15106W        W31000  19.004  17.219   1.471 -0.2200 -0.3578 -0.2108
15107W        W31001   9.062  17.299   2.776 -0.0070  0.1623  0.2585
15108W        W31002  13.389  18.440   1.240 -0.2972 -0.1516 -0.0884
15109W        W31003   0.336   2.092   3.958  0.0118  0.1433 -0.0823
15110W        W31004  12.382  11.416   4.508 -0.2952 -0.3686  0.3501
15111W        W31005   8.212   2.305  10.170 -0.3333  0.2157 -0.1804
15112W        W31006   0.334  14.832   0.593  0.2609  0.0403  0.0037
15113W        W31007  15.585   2.378  14.400 -0.0728 -0.2512  0.2380
15114W        W31008  12.207   5.741   0.197  0.1042 -0.1791 -0.3656
15115W        W31009  11.003  17.371   4.361  0.0603  0.0567 -0.1043
15116W        W31010  10.866  12.196   1.619  0.0324  0.1471  0.2736
15117W        W31011  17.907   7.597  12.675 -0.0013 -0.0275  0.0114
15118W        W31012  15.989  12.083   9.903  0.0508  0.0051  0.0366
15119W        W31013   4.270   8.026   0.365 -0.3949 -0.0296  0.0667
15120W        W31014   8.921  12.373   1.707  0.0522  0.1079 -0.0976
15121W        W31015   6.475  12.928   9.305  0.0148  0.2326  0.0713
15122W        W31016  16.535  16.277   1.891 -0.0491  0.1473  0.4996
15123W        W31017  13.588   9.436   1.295 -0.0060  0.0648  0.2658
15124W        W31018  12.360   1.182  12.130 -0.0928  0.0421  0.1152
15125W        W31019  17.550  13.148   0.220 -0.2159 -0.2203  0.0926
15126W        W31020  10.633   5.538   0.295 -0.1569 -0.1925 -0.0326
15127W        W31021  10.648  11.867  15.047 -0.2890 -0.1712  0.0862
15128W        W31022  14.648   7.282   1.641 -0.0455 -0.1030  0.5098
15129W        W31023  14.499   3.704  12.281  0.2019  0.0992  0.1118
15130W        W31024  19.115  16.321   3.387  0.3295 -0.0160  0.0272
15131W        W31025   3.301  17.433  14.027  0.1547 -0.1127 -0.2120
15132W        W31026  17.441   6.858   5.276 -0.2849 -0.2807 -0.2790
15133W        W31027   2.908   1.941   0.008 -0.1941 -0.2300 -0.0097
15134W        W31028   9.346  18.564  13.188  0.0402  0.0579 -0.6698
15135W        W31029  11.732   7.901   1.113  0.1836 -0.0585  0.0695
15136W        W31030  14.249  10.103   3.825  0.1431 -0.0737 -0.0366
15137W        W31031   9.322  10.764  12.807 -0.1460 -0.3515  0.0238
15138W        W31032   3.974   2.570  12.149 -0.1549 -0.1469  0.0585
15139W        W31033  13.338   3.389  13.965  0.1041 -0.2232  0.0795
15140W        W31034  10.617   7.378  14.758 -0.0531  0.1212 -0.3916
15141W        W31035  15.552   2.256  11.296  0.1194 -0.0605  0.4003
15142W        W31036   9.035   9.965   4.915 -0.0233 -0.1817 -0.1118
15143W        W31037  18.589   3.969   2.222  0.0098 -0.0691  0.2609
15144W        W31038  18.050   1.203  13.808  0.0303  0.1489  0.0753
15145W        W31039  15.314   2.954   0.632  0.2531  0.0374 -0.2282
15146W        W31040  12.503  15.559  13.168 -0.0721 -0.2561  0.1124
15147W        W31041  15.046   5.601   3.163 -0.2087  0.0504 -0.0501
15148W        W31042   5.461   9.532   4.357 -0.0157  0.1610 -0.0375
15149W        W31043   9.492   5.699   3.692 -0.0823  0.1189 -0.0842
15150W        W31044   3.909  17.233  10.655  0.0419  0.0701 -0.0256
15151W        W31045  16.856  15.575   3.551 -0.4528 -0.1726  0.3016
15152W        W31046   8.785   9.844  14.857 -0.0284 -0.1491 -0.0475
15153W        W31047  18.922  14.670   5.267  0.0412 -0.1921 -0.2207
15154W        W31048   7.371  18.628  13.138 -0.1003 -0.0627 -0.3895
15155W        W31049   2.616  18.154   4.107 -0.2728 -0.3832 -0.1009
15156W        W31050   9.253   0.730  12.571  0.0879 -0.0332  0.0739
15157W        W31051  13.303  14.629   1.286  0.1590 -0.3304 -0.1783
15158W        W31052   8.443   3.357   2.640 -0.3571  0.0759 -0.0608
15159W        W31053  13.949   1.762  14.740 -0.1064 -0.0104  0.1057
15160W        W31054  12.572  18.951   0.311  0.3090  0.3138 -0.0785
15161W        W31055   4.946  17.072   2.837 -0.1667 -0.4866 -0.1859
15162W        W31056   8.310  14.361  13.498 -0.1250 -0.1238  0.2548
15163W        W31057   3.803   6.755   0.878 -0.0143  0.1462  0.2863
15164W        W31058  10.587   3.083  15.046  0.2581  0.0546 -0.1707
15165W        W31059  18.139   5.695   2.831  0.2707 -0.1273 -0.3636
15166W        W31060  16.032   4.523   1.191  0.0564  0.1548 -0.2837
15167W        W31061   4.821  18.347  13.177  0.0150  0.2276 -0.0883
15168W        W31062   1.910   2.456  11.361  0.3207  0.3371 -0.2673
15169W        W31063   6.191  16.997   1.756 -0.0060 -0.1886  0.1300
15170W        W31064   3.836   3.705  15.002  0.3332  0.2172 -0.0230
15171W        W31065  14.923   9.160   9.836 -0.0084  0.0108  0.0893
15172W        W31066  12.259   9.892   1.672  0.2778 -0.2310  0.0940
15173W        W31067  11.922   0.742   3.284  0.1448 -0.1477 -0.2514
15174W        W31068  11.503   9.455  13.365 -0.0597  0.1618 -0.2314
15175W        W31069  16.029   7.552   0.253 -0.0040  0.0219  0.1903
15176W        W31070  10.186   7.130   4.785 -0.0010  0.2729 -0.1662
15177W        W31071  17.665   2.825   3.075  0.2309  0.1410  0.1983
15178W        W31072  18.069  16.509   3.980  0.4582 -0.1549 -0.0206
15179W        W31073   0.906   7.531   3.837  0.1629  0.0048  0.2034
15180W        W31074  13.069  11.114  12.267 -0.0268 -0.1719 -0.2129
15181W        W31075  11.997  15.073   5.168  0.1238  0.0528 -0.1337
15182W        W31076  12.053  17.283   1.193 -0.0208  0.1852 -0.3583
15183W        W31077  13.882   1.863   2.769  0.0867 -0.1183  0.1790
15184W        W31078  16.975   7.520  12.540  0.0202  0.1015 -0.2214
15185W        W31079   6.188  16.234   2.859  0.2732  0.1812 -0.0784
15186W        W31080  10.655  12.952   1.355  0.1421 -0.2210  0.3681
15187W        W31081  12.041   6.220  11.265 -0.1919  0.1514 -0.0337
15188W        W31082   2.160  15.151  12.680  0.1771  0.0364 -0.1273
15189W        W31083   9.017  12.221  13.519  0.2794  0.2587  0.2970
15190W        W31084   6.142  15.459   5.535 -0.0384 -0.0630 -0.1541
15191W        W31085  13.692  17.978   2.847 -0.0468  0.0253  0.0023
15192W        W31086   3.704  18.044   2.083 -0.2148 -0.1126 -0.0846
15193W        W31087   5.395  10.709  11.582  0.2661 -0.0146 -0.0767
15194W        W31088   1.406   9.221  15.011 -0.1965 -0.1435  0.2880
15195W        W31089   8.565  12.174  14.905  0.3109  0.0487  0.0137
15196W        W31090   7.251  19.139   1.807  0.1563  0.3478 -0.0807
15197W        W31091  11.587  17.716  15.164  0.2495 -0.3352  0.1240
15198W        W31092   5.546   1.459  13.797 -0.1094 -0.0594 -0.1457
15199W        W31093   5.010   8.516   2.273 -0.3359  0.0076 -0.3131
15200W        W31094   0.550  10.183   4.213 -0.3245  0.0989 -0.1598
15201W        W31095   5.489   8.481   3.545  0.3541 -0.2448 -0.1097
15202W        W31096  10.883   0.815  10.637  0.0294 -0.1037 -0.0507
15203W        W31097   4.246  15.392  11.950 -0.0062  0.1168 -0.1197
15204W        W31098   7.150   6.965  12.052  0.2296  0.2093  0.3812
15205W        W31099   3.434  11.435   0.028  0.0248 -0.1289 -0.1017
15206W        W31100  18.482   4.759   4.301  0.2114  0.0011  0.2141
15207W        W31101  16.713  14.313   1.083 -0.0628  0.0554  0.0342
15208W        W31102   5.413   1.496   1.913  0.2180  0.0160  0.0555
15209W        W31103   5.718  10.827   1.945  0.0696 -0.0074  0.2314
15210W        W31104   5.083   2.156  12.017 -0.3054 -0.1719  0.2444
15211W        W31105  15.321   9.715   2.676 -0.0850  0.1347  0.0071
15212W        W31106  17.268   2.397  10.875  0.0981 -0.0042 -0.1931
15213W        W31107   8.543  16.457  13.940  0.1154  0.0117  0.2948
15214W        W31108   2.061  14.582  15.110 -0.1608  0.1759 -0.0019
15215W        W31109   9.071  18.462   2.573  0.1365  0.2801 -0.2280
15216W        W31110   3.864   9.232   1.376 -0.4785  0.3166 -0.3922
15217W        W31111  18.626   2.965   2.979 -0.0841  0.0135 -0.0612
15218W        W31112   4.851  14.485   3.227  0.1293 -0.0732  0.1242
15219W        W31113  17.308  15.468   3.940 -0.0561 -0.0718  0.0364
15220W        W31114  18.239  11.545   0.098  0.0215  0.2504 -0.0820
15221W        W31115   5.789   3.991   2.734  0.0574 -0.1655 -0.0710
15222W        W31116  13.323   3.143  11.307 -0.0211  0.2020  0.0561
15223W        W31117   3.439  11.115  13.790 -0.2420  0.0519  0.2496
15224W        W31118   2.687  13.150  12.516 -0.6068 -0.0114 -0.1810
15225W        W31119   1.422  11.114  10.411 -0.0747 -0.1621 -0.0771
15226W        W31120   5.622  15.316   0.389 -0.2714 -0.6844  0.1767
15227W        W31121   2.388   6.086   0.412 -0.1591 -0.3422  0.3675
15228W        W31122   2.048  10.274   1.888 -0.1580  0.2029 -0.1764
15229W        W31123   5.614   5.990   1.337 -0.0581  0.0475  0.1325
15230W        W31124   2.337   8.441   4.424 -0.2125 -0.2459  0.2333
15231W        W31125  12.704   3.702   3.300 -0.0536  0.0817 -0.2502
15232W        W31126   6.885  12.090  14.215  0.1073  0.0007 -0.0859
15233W        W31127   7.018  15.937   2.891 -0.0267  0.2026  0.0245
15234W        W31128  19.146  13.401   4.585 -0.2957 -0.1119  0.0594
15235W        W31129  18.498  16.160   0.813  0.1069 -0.1778 -0.0286
15236W        W31130   5.004   7.829  13.306 -0.1232  0.0580  0.0492
15237W        W31131   4.598   7.883   0.737  0.0982  0.1773 -0.3377
15238W        W31132  11.646   3.269  12.787  0.0913  0.3598 -0.0939
15239W        W31133   9.387   4.856   0.595 -0.6040  0.2040 -0.1919
15240W        W31134   9.338   1.496   4.222  0.2620 -0.1439 -0.0412
15241W        W31135   3.391   2.806   5.156 -0.1960 -0.0942  0.0049
15242W        W31136   2.995  11.778   2.523  0.0922 -0.4656  0.1693
15243W        W31137  14.527   7.993   0.953 -0.0590 -0.0544  0.2468
15244W        W31138   3.319  11.925   4.347 -0.1514  0.0274  0.5116
15245W        W31139  12.685  13.418   9.785  0.0836 -0.1454  0.1182
15246W        W31140  12.039   0.697   4.802  0.0896 -0.0922 -0.0325
15247W        W31141  12.018  16.828   3.663  0.2917  0.2376 -0.0381
15248W        W31142  17.120   5.239   0.668 -0.0361 -0.0246  0.0900
15249W        W31143  16.288   8.294   2.990  0.0042 -0.1643  0.2072
15250W        W31144   0.031   8.573   2.481 -0.0847  0.1293  0.0002
15251W        W31145   9.884  18.967  11.725 -0.4336 -0.0480 -0.0787
15252W        W31146  10.487  11.965   1.048  0.1236  0.1148 -0.3387
15253W        W31147  17.583   8.688   1.520  0.1764 -0.0684  0.0917
15254W        W31148   3.650   0.597  14.399  0.0136  0.3577 -0.0743
15255W        W31149  15.738  11.424   2.508 -0.0271 -0.2343 -0.0750
15256W        W31150   5.641   2.448   3.288  0.1832  0.0898  0.3879
15257W        W31151  17.984   7.914   2.656  0.0765  0.1635 -0.1673
15258W        W31152   2.564   0.235  14.129  0.2097 -0.1150  0.2092
15259W        W31153  12.599   7.163   2.062  0.1608 -0.0132  0.1689
15260W        W31154   0.969  19.074   1.824  0.2577  0.1378 -0.0551
15261W        W31155  13.415  16.512   3.354 -0.0249 -0.0936 -0.0092
15262W        W31156   8.119  16.313  11.834  0.5984  0.2896  0.3201
15263W        W31157   0.516  15.474   1.282 -0.3513  0.0667 -0.0861
15264W        W31158   5.893  16.905   1.190  0.4024  0.2415 -0.3549
15265W        W31159   0.408   5.789   5.025 -0.0817  0.0002 -0.0878
15266W        W31160   3.985  12.646   0.316  0.3330  0.1291  0.1433
15267W        W31161   5.117  10.798  13.418  0.1687 -0.1023  0.1697
15268W        W31162   4.238  18.931  13.652  0.0026 -0.3170  0.1383
15269W        W31163  18.071  18.219   2.590  0.4640  0.2596 -0.4695
15270W        W31164   8.602  11.528   3.942 -0.2160 -0.1007  0.2402
15271W        W31165   2.312   7.024  14.595 -0.1145  0.0533 -0.3559
15272W        W31166  16.651   7.570  13.539  0.1874 -0.1229 -0.0953
15273W        W31167  12.879   7.314  14.264 -0.0463 -0.0570 -0.2711
15274W        W31168  19.056   2.259  14.679 -0.2461 -0.0449 -0.2150
15275W        W31169   1.508   3.449  13.285  0.2505  0.0138 -0.3681
15276W        W31170   7.850   9.273   3.788  0.0269  0.1536 -0.0116
15277W        W31171   8.661  16.033  10.980  0.0326  0.0854 -0.1561
15278W        W31172   2.100  10.215   4.866 -0.2912 -0.1305  0.2242
15279W        W31173  18.590  16.601  13.784 -0.1087  0.0926 -0.3843
15280W        W31174   8.582  11.057   0.334  0.3400  0.1072 -0.0806
15281W        W31175  10.927  13.074  12.351  0.2877 -0.0968  0.1113
15282W        W31176  12.060   2.906  14.695  0.3761  0.3095  0.1383
15283W        W31177   1.600   4.639   1.161 -0.1105  0.0417  0.0063
15284W        W31178  14.561  15.422   0.460  0.0259 -0.1916 -0.2433
15285W        W31179   9.085   3.537   3.637  0.0208 -0.2185  0.0916
15286W        W31180  16.755  18.103   2.010  0.0324  0.2624  0.1418
15287W        W31181   9.031  14.038  14.541  0.2107  0.0506 -0.0357
15288W        W31182  13.745  13.040   4.703  0.1025 -0.3081  0.2298
15289W        W31183  13.976  15.991  11.878 -0.2503  0.3081 -0.1998
15290W        W31184   2.854  13.240   5.272 -0.1249  0.2769 -0.1166
15291W        W31185   6.064  11.672   2.706  0.1549  0.1095 -0.0067
15292W        W31186  11.616   2.171  13.198  0.0058 -0.3475  0.1586
15293W        W31187   3.531   1.597   1.787  0.1660  0.0185  0.0340
15294W        W31188   6.208   1.679  10.194  0.1240  0.0338  0.0769
15295W        W31189   2.846   3.003   1.999  0.3520  0.1749 -0.1545
15296W        W31190  17.562  10.977  12.752 -0.1047 -0.0744 -0.0878
15297W        W31191   6.950  10.759   2.987  0.0658 -0.0783  0.1228
15298W        W31192  11.421   6.019   4.396 -0.1100 -0.0684 -0.4006
15299W        W31193   4.441   9.317   2.923 -0.2390 -0.1154  0.3550
15300W        W31194   4.941  13.787   3.956 -0.0825 -0.1298 -0.1378
15301W        W31195  10.817   2.932   2.296  0.2506  0.2898  0.0278
15302W        W31196   6.856   4.648   2.275 -0.1014 -0.4617 -0.0396
15303W        W31197   9.966  13.563   1.334 -0.0431 -0.4033  0.1607
15304W        W31198   2.015   3.997   4.092 -0.2578  0.0464 -0.0455
15305W        W31199  11.811  14.454  13.997  0.0009  0.0640  0.1009
15306W        W31200  12.247   2.001  12.547  0.1606 -0.0265  0.1178
15307W        W31201  12.257  10.873   9.505 -0.3592  0.1838  0.2339
15308W        W31202   9.743   9.776   4.230  0.0085 -0.1455 -0.4475
15309W        W31203   0.980  16.316   3.260  0.1632 -0.0924  0.1584
15310W        W31204  18.112  18.233  12.906  0.1085 -0.1897 -0.0402
15311W        W31205  16.706  17.669   3.790  0.2372 -0.1167  0.1301
15312W        W31206  18.665  16.118  13.889  0.3024 -0.2227 -0.1404
15313W        W31207  13.922   3.279  13.359  0.2202 -0.0110 -0.3475
15314W        W31208   9.012  15.545  13.065 -0.1616  0.1341  0.2978
15315W        W31209  14.688   0.664   0.834 -0.0959  0.2134  0.0170
15316W        W31210   8.651   0.412  12.450 -0.4043  0.0779 -0.1562
15317W        W31211   5.581  12.423   1.531  0.0537  0.0800  0.1569
15318W        W31212   6.736  17.037  14.189  0.1799  0.1058 -0.2078
15319W        W31213   9.554   5.897  14.699 -0.0746  0.0810 -0.4244
15320W        W31214   6.355  13.308   3.137 -0.1679  0.1494 -0.1021
15321W        W31215  18.345  10.628   2.968 -0.1594 -0.3877 -0.1174
15322W        W31216   2.172   2.888  12.108 -0.0471 -0.0723  0.1843
15323W        W31217   5.815  12.392  15.077  0.2931 -0.0887  0.1219
15324W        W31218  10.053   6.888   0.323  0.1160 -0.0882 -0.1841
15325W        W31219   5.357  16.722   1.882 -0.1446 -0.1574  0.2356
15326W        W31220   7.634  11.997   3.913  0.2107 -0.2286 -0.1764
15327W        W31221   4.936  17.716  10.871  0.0501 -0.1229 -0.1161
15328W        W31222  10.006  13.315  10.415 -0.1569  0.2665  0.2440
15329W        W31223  13.087   6.704   1.975 -0.0752  0.2008 -0.1758
15330W        W31224   1.331  14.230   0.802  0.1581  0.2879 -0.0827
15331W        W31225   2.954   8.034   3.259  0.1318 -0.0770  0.0679
15332W        W31226   6.008  14.836  14.718  0.0463 -0.1221  0.0415
15333W        W31227   1.389  13.470  12.492 -0.2331 -0.0717 -0.2910
15334W        W31228  14.244   1.140   2.744 -0.2688 -0.0393 -0.0405
15335W        W31229  17.094  12.633  12.671  0.0697  0.1383  0.1997
15336W        W31230   6.151   2.760  13.129  0.0605  0.0603  0.0690
15337W        W31231  17.861  17.756   1.699  0.2826  0.1020  0.0243
15338W        W31232  10.590  16.542   1.838 -0.1589  0.2521 -0.0771
15339W        W31233   1.300   7.790   0.817  0.1677  0.1669 -0.3011
15340W        W31234  16.982   5.356   0.127 -0.0024 -0.4449 -0.2066
15341W        W31235  13.676   8.572   0.745 -0.0661  0.1571  0.1041
15342W        W31236   3.852  13.864   4.491  0.0307 -0.2986  0.2196
15343W        W31237  13.815   3.009   2.164 -0.2272  0.1382 -0.1753
15344W        W31238   5.930   3.210   3.547  0.3167 -0.0245 -0.0753
15345W        W31239   0.750   9.511   1.683 -0.2170  0.3141  0.3411
15346W        W31240  15.527  14.424  14.690  0.2560  0.1722 -0.0017
15347W        W31241  13.894   3.880  12.687 -0.0464  0.1416 -0.0008
15348W        W31242   5.548   8.410   1.854 -0.1587 -0.2461  0.0679
15349W        W31243   6.265  16.439  10.503  0.0751 -0.2925 -0.0841
15350W        W31244   2.301   4.798  11.093 -0.1278 -0.1938 -0.2164
15351W        W31245   8.602  17.898  14.645 -0.1099  0.1899 -0.3977
15352W        W31246   4.551  10.974   2.035  0.0848  0.0534  0.2745
15353W        W31247  15.069  17.856  14.048 -0.1515  0.1456  0.2108
15354W        W31248  15.958   3.720   5.015  0.0735 -0.2255  0.0927
15355W        W31249   6.831   3.649  10.479 -0.2308 -0.2028  0.0435
15356W        W31250  15.047  18.688  11.472  0.1208 -0.1179 -0.0727
15357W        W31251  12.111   8.050   1.398  0.0901  0.0217  0.1361
15358W        W31252   5.442  12.676  11.456 -0.0365 -0.2605 -0.2272
15359W        W31253   8.085  18.121  10.919 -0.0449 -0.0790  0.2928
15360W        W31254  15.983   0.600   9.971  0.1779 -0.1919  0.0794
15361W        W31255  17.966   0.052  14.155  0.2869  0.3730 -0.0960
15362W        W31256  18.652  18.165   1.360 -0.0101 -0.1481  0.1341
15363W        W31257  18.874  14.083   9.949 -0.0838  0.0120 -0.2079
15364W        W31258   2.238   1.572   2.330  0.1200  0.0153  0.3906
15365W        W31259   3.957  11.605  13.862  0.1080  0.0055  0.1769
15366W        W31260   2.071   6.500   0.214  0.0837 -0.2598  0.1740
15367W        W31261   5.816   9.194   4.104 -0.3584 -0.1156 -0.0750
15368W        W31262   1.407   7.948  11.937 -0.1045  0.1623  0.2511
15369W        W31263   3.592  12.621   4.781  0.2160  0.0789 -0.1425
15370W        W31264  12.739  18.188   5.048 -0.0775  0.0081  0.3386
15371W        W31265  13.650  12.384   4.681 -0.3737  0.0719  0.0310
15372W        W31266   2.562  10.586  14.666 -0.4305  0.2851 -0.1953
15373W        W31267  13.725   4.240   2.917 -0.0197  0.0748  0.3187
15374W        W31268   6.360  14.119   3.086 -0.0915  0.1357 -0.0853
15375W        W31269   9.994   5.265   3.123 -0.1644 -0.1776  0.0904
15376W        W31270   4.148   2.844   1.488 -0.1852 -0.1867 -0.1712
15377W        W31271  16.317  18.782  11.146  0.2129  0.2327  0.0961
15378W        W31272  16.802   2.391  13.742 -0.0657 -0.2238  0.0625
15379W        W31273  14.379   3.098   3.802 -0.1890 -0.1594 -0.2853
15380W        W31274   6.202  11.605  12.415 -0.3665  0.0146 -0.0406
15381W        W31275  18.882   5.297  14.109 -0.0692  0.1674  0.2277
15382W        W31276  14.466  11.885   1.894 -0.0055 -0.1826  0.0011
15383W        W31277   8.812  10.752  14.571  0.0418  0.2658  0.1617
15384W        W31278  15.090  11.214   4.072  0.1272  0.1045 -0.1840
15385W        W31279  10.765   6.830   1.532  0.6166 -0.0547 -0.0148
15386W        W31280   0.930   9.297  10.556  0.2129  0.1954  0.0234
15387W        W31281   6.960   1.553  13.312 -0.0969  0.0335  0.1249
15388W        W31282   2.128   7.085   4.812  0.1560 -0.0949  0.0470
15389W        W31283  14.575  14.980   3.918  0.2049  0.1959  0.0420
15390W        W31284  11.205  19.179   3.165 -0.1177  0.0172  0.0986
15391W        W31285   9.761  15.718   3.406 -0.3141 -0.1282  0.2601
15392W        W31286   0.082  18.453   0.167  0.2048 -0.0936  0.0113
15393W        W31287  10.159  10.796   3.488  0.2550 -0.1398 -0.1056
15394W        W31288   5.708  16.918  12.199  0.1483 -0.0947  0.0343
15395W        W31289   8.322  12.344  12.906  0.0293 -0.1840 -0.5937
15396W        W31290   3.968   1.295  13.648  0.1097  0.1381  0.0535
15397W        W31291   5.840   2.870  10.162  0.0236 -0.1684  0.3763
15398W        W31292  15.187   9.048  14.899  0.0777  0.0788  0.0627
15399W        W31293   7.045  11.279  12.264  0.0487  0.0460 -0.1024
15400W        W31294   4.106  13.625   1.258  0.0821 -0.3684  0.1456
15401W        W31295  12.931  16.054   3.029 -0.3522  0.0299  0.2742
15402W        W31296  13.305  11.315   0.086 -0.2017 -0.2192 -0.1799
15403W        W31297  17.431  14.011   0.637 -0.0204  0.2981  0.3064
15404W        W31298  12.090   1.353  14.444 -0.0578 -0.2258  0.1783
15405W        W31299  10.740  17.111   2.991  0.2138 -0.2278  0.1186
15406W        W31300   4.397   8.284  12.192 -0.0931 -0.3424 -0.2214
15407W        W31301   6.551  10.643  12.154  0.0094  0.0837  0.1446
15408W        W31302  10.212   0.670   2.744 -0.0239 -0.0988  0.2253
15409W        W31303   8.892   7.160   0.973  0.0793 -0.1245  0.0199
15410W        W31304  18.398  18.444  14.145  0.1176  0.1848  0.2478
15411W        W31305  18.961  12.459   1.936 -0.2709 -0.1750  0.2140
15412W        W31306   9.193  18.245   3.101  0.0770 -0.4068  0.0044
15413W        W31307  15.224   3.888   2.438  0.0642  0.0287  0.4169
15414W        W31308  11.225   2.617   3.673  0.1202  0.0879  0.0222
15415W        W31309   9.384   2.743  13.999  0.0898 -0.1035  0.0991
15416W        W31310   7.450   8.625  12.019  0.2341 -0.2691  0.1499
15417W        W31311   5.297  13.625   1.789 -0.1911  0.0211  0.0818
15418W        W31312  15.895   0.151   1.897 -0.0484 -0.0531  0.0678
15419W        W31313   0.140   9.432  13.912  0.0956  0.1162  0.0675
15420W        W31314  11.191   1.742   0.288  0.0718  0.0994  0.4042
15421W        W31315   6.770   3.428   3.917 -0.1094 -0.0560 -0.1644
15422W        W31316  18.948  17.004   0.135 -0.1154 -0.3434 -0.2862
15423W        W31317  18.614   1.951  14.727 -0.0503 -0.0757 -0.2514
15424W        W31318   4.385  14.660  12.008  0.1403 -0.0348 -0.1032
15425W        W31319   1.958  15.184  14.085 -0.2331  0.3126 -0.0048
15426W        W31320   0.051   0.592  13.087 -0.1097  0.1069  0.1586
15427W        W31321   9.215  18.005   2.618  0.0298  0.0404  0.1935
15428W        W31322  13.845   5.652   1.927  0.2369 -0.1710 -0.2967
15429W        W31323   9.826  13.910   1.699 -0.0166 -0.0523  0.3474
15430W        W31324   7.589  11.470   4.354  0.0327  0.3141 -0.0455
15431W        W31325  12.595  16.345   5.320 -0.2591  0.0120  0.0485
15432W        W31326   9.349   8.550  11.569  0.0393 -0.0786  0.1505
15433W        W31327  14.048  12.868   1.080 -0.1069 -0.1936  0.2883
15434W        W31328  12.158   3.477  13.784  0.0143  0.0843  0.3627
15435W        W31329  14.354  19.062  10.845  0.0584  0.0352 -0.2824
15436W        W31330   6.100  14.808   1.997 -0.0716  0.0137 -0.2491
15437W        W31331   4.227   0.781  12.503  0.2699  0.2675  0.0119
15438W        W31332   6.077  15.049  13.877 -0.0758  0.1665 -0.1510
15439W        W31333  12.671  10.158  13.015  0.2241 -0.0578  0.0462
15440W        W31334  16.796   7.001   1.114 -0.2657  0.3540  0.1111
15441W        W31335   1.096   1.035  12.406 -0.1225  0.2492  0.1891
15442W        W31336  10.623   6.627   0.823  0.1130  0.0409  0.1094
15443W        W31337  15.269   0.235  15.130  0.1601  0.0188 -0.0571
15444W        W31338   4.335  10.978   1.311 -0.0592  0.1949 -0.3314
15445W        W31339   9.922   5.298  12.543 -0.1305  0.1793  0.1359
15446W        W31340  10.780  18.100   3.863 -0.1056 -0.0597 -0.2700
15447W        W31341   9.756  12.536   1.492  0.1312  0.1036  0.1149
15448W        W31342   0.096  14.444  12.397 -0.1735  0.2377 -0.1066
15449W        W31343   7.949  11.674  13.368 -0.0469  0.2063 -0.0893
15450W        W31344  16.374   4.740  10.873  0.0119  0.3481  0.0561
15451W        W31345   0.952  13.129  13.069 -0.2354  0.0685 -0.2851
15452W        W31346   1.153   6.982  13.921  0.1459  0.3057 -0.0068
15453W        W31347   4.997  11.493   5.055  0.0383 -0.0409  0.3985
15454W        W31348  15.430   5.244   0.237 -0.0168 -0.1153  0.2725
15455W        W31349   2.648  13.934  14.963  0.1971 -0.0300  0.1842
15456W        W31350   4.250   3.886  14.636 -0.0735 -0.1018  0.0211
15457W        W31351   5.503   1.101   0.715 -0.1802 -0.0763 -0.1004
15458W        W31352  15.060   6.386   4.276  0.2270 -0.3801  0.2149
15459W        W31353  15.964  11.433  13.499 -0.3886  0.2496  0.4289
15460W        W31354   4.411  15.371   0.728  0.1573 -0.1349  0.2076
15461W        W31355  18.987   2.824   4.324 -0.0518  0.0008 -0.0362
15462W        W31356  13.080   9.871   4.347 -0.2259 -0.1328 -0.6104
15463W        W31357  11.161  15.660  10.405 -0.2052  0.0005 -0.0027
15464W        W31358   9.654   8.847  14.703  0.0005  0.2410  0.0430
15465W        W31359  10.620   9.243   2.471  0.0331  0.1386  0.1266
15466W        W31360  16.711  14.183  11.346 -0.1309 -0.1049 -0.2814
15467W        W31361  10.634  10.704   1.508  0.0127  0.0841 -0.2126
15468W        W31362   6.338  18.043  11.039 -0.3845  0.0423 -0.0147
15469W        W31363   8.238   9.025   3.624 -0.3886 -0.1114 -0.0077
15470W        W31364   8.016  15.923   2.638  0.0786  0.1964 -0.0251
15471W        W31365   6.273   5.291   2.186 -0.0014 -0.2141 -0.2181
15472W        W31366   8.587  10.897  13.605  0.0260 -0.2349  0.1287
15473W        W31367   5.908  11.160  11.023 -0.0483  0.0269  0.0203
15474W        W31368   3.613  17.504   4.575 -0.0816  0.3094  0.2611
15475W        W31369  18.911   2.817   4.875 -0.1352 -0.1669  0.0622
15476W        W31370  13.868   0.884   3.706  0.3142 -0.3008  0.3581
15477W        W31371   4.232   6.499   3.222  0.0870  0.0151  0.0734
15478W        W31372   8.672  10.789  12.831 -0.0293 -0.2568  0.0865
15479W        W31373  13.523   0.221  14.774  0.0316 -0.0920 -0.1803
15480W        W31374   5.095   6.922   5.394  0.2365  0.0076  0.1580
15481W        W31375  15.220   9.216  12.997 -0.2688 -0.1937 -0.1047
15482W        W31376   4.029   9.612   2.548  0.0820 -0.1026  0.0675
15483W        W31377  10.912  16.694  11.279 -0.1070 -0.1051  0.1543
15484W        W31378   0.700   7.085   4.302 -0.2912 -0.3425 -0.0071
15485W        W31379  13.855   9.751  14.835  0.1769 -0.1769 -0.0132
15486W        W31380   7.420   4.567  10.767 -0.1294 -0.0587  0.0002
15487W        W31381   7.368  15.821  13.258 -0.0646 -0.2156 -0.0664
15488W        W31382  11.836   8.779   1.475 -0.0615 -0.1988  0.1933
15489W        W31383  17.574   8.070   1.584 -0.0411 -0.2648  0.1391
15490W        W31384   1.938   2.290  10.698  0.0252 -0.3033  0.2716
15491W        W31385   9.230   1.789  14.900 -0.3477 -0.1907  0.1126
15492W        W31386   2.362  10.173   2.937 -0.4456  0.0116 -0.0519
15493W        W31387  17.005  13.526  13.014  0.2573  0.0554 -0.0648
15494W        W31388   4.710  18.204  14.953 -0.2767 -0.2549 -0.0354
15495W        W31389   7.035   9.549  14.867  0.0569 -0.0474 -0.0171
15496W        W31390   3.885   1.908   0.156 -0.2546 -0.0236 -0.1610
15497W        W31391  14.343   2.559   5.064  0.0304 -0.0927  0.1908
15498W        W31392   2.226  15.042  11.385  0.0131 -0.1185  0.1331
15499W        W31393   8.196   8.775  14.862  0.0313  0.0330  0.0685
15500W        W31394   6.840  10.000  10.335 -0.2518  0.5262 -0.0520
15501W        W31395   7.242  11.261   2.896 -0.0585  0.2008  0.1084
15502W        W31396   0.708   9.910   1.411  0.5612  0.0875  0.2279
15503W        W31397  19.110   0.074   2.996 -0.2572  0.1298  0.0303
15504W        W31398  18.795  15.627  13.988 -0.0823 -0.1530  0.1160
15505W        W31399  14.146   2.136   2.466  0.0984 -0.0149  0.2206
15506W        W31400  13.407  13.037  10.880  0.4615 -0.0704 -0.4731
15507W        W31401  11.924  11.592  13.147  0.0776 -0.3078  0.0036
15508W        W31402  14.198   4.396   4.903  0.2486 -0.0064 -0.0949
15509W        W31403   1.509  14.635  11.424 -0.0012  0.0934 -0.1597
15510W        W31404   9.255   6.835  14.597  0.1205  0.3119 -0.1718
15511W        W31405  11.744  11.028  12.367 -0.2427  0.1502 -0.0051
15512W        W31406  17.589   6.051  13.903 -0.4285  0.1028 -0.1216
15513W        W31407   1.970  15.539  13.507 -0.3059 -0.4351 -0.0044
15514W        W31408   1.737   2.036  11.681  0.1496  0.0161  0.1949
15515W        W31409  10.749   4.239   2.344  0.3761 -0.2114  0.4071
15516W        W31410  16.079  16.656   3.051 -0.0493 -0.2687 -0.2239
15517W        W31411   0.757  10.881  12.555  0.0803 -0.2110 -0.1827
15518W        W31412  11.636   0.813   0.896  0.0043 -0.2110  0.1091
15519W        W31413   9.026   9.448   0.499 -0.2137  0.2555  0.0356
15520W        W31414   2.311  15.287   3.916  0.0034 -0.0213 -0.3254
15521W        W31415   8.849   2.099  14.887 -0.1149 -0.0965  0.1941
15522W        W31416   8.864   2.021   5.388  0.4228  0.0009  0.0027
15523W        W31417   8.925   2.256  13.126  0.0572 -0.0356 -0.1188
15524W        W31418   5.495   9.647   0.709 -0.0847  0.3261  0.0110
15525W        W31419   3.486   7.838  13.779  0.0813  0.2296 -0.2335
15526W        W31420  10.004   7.136   2.204  0.0747 -0.0717  0.1562
15527W        W31421  14.613  18.120   3.254 -0.2327  0.2547 -0.3275
15528W        W31422  18.978  13.771   3.288  0.1044 -0.0239 -0.3525
15529W        W31423   0.135  14.857  14.874 -0.5000  0.0481 -0.3300
15530W        W31424   0.709   5.861  11.879 -0.0848 -0.2199  0.0990
15531W        W31425   5.905   6.010  12.670 -0.0883  0.0140 -0.0764
15532W        W31426   1.837   0.655   0.639 -0.1895 -0.3150 -0.0494
15533W        W31427  12.520  15.534   1.683  0.0313 -0.0269 -0.4642
15534W        W31428   3.221   2.219   5.912  0.2121 -0.1457  0.2574
15535W        W31429  16.335  16.544   0.633 -0.1186  0.2443  0.2000
15536W        W31430  15.744   2.843  11.324 -0.0561 -0.1076 -0.0175
15537W        W31431  11.543  17.520  11.587 -0.2308  0.1150  0.0227
15538W        W31432  13.124   8.546   0.053 -0.2413  0.3272 -0.2055
15539W        W31433  15.480   6.616   3.160  0.1141  0.1200  0.1131
15540W        W31434   3.485  12.479   3.492  0.0811  0.0413  0.0333
15541W        W31435   4.530  17.602   0.059  0.0757  0.0907 -0.4332
15542W        W31436   8.087  12.607   4.885  0.1925  0.0857  0.1120
15543W        W31437   1.928   0.489   4.404 -0.2076  0.2700 -0.0153
15544W        W31438  13.436   2.648  12.919 -0.5621 -0.0630 -0.0003
15545W        W31439  18.660   1.890   2.446 -0.1523 -0.0203 -0.0309
15546W        W31440  14.718  15.737  14.726  0.1934  0.1854 -0.1211
15547W        W31441  15.245   4.173  14.439 -0.0863 -0.0853 -0.0228
15548W        W31442   9.850   2.868   2.594  0.1869  0.0347  0.2489
15549W        W31443  17.079  16.163   2.476  0.2229 -0.1631 -0.2462
15550W        W31444  16.834   0.453   2.203 -0.1293  0.2742 -0.0938
15551W        W31445   2.879  16.545   2.184 -0.0000 -0.0155  0.1493
15552W        W31446   9.243  15.222  13.967 -0.0824  0.1349 -0.1595
15553W        W31447  16.765  10.592  14.686 -0.4638 -0.0001 -0.0473
15554W        W31448   5.363  13.949  13.495 -0.0755 -0.1520 -0.0844
15555W        W31449   8.497   6.279   1.454  0.2010  0.3338  0.0210
15556W        W31450  18.144   0.065  12.392  0.4162  0.1280  0.2089
15557W        W31451   0.109  15.529   5.771  0.2019  0.2541  0.3391
15558W        W31452   9.350  13.764   1.950  0.1360 -0.1571  0.2775
15559W        W31453   4.560  17.538   3.035 -0.3954 -0.4419  0.1337
15560W        W31454  10.519  15.435   3.576  0.0677 -0.3111  0.1299
15561W        W31455   8.353  10.165  10.318  0.2082 -0.1645 -0.0446
15562W        W31456   5.867  11.659   1.740  0.1236 -0.2320 -0.1018
15563W        W31457   6.246   7.023  14.409  0.0347 -0.1614 -0.2316
15564W        W31458   3.595   6.796  13.359  0.0326  0.1117  0.2587
15565W        W31459  12.093   2.317  13.071 -0.0856  0.0172  0.0950
15566W        W31460   7.421  10.109   1.432 -0.1324 -0.2304  0.2222
15567W        W31461  16.419   5.056   5.137  0.1902  0.0918  0.0982
15568W        W31462   1.874   7.942  14.187  0.1105  0.1740  0.1747
15569W        W31463   8.666  18.752   0.858 -0.1248  0.0798  0.1376
15570W        W31464  12.726  10.951   3.020 -0.0931  0.3151  0.2133
15571W        W31465  13.272   8.945  12.098  0.2584 -0.2390 -0.0680
15572W        W31466  16.660  12.674  13.041 -0.0326  0.2677 -0.1427
15573W        W31467  17.851  12.707   1.674  0.0893 -0.0709 -0.1141
15574W        W31468   9.949   8.721   1.162  0.2553  0.1075  0.0739
15575W        W31469   5.036  17.272   1.055 -0.0102 -0.2372  0.1201
15576W        W31470   5.658  13.080   3.514 -0.0947 -0.1370  0.0398
15577W        W31471  12.565   5.240   1.659 -0.1493  0.2006  0.2616
15578W        W31472  17.861   1.320  12.898 -0.4786 -0.3500 -0.3109
15579W        W31473   7.725  11.959   2.011 -0.0163  0.0418  0.3141
15580W        W31474  18.949   8.098  11.561  0.2519 -0.2285  0.0883
15581W        W31475  18.680  11.966  13.130  0.2366 -0.0110 -0.1003
15582W        W31476  17.076   0.276   0.547  0.0171  0.1323 -0.0744
15583W        W31477   6.231  16.793  12.812  0.0721  0.0282 -0.2310
15584W        W31478  16.007  18.763  12.563 -0.0007  0.0904 -0.1106
15585W        W31479  16.570   1.601  11.866 -0.2094 -0.1800  0.0786
15586W        W31480   8.359  16.990   0.245  0.1949 -0.3656 -0.0049
15587W        W31481   6.305  13.538  13.455 -0.0840 -0.1078 -0.0690
15588W        W31482  19.087  18.588  12.739  0.2084 -0.0093  0.2045
15589W        W31483   7.457  15.012  13.879  0.0814  0.0162  0.1881
15590W        W31484  16.589   7.241   0.210  0.2332 -0.0283 -0.0738
15591W        W31485  11.619  16.501  15.065  0.0497  0.0105  0.0508
15592W        W31486  17.017   9.069   0.382  0.2301 -0.3802  0.0061
15593W        W31487  11.632  13.332   3.974  0.1150 -0.0140  0.2285
15594W        W31488   6.641  13.166  13.501  0.2663  0.2300  0.0495
15595W        W31489   7.123  17.487   0.218 -0.2139  0.0432 -0.1211
15596W        W31490   3.642  13.033   0.176 -0.1080 -0.0596 -0.1506
15597W        W31491  14.728  11.468   2.415  0.2159 -0.1603  0.1923
15598W        W31492   8.809   6.165  12.574 -0.1938 -0.1445 -0.0501
15599W        W31493   5.919   6.382   1.095 -0.2125 -0.0026  0.1921
15600W        W31494   2.763   1.913  11.069  0.0827 -0.0544 -0.0255
15601W        W31495  18.314   3.567   3.164 -0.1261  0.0588  0.3374
15602W        W31496  14.501  10.695   2.252 -0.3669 -0.1755 -0.2706
15603W        W31497   4.263  14.133  12.015  0.3439 -0.0300 -0.0229
15604W        W31498  10.954   2.402  10.663  0.1992  0.0239  0.4227
15605W        W31499  10.685   7.775  13.386 -0.0796  0.1141  0.1285
15606W        W31500  11.359   2.954   4.518  0.2162  0.1075 -0.5077
15607W        W31501   0.766  18.050   3.523  0.5417 -0.1809  0.0272
15608W        W31502   4.228   2.598  14.312  0.1194 -0.1569  0.1376
15609W        W31503  17.510  17.829   5.658 -0.0663  0.3050  0.0444
15610W        W31504  18.532  15.762   3.448 -0.2293 -0.1347 -0.1902
15611W        W31505  14.802  17.571   5.116 -0.3875  0.0027 -0.1402
15612W        W31506   7.968   5.730   0.256  0.2513  0.1739  0.1648
15613W        W31507   0.649  18.251  14.231  0.1211 -0.2440 -0.0952
15614W        W31508  10.354  17.078   0.619  0.0567 -0.1526 -0.1479
15615W        W31509   9.162  15.580   1.072  0.1429  0.1998 -0.0733
15616W        W31510   6.027  14.940   9.791 -0.1065  0.0235  0.0379
15617W        W31511  16.101  12.104   0.709 -0.0129  0.1698 -0.0045
15618W        W31512   8.611   7.041   0.236  0.3261 -0.0931 -0.3336
15619W        W31513  12.197  13.121   5.701 -0.1570  0.1254  0.2823
15620W        W31514  16.358  10.239  14.772  0.1359 -0.1880  0.3133
15621W        W31515  10.113  18.052   2.401 -0.0078 -0.0405  0.2042
15622W        W31516  16.988  10.768  11.576 -0.0230 -0.2590 -0.0736
15623W        W31517  16.577   7.081   1.694  0.0920  0.2224  0.2398
15624W        W31518  18.011   9.965   4.962  0.0662  0.0861  0.0170
15625W        W31519   3.104  18.937   4.523 -0.3029 -0.3248 -0.0190
15626W        W31520  16.049  17.327  12.089  0.3817 -0.1133  0.1319
15627W        W31521  14.817  18.569   2.307  0.0372  0.0548  0.0138
15628W        W31522  14.530   6.560   1.827 -0.1407 -0.0177  0.1983
15629W        W31523   0.842   7.529   5.566 -0.1236  0.0669  0.3545
15630W        W31524   4.450   7.587   3.616  0.2914  0.1333 -0.0401
15631W        W31525   8.625  11.997   2.467 -0.3076  0.1576  0.0663
15632W        W31526  19.144  11.489   5.606 -0.0451  0.1259  0.0737
15633W        W31527  17.901   0.937  15.161  0.2502  0.3391  0.2386
15634W        W31528  10.643  16.253   3.449 -0.0072 -0.2980 -0.2075
15635W        W31529   3.743  15.679  13.753 -0.0208  0.0197  0.3613
15636W        W31530   0.396   4.031   1.117  0.1492 -0.2888  0.2912
15637W        W31531  13.848   8.324  11.985 -0.2395  0.1608 -0.1015
15638W        W31532   9.619  16.566  11.918  0.0809 -0.0689 -0.0012
15639W        W31533   1.445   8.705  14.673 -0.1399  0.1028 -0.0062
15640W        W31534  13.418  18.702  11.092  0.0037 -0.0624 -0.0000
15641W        W31535  17.711   1.887   5.660 -0.2483  0.2968 -0.0818
15642W        W31536  13.416  16.924  12.263 -0.2728 -0.0885  0.0078
15643W        W31537  14.971  14.734   1.849 -0.0909  0.0476 -0.0408
15644W        W31538   5.122  13.533   2.255  0.1369  0.0732 -0.0751
15645W        W31539   2.523  17.190   1.572 -0.3610 -0.2245  0.0230
15646W        W31540  13.254  12.112  11.466  0.2812  0.2414 -0.1583
15647W        W31541   3.973   7.725  13.759  0.2010 -0.1569 -0.0677
15648W        W31542  14.687   1.805   0.292 -0.3338 -0.2522  0.0884
15649W        W31543   7.776   2.089  10.318  0.0200 -0.2428  0.0457
15650W        W31544   6.081  15.229   2.368  0.0908  0.1045 -0.0887
15651W        W31545  11.656  10.924  11.838  0.0821 -0.1007 -0.1791
15652W        W31546   8.495  10.213  11.951 -0.0483  0.0651 -0.0250
15653W        W31547   1.698   2.180   4.766 -0.0981  0.1589 -0.1204
15654W        W31548  14.965   4.834  12.880  0.0152  0.0165  0.1218
15655W        W31549   5.950  15.793   9.984  0.0704 -0.2361  0.2621
15656W        W31550  18.554  16.334   4.733 -0.2857 -0.0892  0.1866
15657W        W31551   9.956   8.830  10.969 -0.2683  0.2022  0.0354
15658W        W31552  15.689   5.827   3.155 -0.1817 -0.2100 -0.1069
15659W        W31553  12.082   2.781   1.724  0.0221 -0.0986 -0.0465
15660W        W31554  15.552  16.579  13.837 -0.2528  0.3515 -0.0686
15661W        W31555  15.931  16.237  11.083 -0.2182  0.1456  0.3724
15662W        W31556   2.911  17.412   0.221  0.0982  0.2407 -0.1808
15663W        W31557  18.262  19.051  14.628  0.1469 -0.0886  0.1420
15664W        W31558  11.942   3.177  12.347 -0.0804 -0.0019  0.0933
15665W        W31559   2.872   6.494   9.249 -0.1196  0.0753  0.1173
15666W        W31560  10.855  10.491   4.134  0.3721 -0.2942 -0.1197
15667W        W31561  17.422  18.552   4.510  0.0827  0.0388 -0.0500
15668W        W31562   4.106   1.043   2.356  0.1012 -0.0912  0.1873
15669W        W31563  13.906  10.423   3.551  0.1547  0.0888 -0.1491
15670W        W31564  18.162   5.110   4.019 -0.0428  0.0410  0.2373
15671W        W31565  13.120   7.716  13.618 -0.2344  0.3049 -0.0711
15672W        W31566   7.830   1.004  10.002 -0.1476 -0.0009 -0.2418
15673W        W31567   3.275   7.590  14.171 -0.0861  0.0618 -0.1737
15674W        W31568   3.340   8.991   2.232  0.1553  0.1354 -0.1104
15675W        W31569   0.220  17.142   0.676 -0.2473  0.0570 -0.1030
15676W        W31570   1.526  17.836  11.496 -0.0922 -0.0826  0.0386
15677W        W31571   8.861  13.398  12.532 -0.2020  0.0364  0.1673
15678W        W31572   8.679  16.819  14.236 -0.1517  0.3538  0.1514
15679W        W31573   6.028   6.770  13.129  0.4288  0.0369  0.1053
15680W        W31574  12.151   6.459   3.436 -0.0500 -0.2354  0.0534
15681W        W31575   7.508   9.594   1.800  0.0094  0.1235 -0.1321
15682W        W31576   3.381   3.352  14.399  0.2313  0.2582  0.1198
15683W        W31577   7.212   4.863   4.097 -0.2527 -0.0784 -0.2207
15684W        W31578  17.054   9.550   3.218 -0.1871  0.1312  0.0101
15685W        W31579   1.024   7.681  15.079 -0.2489 -0.3470  0.0417
15686W        W31580   9.252  14.153   4.637 -0.0011 -0.1810 -0.3484
15687W        W31581  10.694   1.683   5.606  0.2289 -0.2149 -0.3534
15688W        W31582  14.275  11.395   2.577 -0.1558 -0.5269  0.3043
15689W        W31583   9.549   6.133   3.998  0.0623 -0.1411 -0.5431
15690W        W31584  17.407   0.484  12.904  0.0552 -0.1506  0.1141
15691W        W31585  13.687  11.973  10.170  0.3502  0.2324  0.0388
15692W        W31586   2.920   9.362   5.152  0.2351 -0.0778 -0.3575
15693W        W31587   6.481   6.511   0.816 -0.2553  0.1576 -0.0178
15694W        W31588   0.953   0.668   2.305 -0.0170 -0.1492  0.2201
15695W        W31589  19.129  10.164  11.798  0.0096 -0.2096 -0.4183
15696W        W31590  13.371   8.788   5.251 -0.1087 -0.0701  0.3049
15697W        W31591  18.036   3.815   3.944 -0.0886  0.2367 -0.3514
15698W        W31592   1.507  10.936  15.001  0.3613  0.3422 -0.0729
15699W        W31593   6.887   1.550   2.151 -0.2490  0.1210 -0.1377
15700W        W31594   8.872  15.469   0.089  0.0690  0.0005  0.4237
15701W        W31595   8.219  11.313  12.032 -0.1372 -0.3332  0.1772
15702W        W31596   7.351  14.903  15.061  0.0446  0.0593  0.0622
15703W        W31597  13.711   0.584   2.517 -0.2348  0.2914  0.3599
15704W        W31598   9.701  11.707  11.074 -0.1412  0.4025 -0.2686
15705W        W31599   9.594   6.801   3.355 -0.1423  0.0030 -0.2099
15706W        W31600  10.770  14.146   3.448 -0.0848 -0.1078  0.0468
15707W        W31601   4.539  14.827   5.167 -0.0736  0.2553  0.2345
15708W        W31602   3.627  18.460  11.812 -0.3546  0.2331  0.1052
15709W        W31603   9.890  16.860  10.960  0.1156 -0.0550 -0.0691
15710W        W31604  12.926   6.323   4.849  0.0441  0.0772  0.0018
15711W        W31605   9.129  11.001   5.196 -0.1233  0.1904 -0.1394
15712W        W31606   1.203   8.194   0.092  0.0843 -0.2500  0.1784
15713W        W31607   0.392  12.182  11.854 -0.1580 -0.2391  0.1740
15714W        W31608   5.608  12.943  13.249 -0.1950 -0.0902 -0.1968
15715W        W31609   1.447   9.082   2.010 -0.0463  0.0391 -0.0779
15716W        W31610   7.493  14.973  10.478 -0.0066 -0.1671  0.0654
15717W        W31611  15.583  12.699  11.589  0.0102 -0.0850 -0.4182
15718W        W31612   4.396  15.634   0.194 -0.2125 -0.1501 -0.0155
15719W        W31613   4.577   9.775   4.545 -0.2939  0.0314  0.0770
15720W        W31614  10.555   5.261   3.803 -0.2285 -0.1764  0.3603
15721W        W31615  13.181   1.261  13.214 -0.1774 -0.3349 -0.1714
15722W        W31616   1.779   3.577   0.623 -0.1223  0.1246  0.1116
15723W        W31617  11.747  17.614   3.692 -0.4275 -0.2564 -0.1068
15724W        W31618   6.778  16.010  14.978  0.0693 -0.2592  0.0161
15725W        W31619   6.514  16.914  11.934 -0.0793 -0.0218  0.0543
15726W        W31620  12.950   2.350   1.886 -0.0897  0.3324 -0.2957
15727W        W31621  11.291   4.471   1.740  0.0014 -0.0925 -0.1124
15728W        W31622   1.068   0.673  11.215  0.0284 -0.1464 -0.0200
15729W        W31623  18.750   3.474  13.370 -0.0071  0.2169  0.1367
15730W        W31624   0.545  14.141  11.572 -0.2383  0.1681 -0.1004
15731W        W31625   7.424  12.363  12.299 -0.2175 -0.0480 -0.3450
15732W        W31626  13.833   5.851  11.637 -0.2121  0.1891 -0.0806
15733W        W31627  18.789   2.815   0.779 -0.0774  0.2534 -0.0979
15734W        W31628   2.884   4.921  11.675 -0.1538 -0.1676 -0.0926
15735W        W31629  18.159   3.077  12.783  0.0697 -0.3483  0.0656
15736W        W31630  14.671   4.265  10.883 -0.0193  0.1925  0.1453
15737W        W31631   3.796  11.514  12.341  0.5509  0.1014  0.2030
15738W        W31632  16.706  16.542   1.007  0.3605 -0.2151  0.0852
15739W        W31633   5.161  16.892   2.352  0.1018 -0.0155  0.0719
15740W        W31634  14.700   9.248   1.172  0.1916 -0.0710 -0.2808
15741W        W31635   9.157  16.066   1.210 -0.2901 -0.0004  0.2603
15742W        W31636  18.649  12.229   1.300  0.3296  0.1345 -0.1944
15743W        W31637   1.553   4.801  14.440  0.2862  0.1876  0.1068
15744W        W31638   3.043   6.729  11.472  0.1178  0.1143 -0.0987
15745W        W31639  14.738  11.500  11.629 -0.1412 -0.0676  0.1537
15746W        W31640   5.150  18.507  13.761  0.0639  0.3908  0.2198
15747W        W31641  12.048   7.240  12.312 -0.0433 -0.4160 -0.0353
15748W        W31642   5.667   7.437  10.888  0.2732  0.2657 -0.2350
15749W        W31643   5.042  10.587   4.690 -0.1970 -0.0450  0.0325
15750W        W31644  15.763   3.759   5.541  0.1163 -0.0005 -0.1806
15751W        W31645   8.577   2.023   2.433 -0.1054  0.0989 -0.1136
15752W        W31646  15.685   8.193  12.835 -0.1782 -0.1982 -0.0201
15753W        W31647   0.578   3.693   4.839  0.2567 -0.1005 -0.1303
15754W        W31648   5.551   6.733  11.380  0.2487 -0.0781 -0.1529
15755W        W31649  19.182   8.696  10.639 -0.2762 -0.0380  0.0251
15756W        W31650   9.991  13.709  13.646  0.3040  0.0877 -0.0173
15757W        W31651   7.700  13.360  11.116  0.0928  0.3787  0.0499
15758W        W31652   4.337   4.412  14.252 -0.2300  0.1009 -0.1243
15759W        W31653   1.232  18.975  10.577  0.0897  0.1554 -0.3410
15760W        W31654  11.191  17.973  12.335  0.1115  0.0407  0.2751
15761W        W31655   7.451   7.738   4.360 -0.0106  0.0123  0.0450
15762W        W31656   1.822  12.927  13.571  0.0156 -0.1562  0.0903
15763W        W31657  12.191  10.234  13.215 -0.1688  0.2137  0.0656
15764W        W31658  14.589   7.254  12.210  0.0528  0.1841 -0.0188
15765W        W31659  18.160  14.319  12.764  0.2499 -0.1059  0.0744
15766W        W31660  11.964   7.520   0.458 -0.1077 -0.4809  0.0478
15767W        W31661  10.125   4.509   3.020 -0.0148  0.3454 -0.1857
15768W        W31662   7.820   7.072   0.862 -0.3866  0.0593  0.0686
15769W        W31663  10.990   0.921  14.905  0.3492  0.3855 -0.0943
15770W        W31664  13.323   0.207   1.631 -0.1676  0.4103 -0.0242
15771W        W31665  17.235  19.088  10.414 -0.2486  0.1524 -0.0593
15772W        W31666   3.561   0.416   5.028 -0.0614 -0.1479 -0.1492
15773W        W31667  19.136   3.206  13.949 -0.0115  0.0718  0.0440
15774W        W31668  18.239   5.062   3.508 -0.0476  0.4328 -0.0402
15775W        W31669  16.641   0.322   0.764 -0.2169  0.2853  0.0246
15776W        W31670   3.085   5.627   4.604 -0.0710  0.1914  0.0130
15777W        W31671  18.349   6.543  13.580 -0.0483 -0.0588 -0.3074
15778W        W31672  11.229  10.560   3.117  0.2862 -0.0258 -0.1836
15779W        W31673   8.692   8.139   3.209  0.0005  0.1676  0.0827
15780W        W31674  13.112  10.177  12.785 -0.1150  0.4077 -0.2480
15781W        W31675  11.268  12.330  10.919  0.0410 -0.2703 -0.1783
15782W        W31676  11.969  13.417   1.917 -0.0750  0.1608 -0.2913
15783W        W31677   8.743  12.593  11.918  0.0378  0.1455  0.0268
15784W        W31678   4.969  16.564  10.352  0.3206 -0.0492 -0.1193
15785W        W31679   0.993  17.839  11.498 -0.1381  0.1536 -0.0109
15786W        W31680  16.776   1.339  14.966  0.3311 -0.0659 -0.1779
15787W        W31681   6.574  15.736   9.770  0.1760 -0.1231 -0.3246
15788W        W31682   5.460  16.122  13.067  0.2167  0.0264 -0.0920
15789W        W31683  11.772   0.382   3.600  0.0454  0.0782  0.0509
15790W        W31684   2.675  11.841  13.144  0.1870  0.2435  0.5937
15791W        W31685   7.094  13.402   2.110  0.2970 -0.2371  0.0564
15792W        W31686   1.423  15.138  13.028 -0.0564 -0.3770 -0.0635
15793W        W31687  10.799  12.513  11.147  0.0401  0.0019 -0.4558
15794W        W31688  15.565   9.456   3.573  0.2106 -0.2946 -0.0748
15795W        W31689   2.690   8.765  14.225  0.0209  0.1728 -0.2411
15796W        W31690   2.758   1.804  11.641  0.1729  0.1430  0.0469
15797W        W31691   6.789   3.984   3.096 -0.1261  0.0470  0.0100
15798W        W31692  17.990   9.704   4.467  0.3267  0.2267 -0.0313
15799W        W31693   0.271   2.117   2.935 -0.1754 -0.0336 -0.0316
15800W        W31694   0.111  14.312   1.282 -0.1481  0.0433  0.1749
15801W        W31695   5.817   4.693   9.349 -0.1233 -0.3266 -0.0400
15802W        W31696  13.416  11.373  13.999 -0.3469  0.0599 -0.0287
15803W        W31697  18.963  17.000  11.580  0.2480  0.1057 -0.0345
15804W        W31698   3.720  13.134   4.044  0.1503 -0.0735  0.0191
15805W        W31699  13.090   6.457  15.094 -0.1748  0.1814  0.1334
15806W        W31700  18.143   1.625   5.222  0.1694  0.1468  0.0963
15807W        W31701   5.022  15.146   3.827  0.2005  0.3647 -0.1757
15808W        W31702  12.372   3.043   3.026  0.1622  0.2579  0.3951
15809W        W31703   0.784   3.245  10.719 -0.3086 -0.2909  0.2605
15810W        W31704   1.437  10.880  11.441 -0.1591  0.0701  0.2744
15811W        W31705  14.637  14.558  10.859 -0.0330  0.2118 -0.0236
15812W        W31706   2.994   5.888   1.744 -0.1472  0.1642  0.1064
15813W        W31707   3.204  10.002  11.662  0.1538  0.2473  0.1340
15814W        W31708  18.727   1.373   4.542  0.0303 -0.1605 -0.1271
15815W        W31709  15.617   2.719  11.994 -0.1772  0.1431  0.0761
15816W        W31710   8.335  17.668   2.095  0.1517  0.0545 -0.4625
15817W        W31711  13.402  15.975  11.847  0.0584 -0.2339  0.2313
15818W        W31712  10.160  15.966  12.802 -0.1569 -0.1806  0.0405
15819W        W31713   3.854   3.107   9.793 -0.0169  0.0407 -0.2426
15820W        W31714   3.711  10.424   3.264  0.3369  0.0737  0.0246
15821W        W31715  15.525  15.002   2.327  0.2188 -0.2232  0.1766
15822W        W31716   3.542   3.671   2.606  0.1362  0.1279  0.0082
15823W        W31717   2.147   4.815  14.329  0.1761  0.1648 -0.0400
15824W        W31718   2.302  18.183   0.272 -0.1052 -0.1471  0.0555
15825W        W31719   1.407   7.555   3.737 -0.2523 -0.4307 -0.1534
15826W        W31720   6.639  15.483   0.478 -0.1065  0.0077 -0.1415
15827W        W31721   2.480   9.227  14.315  0.0616  0.5031  0.1184
15828W        W31722   0.794   1.400   4.883  0.2708 -0.0092  0.0307
15829W        W31723  16.940  12.248   1.181  0.0006 -0.1789 -0.0854
15830W        W31724  15.099   8.656  11.183  0.2824 -0.0899  0.1200
15831W        W31725  12.565   8.719   1.095  0.1218  0.0752  0.0009
15832W        W31726   2.826  17.271  14.005  0.0317 -0.1083  0.0802
15833W        W31727   6.865   5.327   2.827  0.1530  0.0554 -0.3697
15834W        W31728   3.520   6.413  10.249  0.1442 -0.2278  0.0473
15835W        W31729  13.964   5.029   2.736 -0.1345  0.0274 -0.0966
15836W        W31730   6.930   0.087  10.385 -0.0608 -0.0499 -0.4219
15837W        W31731  17.000   6.574   3.201  0.0870  0.1743 -0.1605
15838W        W31732  13.090   0.674   4.212  0.1619  0.1992 -0.2163
15839W        W31733  18.020   1.921  11.055 -0.0852 -0.4248  0.0137
15840W        W31734   4.156   4.959  11.534  0.0159  0.1280 -0.1436
15841W        W31735   7.130   3.497  14.636  0.0993 -0.3353  0.1652
15842W        W31736   8.802   2.051   0.557 -0.1733 -0.0283  0.1782
15843W        W31737  15.009   6.295   2.460  0.0034 -0.1229  0.1030
15844W        W31738   9.263   7.405  10.840 -0.1594 -0.1700  0.1267
15845W        W31739   8.370   1.170  14.141 -0.5755 -0.0304  0.0089
15846W        W31740  16.067  13.595  11.614  0.2448 -0.1173 -0.0758
15847W        W31741  16.712   7.608   1.637 -0.0793 -0.1738 -0.1043
15848W        W31742  15.585  10.833   1.004 -0.2750  0.1202  0.0110
15849W        W31743   6.235   9.278   2.471  0.0938  0.1297 -0.0742
15850W        W31744   3.690   4.086  12.542  0.0257 -0.1284 -0.0996
15851W        W31745  15.294   6.084  12.918  0.0071 -0.2042  0.1344
15852W        W31746   1.453   3.227  13.746 -0.1466  0.2001 -0.2982
15853W        W31747  18.718  12.844   5.567 -0.1470 -0.1850 -0.1461
15854W        W31748   5.961  15.616  11.792  0.2959 -0.0753  0.1307
15855W        W31749  16.871  14.413  10.673  0.0872  0.1215 -0.1344
15856W        W31750  14.994  13.329  13.230 -0.2228  0.2427  0.0137
15857W        W31751  10.959   0.989   4.369  0.0478 -0.0803 -0.2250
15858W        W31752   6.488  10.179  11.301  0.1043  0.0802 -0.0514
15859W        W31753  17.371  10.372  12.448  0.4015 -0.0407 -0.1777
15860W        W31754   5.350  13.885  14.984 -0.2267 -0.3199 -0.0014
15861W        W31755  16.437   1.569   2.791  0.1264 -0.1210 -0.1972
15862W        W31756  12.521   3.355   0.616 -0.2637  0.1567 -0.1255
15863W        W31757  16.909  15.675  14.725  0.1667  0.1570  0.0805
15864W        W31758   3.506   1.508  12.684  0.0031 -0.3740  0.0083
15865W        W31759  18.752  16.523   3.004 -0.0701  0.0924  0.1839
15866W        W31760   8.664   8.723   0.521 -0.3877 -0.0829 -0.0232
15867W        W31761   1.631  14.270   1.902  0.0695 -0.2524  0.0233
15868W        W31762  19.091   6.422  12.073 -0.0431  0.2480 -0.0838
15869W        W31763  15.828  13.005  11.254  0.3438  0.4966  0.0577
15870W        W31764  10.043  16.147  13.817  0.0427  0.2084  0.1997
15871W        W31765  13.136  15.880  12.751 -0.1055  0.0920 -0.2339
15872W        W31766  10.759  10.928   4.280 -0.4839  0.1320  0.0800
15873W        W31767   2.195   2.051   2.009 -0.1065 -0.1178  0.0553
15874W        W31768  18.911   2.041  10.078  0.0238 -0.0392  0.0682
15875W        W31769   1.996   2.384   0.714 -0.1416  0.1472 -0.2073
15876W        W31770  15.440  10.603   1.444 -0.1310 -0.0255 -0.0851
15877W        W31771   6.990   8.129   3.250 -0.0033 -0.1825 -0.2642
15878W        W31772  17.625  16.187   2.306 -0.1577  0.0913 -0.3777
15879W        W31773   3.812   6.323   2.935 -0.5381  0.1771  0.1694
15880W        W31774   2.987   9.015   0.304  0.0105  0.1802  0.2640
15881W        W31775   2.132   2.527   4.725 -0.0066  0.3314 -0.1091
15882W        W31776  11.936  15.074  11.551  0.0771 -0.1157 -0.0150
15883W        W31777  10.274   2.738  10.902  0.0445 -0.1078  0.0274
15884W        W31778  16.564  12.989  10.693  0.2237  0.2306 -0.1777
15885W        W31779  16.519   1.502  12.415  0.2138  0.0643  0.1969
15886W        W31780   1.347  18.307  11.475 -0.0890 -0.1195  0.0926
15887W        W31781   2.625   3.289   0.819  0.0343  0.1034 -0.0895
15888W        W31782   2.231  14.111   1.732  0.1041  0.0515 -0.1214
15889W        W31783   3.666   2.584  14.217  0.1923  0.1338  0.3549
15890W        W31784  16.591   4.282  11.093  0.1353 -0.0843  0.1364
15891W        W31785   3.721   4.634  13.314 -0.0317  0.0637  0.2455
15892W        W31786  16.372   5.456  14.113  0.1706  0.1799  0.6360
15893W        W31787  14.374  13.783   4.529 -0.2491 -0.0955  0.2560
15894W        W31788  16.330  14.159   1.713  0.1103 -0.0988 -0.0669
15895W        W31789   3.884   7.896   0.026  0.1711  0.4569 -0.2098
15896W        W31790   6.287   4.038   3.706  0.0810  0.2693 -0.1003
15897W        W31791  11.115   2.896  11.440  0.1455 -0.0726 -0.0114
15898W        W31792  10.959   1.665   9.315  0.3044  0.0964  0.2130
15899W        W31793   0.030   6.872   4.690  0.3695  0.2869 -0.0888
15900W        W31794   9.735  17.152  13.141  0.3315 -0.0181  0.3892
15901W        W31795  14.689   3.755  10.823 -0.0390  0.0741  0.0659
15902W        W31796  12.833  12.140   1.062  0.0319 -0.0247 -0.0904
15903W        W31797   4.900  17.476   4.629  0.1915 -0.2656  0.3153
15904W        W31798   9.962   6.276   1.173 -0.3758 -0.3455  0.0791
15905W        W31799   2.746   3.092   3.416  0.0234  0.4190  0.0300
15906W        W31800   2.049  11.267  12.791  0.2616  0.0547  0.1899
15907W        W31801  10.452  12.212  13.441 -0.1239 -0.1058  0.3228
15908W        W31802  14.497   5.746  12.357  0.4059 -0.3051 -0.0488
15909W        W31803   0.413   5.151   2.488  0.1041 -0.0729  0.2637
15910W        W31804  18.216  16.052   5.403 -0.1203 -0.1092  0.3723
15911W        W31805  12.219   9.080  13.036  0.0107  0.1824 -0.0957
15912W        W31806  19.003  10.158  10.615 -0.2180  0.0491  0.1963
15913W        W31807  14.118   0.379   3.226 -0.1048  0.0850  0.1030
15914W        W31808  16.923   7.545   2.726  0.0007  0.1750 -0.4209
15915W        W31809  10.377  10.001   0.163  0.1564  0.0704  0.3909
15916W        W31810  11.047  15.353  14.656 -0.0310 -0.1343  0.4133
15917W        W31811  12.556   1.183   3.755 -0.1888 -0.1295  0.0457
15918W        W31812  13.649  13.073   1.998  0.3097  0.1773  0.2126
15919W        W31813  16.870  16.717   0.013  0.2040  0.2976 -0.1609
15920W        W31814  16.600  16.796  10.150  0.2321  0.0534 -0.1929
15921W        W31815   2.323   0.767  14.834  0.0294  0.0959 -0.0917
15922W        W31816   1.703   1.795   9.551 -0.2389 -0.0968 -0.1925
15923W        W31817  18.296   5.050  11.038  0.0488 -0.2018 -0.0958
15924W        W31818  11.553  17.677   3.006 -0.0352 -0.2547  0.2038
15925W        W31819   2.456   4.214   2.182 -0.0577 -0.2364  0.1294
15926W        W31820   1.917   1.463  13.557  0.3423  0.0748 -0.0267
15927W        W31821  13.564   5.222  12.207 -0.1057  0.1961  0.1140
15928W        W31822   1.612   7.754   2.468 -0.1131  0.0062  0.0017
15929W        W31823   4.872   9.509   1.446  0.1668  0.1838  0.0201
15930W        W31824  12.151   0.731   4.044  0.0678  0.1765 -0.4342
15931W        W31825   3.792  14.300  12.237 -0.0543 -0.2063  0.1553
15932W        W31826   8.822   0.405   3.458 -0.0834  0.0390  0.2361
15933W        W31827   8.759   2.660  11.701 -0.1654  0.1547  0.1150
15934W        W31828  19.126   1.740  15.109 -0.2117  0.3376 -0.2344
15935W        W31829  18.478  11.892   1.756  0.2080 -0.4024  0.0387
15936W        W31830   9.991  12.131   5.344 -0.2067  0.0375  0.0647
15937W        W31831   0.144   5.561  10.744 -0.0870 -0.0127 -0.5816
15938W        W31832  10.878   0.795  13.534  0.0341  0.2639 -0.0299
15939W        W31833  10.398   5.720   4.903 -0.0912 -0.2413  0.2265
15940W        W31834   8.081  17.701  11.217 -0.0515  0.1594  0.0101
15941W        W31835   1.886   6.072  13.545  0.0141  0.2340 -0.0093
15942W        W31836   5.867   6.298   1.615  0.2148 -0.0163  0.0455
15943W        W31837   4.560  19.161  13.903  0.2550 -0.2133 -0.0879
15944W        W31838  11.299   1.683   3.522  0.0991  0.2043  0.0532
15945W        W31839   3.044   0.534  14.787 -0.0279  0.0160 -0.0239
15946W        W31840   0.434  18.201  14.921 -0.1478  0.3010  0.0385
15947W        W31841   5.312  13.431  10.963  0.1887  0.1464  0.0473
15948W        W31842  15.986  18.294  13.685 -0.0619 -0.2246  0.1218
15949W        W31843  19.047   9.878   0.687  0.0034  0.2000  0.0217
15950W        W31844  13.455  14.478  13.454 -0.0812 -0.0798  0.2777
15951W        W31845  11.066   9.313   2.275  0.0448 -0.1007  0.3289
15952W        W31846  15.950   7.149   4.083  0.2654  0.2360  0.0940
15953W        W31847  18.365  15.213   5.078  0.1155  0.1918  0.1077
15954W        W31848  17.325   2.930   1.137  0.2223 -0.1324  0.0206
15955W        W31849  13.890  18.265   0.795 -0.1971  0.0581  0.1484
15956W        W31850   5.821   0.458  11.669 -0.0995  0.0104 -0.2733
15957W        W31851  12.521   7.781  10.894  0.0783  0.0208  0.1042
15958W        W31852  11.354  17.194   1.754 -0.0070 -0.5581 -0.0118
15959W        W31853  11.291  16.292   1.526  0.0609  0.0730 -0.1162
15960W        W31854  11.592  13.895   0.629 -0.0836 -0.0386  0.0180
15961W        W31855   1.209   8.875  10.503 -0.4095 -0.0998  0.1401
15962W        W31856  13.615   1.823   4.902 -0.2321 -0.2866  0.2002
15963W        W31857   6.229   9.682   3.477  0.0914 -0.0666 -0.1134
15964W        W31858  19.081  16.698   2.523  0.0144  0.2554 -0.0205
15965W        W31859   7.155  18.861   0.683 -0.1383 -0.1916  0.2592
15966W        W31860   0.832  18.788   5.181  0.2647 -0.3186 -0.1434
15967W        W31861  17.328   1.229  10.658  0.3798 -0.1086  0.3343
15968W        W31862   7.043   5.406  14.455 -0.0676  0.0374  0.0587
15969W        W31863   3.576   1.346  11.696 -0.0532 -0.1217 -0.3736
15970W        W31864  18.463   2.954   1.720 -0.1625 -0.1281  0.2169
15971W        W31865   1.664   8.192  11.040  0.1764 -0.0830 -0.1719
15972W        W31866   1.728  10.025   4.392  0.2244 -0.0577  0.0736
15973W        W31867  17.742  15.113  13.042 -0.0535 -0.1216 -0.1943
15974W        W31868  17.054   1.385  14.006 -0.1409 -0.4008 -0.2315
15975W        W31869  11.795   1.054  13.964  0.1950 -0.0597  0.0579
15976W        W31870   3.452   5.310   5.701  0.0088  0.1009 -0.0217
15977W        W31871  17.652   3.011   4.487 -0.1104 -0.1590  0.0549
15978W        W31872  16.209  16.657   1.105  0.0644 -0.0260  0.1860
15979W        W31873  11.030   4.108   1.968  0.2604  0.2162 -0.0254
15980W        W31874   6.879   0.677  12.360 -0.0788 -0.1034 -0.1421
15981W        W31875   7.959   6.193  11.442  0.0137 -0.1218 -0.1283
15982W        W31876   6.940  18.477  10.486 -0.1465  0.2861  0.1120
15983W        W31877   0.674  17.787   2.029 -0.0854  0.0379  0.3734
15984W        W31878  17.255  19.065  13.689  0.4241  0.1863  0.1514
15985W        W31879   8.039  17.308  10.424 -0.2530  0.1827 -0.0317
15986W        W31880   2.054   2.493   2.043  0.0960  0.1420 -0.1713
15987W        W31881   7.024  17.389   3.897 -0.1677 -0.0343 -0.2350
15988W        W31882   3.097  11.706  11.398  0.0154 -0.3148  0.0560
15989W        W31883  10.895   3.946  14.296 -0.0767 -0.3385  0.0078
15990W        W31884  15.159  18.061   1.991 -0.0188  0.5898 -0.3136
15991W        W31885  15.386   6.210  13.710 -0.2614 -0.0958  0.1613
15992W        W31886   2.119  16.237   4.192 -0.3158  0.2718 -0.0260
15993W        W31887   5.220  11.856   0.552  0.0349  0.2273 -0.1565
15994W        W31888   5.935   9.444  15.186  0.0519 -0.0950 -0.2001
15995W        W31889   2.898  19.035   3.088 -0.2888  0.0392  0.1196
15996W        W31890  13.372   0.889   3.833  0.3441 -0.1620 -0.0872
15997W        W31891  14.065   6.806   4.830 -0.0378  0.1173  0.0858
15998W        W31892  14.567  13.690  14.042  0.0414 -0.1644 -0.0315
15999W        W31893   7.072   8.729  12.911  0.0507 -0.1485 -0.1254
16000W        W31894  16.318   0.757   3.971  0.2463 -0.3014  0.2498
16001W        W31895   1.050  14.139  11.758  0.2364 -0.0263  0.1011
16002W        W31896   0.310   4.919  14.825  0.0019  0.0457  0.1390
16003W        W31897   4.817   1.363  10.639  0.3027  0.0694 -0.1366
16004W        W31898  17.010  15.207   4.881  0.1053  0.2274 -0.4510
16005W        W31899   5.346  11.918  10.488 -0.0627  0.2717 -0.2659
16006W        W31900   7.804   0.596  10.267 -0.1294  0.0025 -0.0270
16007W        W31901   2.529  12.534  14.835 -0.3353  0.0811  0.0388
16008W        W31902   5.623   7.659  14.118  0.1125  0.1991  0.0403
16009W        W31903  16.865  18.802  13.767  0.5763  0.0675 -0.0932
16010W        W31904   8.432   3.601   4.873  0.1879  0.2072  0.1408
16011W        W31905   0.484  16.880   2.549 -0.0053  0.2969 -0.1735
16012W        W31906   7.590   0.259   3.983  0.0114  0.0981 -0.0025
16013W        W31907  14.492  10.933   1.645  0.1415  0.1128 -0.0115
16014W        W31908   1.149   8.644   4.565  0.0759 -0.0271 -0.2371
16015W        W31909   4.062  16.073   5.436  0.0817  0.0859  0.2521
16016W        W31910   7.557   3.368  12.871  0.2705  0.1686  0.0827
16017W        W31911   3.830  17.904  14.815  0.0511 -0.1528  0.1648
16018W        W31912  19.078  11.866  14.935 -0.0447 -0.0781 -0.0482
16019W        W31913   0.400   0.220  13.288 -0.1527  0.0040  0.1728
16020W        W31914   9.668  16.748   2.236 -0.2157 -0.0405  0.0343
16021W        W31915   5.203   1.165   1.273 -0.0676 -0.1938  0.1270
16022W        W31916  16.015   2.092  14.682  0.1292 -0.1481  0.1353
16023W        W31917   8.303  10.673   0.258  0.3760 -0.0290  0.2007
16024W        W31918  14.767   5.545   1.822  0.1508 -0.0912 -0.0824
16025W        W31919  16.047   0.262  12.591 -0.3983  0.0467 -0.0576
16026W        W31920   2.622   6.145   2.493  0.0250  0.1173 -0.3699
16027W        W31921  12.104   5.601   1.369 -0.1586  0.2331 -0.1220
16028W        W31922   2.314   3.187  10.417 -0.2352 -0.1563 -0.1423
16029W        W31923   3.416  11.556  12.666  0.0114  0.2235 -0.1306
16030W        W31924   5.275   5.501  11.201 -0.1901 -0.0981  0.0265
16031W        W31925   9.000   1.870   4.093  0.1090  0.0823 -0.3551
16032W        W31926   4.145  13.977   5.838  0.0146 -0.0678 -0.0801
16033W        W31927  16.440   0.999  11.148  0.2098  0.1479 -0.0042
16034W        W31928   4.337  17.886  14.852 -0.1586  0.2150 -0.1505
16035W        W31929  16.176   8.100   4.382  0.1454  0.0545  0.0163
16036W        W31930  11.087   3.081  15.039 -0.2681  0.1491 -0.1951
16037W        W31931   0.638  14.757  13.212 -0.2176 -0.2552 -0.2017
16038W        W31932   0.747  15.128   0.910  0.0061  0.0725 -0.0275
16039W        W31933   8.458  10.049   2.812  0.4112  0.0122 -0.0316
16040W        W31934   0.084  12.823  14.857  0.0844 -0.0513  0.2350
16041W        W31935   3.495  18.085   9.125  0.1946 -0.0915  0.0540
16042W        W31936   0.137   1.974  13.066  0.0798  0.1104  0.0255
16043W        W31937   1.676  12.880  10.551  0.2897  0.2106 -0.0787
16044W        W31938  15.831   9.844  14.109  0.3302 -0.3055  0.0112
16045W        W31939   8.839   1.113   0.121  0.0318 -0.0584  0.0654
16046W        W31940   8.828  12.410   0.379 -0.2723 -0.1099 -0.1744
16047W        W31941  14.874   3.302   3.821 -0.1223  0.0134 -0.1596
16048W        W31942  18.571   4.770  12.862 -0.2401 -0.1303  0.2533
16049W        W31943  12.306  10.192  14.082  0.0951  0.0853 -0.1148
16050W        W31944  10.561  18.292  12.887 -0.0829  0.1077 -0.0489
16051W        W31945   2.737   6.367   1.120 -0.0773  0.0714 -0.4277
16052W        W31946  15.181  11.487  11.760  0.0249  0.2628  0.0702
16053W        W31947  19.081  16.234  13.199  0.1923  0.2769  0.0827
16054W        W31948   0.147  18.683   0.607 -0.1204 -0.3930 -0.0408
16055W        W31949  11.491   3.247   2.321 -0.0620  0.1455 -0.2592
16056W        W31950  12.165  12.126   3.050 -0.1941 -0.0711  0.2308
16057W        W31951  11.522   7.597   0.140 -0.0391 -0.1235 -0.0091
16058W        W31952   9.074   1.207   3.275  0.0850 -0.1364 -0.1805
16059W        W31953   1.015   1.540  11.988 -0.0838  0.1045  0.2698
16060W        W31954   9.081  13.120   2.687 -0.0530  0.0198  0.2201
16061W        W31955   6.696  14.556   9.190 -0.1933 -0.2398 -0.3083
16062W        W31956  11.046  10.955   3.324 -0.0823 -0.1356 -0.0596
16063W        W31957   0.670  16.786   3.012  0.0272 -0.0164 -0.1706
16064W        W31958  16.439   1.290  14.362 -0.0729 -0.0183  0.1147
16065W        W31959   0.789   5.307   2.882 -0.1359 -0.0991  0.2906
16066W        W31960  18.985   0.387   3.785 -0.1240  0.5036  0.2779
16067W        W31961   8.799  13.390   4.411 -0.0942 -0.1274  0.0003
16068W        W31962   9.108   2.716  15.065  0.1171  0.2062  0.2339
16069W        W31963   9.523   2.700   5.093 -0.1138  0.0423 -0.0301
16070W        W31964  11.617   6.468   4.300 -0.0002 -0.0781  0.1378
16071W        W31965   1.641  14.676  14.704 -0.4070  0.3181  0.0817
16072W        W31966   5.479   3.354  12.380 -0.0722 -0.0132 -0.2872
16073W        W31967   0.389   4.651  10.910 -0.0027  0.1037 -0.4186
16074W        W31968   1.798   3.761  14.277  0.1532 -0.0948  0.0107
16075W        W31969   7.654   4.178  15.084  0.2475  0.1524 -0.1078
16076W        W31970  10.591  11.599   4.893 -0.0049 -0.3245 -0.0969
16077W        W31971   0.828   9.915   3.353  0.6502  0.2082 -0.0416
16078W        W31972   8.471  18.293  14.915 -0.0127 -0.5150 -0.0226
16079W        W31973  12.229  11.806   1.339  0.3029  0.3485  0.0409
16080W        W31974   8.086  13.440   3.831 -0.2330  0.3298 -0.2225
16081W        W31975  11.076   8.829  10.401 -0.2133 -0.0153  0.0674
16082W        W31976  13.124   8.298   5.143 -0.0114  0.0504 -0.0347
16083W        W31977  15.304  14.530   1.303  0.0054  0.0851  0.0052
16084W        W31978  16.003   1.388   2.539  0.3305  0.0483  0.1763
16085W        W31979   0.268  10.489  14.581  0.1222 -0.1106 -0.0329
16086W        W31980  16.215   4.064   0.530 -0.0289  0.0722 -0.1592
16087W        W31981  16.371  15.509  14.996 -0.3999 -0.2422  0.0403
16088W        W31982   1.790   8.714   5.466  0.0922 -0.5763 -0.7496
16089W        W31983  18.416   5.294   2.555 -0.2366  0.0544  0.1294
16090W        W31984   9.391  14.076   2.324 -0.0256  0.2045 -0.0637
16091W        W31985   1.357   1.550   2.516 -0.0377 -0.1781  0.1464
16092W        W31986  13.461   8.135  10.511 -0.3641  0.0623  0.0575
16093W        W31987   4.872  14.310  15.097 -0.0561  0.2891 -0.0287
16094W        W31988   7.657   9.498  14.293  0.0793 -0.1076  0.2363
16095W        W31989   8.173   7.396   3.716 -0.1236 -0.0022  0.2063
16096W        W31990  19.090  11.629   2.396 -0.1782  0.1823  0.0171
16097W        W31991   4.267   4.870  14.253 -0.2939  0.1653 -0.0766
16098W        W31992  12.066  16.387   1.869 -0.1894  0.1559  0.2056
16099W        W31993   7.966   2.065   9.836 -0.0031 -0.0727  0.1351
16100W        W31994  17.453   5.057   2.811 -0.0789  0.0805 -0.0056
16101W        W31995   2.598   6.387   0.068 -0.2942  0.1631  0.1086
16102W        W31996   5.073   5.743  12.454  0.3715  0.2612  0.0714
16103W        W31997   9.219  12.931  12.297  0.1591  0.0694  0.4814
16104W        W31998  11.033  14.149  14.889 -0.3731 -0.0988  0.2693
16105W        W31999  15.109  15.334  13.522  0.4953 -0.0559 -0.0677
16106W        W32000   4.740   2.257   2.942  0.0540  0.0546 -0.0584
16107W        W32001   6.891   5.285  13.302 -0.0530 -0.0907 -0.0888
16108W        W32002  15.239  16.390  10.237  0.2412 -0.0692 -0.2442
16109W        W32003   4.375   2.321  11.989  0.1527 -0.2655 -0.3218
16110W        W32004   5.141   4.926  14.246 -0.0948  0.0196 -0.2801
16111W        W32005   2.811  12.405  10.806 -0.3406 -0.1724  0.0889
16112W        W32006  13.418  15.417   3.360  0.1013  0.2898 -0.0402
16113W        W32007  17.484   8.279  14.369  0.2295  0.0442 -0.4443
16114W        W32008   6.025  11.225   0.922  0.3601 -0.0459 -0.0700
16115W        W32009  16.721  17.302   2.739 -0.1931  0.3833 -0.1964
16116W        W32010   7.874  12.850   9.253  0.1314  0.0770 -0.4377
16117W        W32011  14.443   0.775  13.141 -0.2690  0.0569  0.0661
16118W        W32012  13.851   6.522   1.193  0.2354 -0.0737  0.4109
16119W        W32013  14.466  17.482  13.112 -0.1301  0.2847  0.0232
16120W        W32014  14.948   9.864  11.099 -0.0126  0.0595  0.0208
16121W        W32015  12.391  14.258  11.516  0.0742  0.0994  0.0039
16122W        W32016   1.457   3.227  11.385 -0.0501 -0.2578  0.3468
16123W        W32017   1.222   5.974  10.434 -0.2620  0.2492  0.0764
16124W        W32018   6.053   1.712  14.696 -0.0296  0.0494 -0.4633
16125W        W32019  10.575   6.522  15.121  0.3244 -0.0273  0.2246
16126W        W32020  18.667  10.480  10.821  0.0274  0.1609  0.6025
16127W        W32021   7.872   8.438  15.193 -0.2033  0.2321 -0.1965
16128W        W32022   2.968   9.327  14.555  0.0789 -0.0080 -0.1537
16129W        W32023   7.560   5.478   3.470 -0.1568  0.1685  0.0489
16130W        W32024  11.552  13.920  11.084 -0.1727  0.5207 -0.0020
16131W        W32025  15.620   0.489  10.995  0.1381 -0.2770 -0.0882
16132W        W32026  19.185  13.312  14.580  0.0286  0.1610  0.3092
16133W        W32027  13.361   8.888  13.108  0.1109  0.0340  0.0422
16134W        W32028  15.008  18.496   3.100 -0.0265 -0.2453 -0.2088
16135W        W32029  17.957   6.750  13.963  0.3079 -0.0420  0.3059
16136W        W32030  10.931  13.221  12.913  0.2668  0.2601  0.0105
16137W        W32031  13.746  11.060   4.795 -0.3317  0.1787  0.1938
16138W        W32032   3.689   6.355   3.500 -0.0739  0.3214 -0.1448
16139W        W32033   2.964   7.490  14.884  0.3824 -0.0312  0.0713
16140W        W32034  10.308   1.804  11.576 -0.0926 -0.3948 -0.2915
16141W        W32035   4.602   4.194  13.356 -0.0604  0.0696 -0.1520
16142W        W32036   5.101  12.265  12.966  0.2565  0.0189  0.0809
16143W        W32037   3.699  14.103   4.023  0.0396 -0.1121  0.1909
16144W        W32038  17.719   5.090  11.848  0.1385  0.1727 -0.1862
16145W        W32039   9.120  12.662  13.839 -0.2906 -0.2749  0.4525
16146W        W32040  14.294  11.301  13.351 -0.2280  0.0441  0.0831
16147W        W32041   6.139   0.799   0.318  0.5897 -0.1627 -0.1110
16148W        W32042   5.957  17.658   4.577 -0.1090  0.0075 -0.1273
16149W        W32043  18.269  18.401   4.583  0.4343  0.1229 -0.0484
16150W        W32044  15.858  19.041   4.407 -0.0097 -0.1767  0.0062
16151W        W32045  16.516  10.463   2.096 -0.1680 -0.1460  0.1611
16152W        W32046  16.553  15.278   3.772 -0.0963 -0.2240  0.3187
16153W        W32047  11.650  18.998   3.415 -0.0218  0.1309 -0.3664
16154W        W32048   0.824   6.843  14.295  0.2325  0.0329 -0.0744
16155W        W32049  18.546  16.632   3.992 -0.0176 -0.5899 -0.1732
16156W        W32050  10.123  17.182  14.051 -0.1826 -0.0686  0.2890
16157W        W32051  11.147  18.123  14.350 -0.0633  0.1308 -0.2255
16158W        W32052   8.673  18.863   3.770  0.0501 -0.0319  0.0512
16159W        W32053   5.448   6.511   0.900  0.1269  0.1193 -0.1285
16160W        W32054  11.603   6.665   0.104 -0.2843 -0.2177  0.1469
16161W        W32055   8.233  10.312  14.360  0.0145 -0.2848 -0.0429
16162W        W32056   9.417   2.573   5.557 -0.0932  0.1884 -0.1321
16163W        W32057   6.242   6.426  11.759  0.1954  0.0282 -0.0765
16164W        W32058  11.919   7.873   0.002  0.1074  0.2432 -0.0145
16165W        W32059   9.425   6.996   9.530  0.1994  0.1360 -0.1517
16166W        W32060  18.867   2.398   4.574  0.2421  0.0011 -0.1159
16167W        W32061   2.964   0.735  11.960  0.1639  0.0428  0.1285
16168W        W32062   9.456   3.294   5.050  0.3084 -0.0259 -0.0606
16169W        W32063   6.412   9.563   4.360 -0.0191  0.0742  0.1682
16170W        W32064   0.829   6.575  11.158 -0.0646  0.3065 -0.2354
16171W        W32065   6.686   5.166   0.403  0.0443  0.3724  0.0645
16172W        W32066   0.699   4.765   2.285  0.0616 -0.1862  0.1035
16173W        W32067  14.790  12.145   5.122 -0.0129 -0.1270 -0.1112
16174W        W32068  11.081  14.100   2.461 -0.0961  0.0417  0.4930
16175W        W32069   2.282  10.095   1.205 -0.4881  0.0027 -0.2822
16176W        W32070   5.127   1.907   0.772  0.2725  0.0699  0.0668
16177W        W32071  16.649   9.384  14.701  0.2850  0.0727 -0.1179
16178W        W32072  10.811   3.631   4.669  0.2628  0.0713  0.0457
16179W        W32073   7.296  17.681   5.122 -0.1479  0.0901 -0.2413
16180W        W32074  15.738  15.383   3.302 -0.2827 -0.2616  0.0293
16181W        W32075   9.691   8.705   4.221 -0.2422  0.1677  0.0469
16182W        W32076  18.233  11.577  14.762 -0.2061  0.1678 -0.2119
16183W        W32077   8.322  13.963   3.987  0.1417 -0.2066  0.1265
16184W        W32078   2.950  11.948   0.721 -0.0713  0.0484  0.0498
16185W        W32079  10.697   2.338   2.952  0.0499  0.0169 -0.1989
16186W        W32080  18.856  16.293  11.866 -0.2966 -0.1686  0.1842
16187W        W32081  19.159   3.328  14.828  0.0263 -0.1111  0.0255
16188W        W32082  14.042  16.764  14.210  0.1598 -0.2306  0.1487
16189W        W32083   1.376   6.035  11.699  0.0412 -0.2584  0.1614
16190W        W32084  12.922   3.369  11.030  0.0161  0.2677 -0.1607
16191W        W32085  11.477   6.190  12.805 -0.0441  0.0558 -0.1676
16192W        W32086   6.257  17.901   4.188  0.3192  0.0400 -0.1103
16193W        W32087   5.506   8.531   4.058 -0.2113 -0.2865 -0.2816
16194W        W32088   4.773  17.708   3.992  0.0088  0.3638  0.0899
16195W        W32089   0.767  12.413  14.450 -0.1297  0.0031 -0.0943
16196W        W32090   1.456   6.418  12.860 -0.2044 -0.1506 -0.2161
16197W        W32091  15.480  11.595  11.299  0.2109 -0.1053  0.0136
16198W        W32092   4.311   1.955  11.513 -0.0016  0.1446 -0.0756
16199W        W32093   1.637   8.353   3.217 -0.0832  0.1430 -0.0391
16200W        W32094   8.972   7.245   4.252 -0.0209  0.0147 -0.2298
16201W        W32095   8.549  16.324   5.056 -0.0243  0.0134 -0.0801
16202W        W32096   3.560   8.069   4.727  0.0495  0.0068 -0.2034
16203W        W32097  15.796   8.284   2.113 -0.0460  0.0334  0.2883
16204W        W32098  16.186  16.482  13.596 -0.0830 -0.3199 -0.1652
16205W        W32099   4.381   0.924   5.414 -0.2107 -0.3828  0.1493
16206W        W32100  12.143   0.172   0.097  0.2785 -0.1351 -0.1253
16207W        W32101   1.054  17.276   1.350 -0.1635 -0.1999  0.2871
16208W        W32102  10.260   4.978   3.451 -0.1293  0.0084 -0.2645
16209W        W32103  14.964  10.946   0.565  0.2715 -0.1705 -0.2357
16210W        W32104   3.528   8.204  13.447 -0.1310  0.0660 -0.1149
16211W        W32105  13.682  10.658   4.436  0.1490 -0.1463  0.2225
16212W        W32106  11.706   9.317  13.989 -0.2834  0.5063  0.0369
16213W        W32107   9.508   7.663   5.277  0.1570 -0.0322 -0.0732
16214W        W32108  13.658   9.728  11.966 -0.1645  0.3229  0.1060
16215W        W32109   5.458   8.942   4.448 -0.0163 -0.3259  0.2602
16216W        W32110   4.930   7.851   2.332 -0.0049  0.1267  0.1949
16217W        W32111   5.841   3.320   9.448 -0.4240 -0.1569 -0.0758
16218W        W32112   7.228   8.239   1.306  0.1313  0.1805  0.1275
16219W        W32113   6.564  13.939  14.857 -0.1344 -0.2945  0.2393
16220W        W32114   7.777  15.172  15.061  0.0176 -0.0303 -0.0030
16221W        W32115  17.038   9.492   0.811  0.0401 -0.2677  0.1689
16222W        W32116   5.398  11.176  12.254 -0.5328 -0.0652  0.0918
16223W        W32117  17.314  12.411  11.315  0.0761 -0.2292 -0.3533
16224W        W32118  15.590   1.677   3.319  0.0354 -0.2264  0.1401
16225W        W32119   6.940  13.631  15.166 -0.1865  0.2013 -0.0531
16226W        W32120   2.942   2.538   2.186 -0.1329  0.1114 -0.2580
16227W        W32121   6.397  16.026   4.161  0.5069  0.0422 -0.0136
16228W        W32122  16.442   5.765   4.921 -0.2436 -0.2123  0.1313
16229W        W32123   9.024  11.914   4.227 -0.2615  0.0417 -0.2980
16230W        W32124   9.150  12.090   4.866  0.1346  0.0718 -0.2630
16231W        W32125   1.398   9.788   2.209 -0.1973  0.0103  0.2591
16232W        W32126   8.770  13.015   5.781  0.2969  0.2053 -0.3204
16233W        W32127  15.619   3.116   2.537  0.0214  0.0702 -0.3178
16234W        W32128   9.892  10.330   4.211  0.0987 -0.1739 -0.3098
16235W        W32129  17.591  10.347  14.298 -0.0771  0.2168 -0.1866
16236W        W32130  10.854   0.567  11.118  0.0904  0.3422 -0.1525
16237W        W32131  18.286  13.694  12.299 -0.0237  0.0567  0.0120
16238W        W32132  17.849  15.996   2.697  0.2381  0.0507 -0.0694
16239W        W32133   4.322   4.971   2.723 -0.1290  0.1220  0.0206
16240W        W32134   1.561   7.878   3.421 -0.3481  0.0510  0.0815
16241W        W32135   9.865  14.511   1.467  0.3483  0.1178 -0.1064
16242W        W32136   6.961   1.913  12.087 -0.0226  0.2327  0.3247
16243W        W32137  15.223  17.695  13.538 -0.0143 -0.2092  0.2237
16244W        W32138  13.731   7.765  14.523  0.1201 -0.0887 -0.1122
16245W        W32139   4.727   2.862   4.889  0.4771  0.2548 -0.1824
16246W        W32140   8.458   6.415  14.727  0.0403 -0.0258  0.0730
16247W        W32141   8.118   9.514   0.503 -0.2073  0.2792 -0.0046
16248W        W32142   8.021   3.201   1.852 -0.0286  0.0884 -0.0673
16249W        W32143   9.046  18.816   1.756  0.1882 -0.0236  0.3776
16250W        W32144   4.581   6.673  10.259  0.1178  0.1114 -0.1277
16251W        W32145   1.273  16.714   3.141  0.1390 -0.0357 -0.0686
16252W        W32146  11.906  17.834   3.291 -0.3317 -0.1756 -0.1111
16253W        W32147   0.566  16.131  10.150 -0.0663 -0.0796  0.0024
16254W        W32148   3.787  10.165   2.305 -0.0687 -0.2458 -0.1442
16255W        W32149  12.010   4.662  12.792 -0.2308  0.0591  0.0749
16256W        W32150   4.588   7.597   4.902  0.0640  0.3016  0.1538
16257W        W32151   1.559   2.636  10.494 -0.2997 -0.2396  0.1612
16258W        W32152   6.448   7.602  13.564 -0.1879  0.2639 -0.2821
16259W        W32153  10.917   7.435  11.906 -0.0774  0.0225 -0.0076
16260W        W32154  12.855  11.710   4.656 -0.0647  0.0049 -0.0854
16261W        W32155   3.188  19.186  12.904 -0.2954 -0.0160  0.0132
16262W        W32156  14.674  17.058   2.367  0.0445  0.1247 -0.0181
16263W        W32157  13.215  16.211   4.680 -0.0467 -0.1517 -0.2793
16264W        W32158   5.748  14.393   1.925 -0.2587  0.1551  0.0093
16265W        W32159   0.476  18.267   4.077 -0.3363 -0.1693 -0.3536
16266W        W32160   6.352   5.537  14.716 -0.1578  0.1552  0.1182
16267W        W32161   3.365  12.122  14.746 -0.0802 -0.1827  0.1129
16268W        W32162  10.050   8.135  14.657  0.0052  0.2357 -0.0532
16269W        W32163  11.033   3.713  15.020 -0.0125 -0.2323 -0.1458
16270W        W32164  14.138  10.039   1.486 -0.3442  0.2598 -0.1046
16271W        W32165  11.117  15.412   4.294 -0.0413 -0.2742  0.0042
16272W        W32166  11.394   4.895   3.582 -0.6295  0.1363  0.2083
16273W        W32167  12.504   7.381   5.867 -0.1903 -0.0097 -0.0198
16274W        W32168   6.356  16.200   2.004 -0.0297 -0.1362  0.1622
16275W        W32169  12.284   6.940  12.702 -0.3024  0.0133  0.3318
16276W        W32170   6.910  17.713  10.986 -0.2078  0.1200  0.0249
16277W        W32171   5.372   3.243   1.446 -0.0779  0.0359 -0.1790
16278W        W32172   8.563   9.774   2.017  0.1262 -0.1368  0.2121
16279W        W32173  12.470   8.468   4.197 -0.1702  0.1062 -0.1779
16280W        W32174  17.370   0.372   2.408  0.1094 -0.1872  0.1095
16281W        W32175   3.956  16.779   3.734 -0.0204 -0.3918  0.0510
16282W        W32176  18.336  11.632  10.461  0.0542 -0.0851 -0.1225
16283W        W32177   5.947  18.680  13.270  0.1566 -0.0643 -0.2692
16284W        W32178   3.787   4.160   0.886  0.2128 -0.3104 -0.1507
16285W        W32179   7.270   6.362   2.213 -0.1702  0.0979 -0.3495
16286W        W32180  16.318   5.542   0.733 -0.1080  0.0410 -0.1894
16287W        W32181   8.831   6.676   2.832  0.0144  0.0692 -0.1030
16288W        W32182   6.524  18.109  12.294 -0.0148 -0.1590  0.0242
16289W        W32183   0.396  10.896   5.000 -0.3075  0.1828 -0.0345
16290W        W32184  18.484  17.716  13.673  0.1164 -0.2522  0.3367
16291W        W32185   7.745   6.159  12.281  0.2849  0.1477  0.3861
16292W        W32186   6.624  18.274  11.818  0.0795 -0.3275  0.0835
16293W        W32187   9.435  11.360  12.660  0.1083  0.0818 -0.0689
16294W        W32188   9.133  17.254  10.599  0.0817  0.1240  0.0413
16295W        W32189   1.978   5.809   0.172 -0.0312  0.1974  0.1011
16296W        W32190   0.754  12.188   2.809 -0.2365  0.2676  0.2465
16297W        W32191  12.805   7.259   1.218 -0.2272 -0.0343 -0.1325
16298W        W32192   0.100   9.884   4.088  0.0208 -0.3932  0.0400
16299W        W32193   4.997   5.391  14.436  0.0577  0.2335  0.2876
16300W        W32194  10.696   7.603   1.216 -0.2045 -0.3232  0.0302
16301W        W32195  18.555  14.058  12.728  0.1463 -0.0061  0.4100
16302W        W32196  18.858  17.945   2.066 -0.0703 -0.0821 -0.1284
16303W        W32197   2.958   3.697   2.602  0.2354 -0.0140 -0.1006
16304W        W32198  14.483   9.425   0.094 -0.2848 -0.2275 -0.3406
16305W        W32199   5.569  15.651   1.823  0.1654  0.3809 -0.1375
16306W        W32200   8.890  14.504  14.420  0.0873 -0.0264 -0.2961
16307W        W32201   3.995   0.283  13.973 -0.1929 -0.0772 -0.3570
16308W        W32202  10.229  12.458   3.245  0.1402 -0.1738  0.2171
16309W        W32203   1.166  17.627   3.315 -0.0680  0.2849 -0.3055
16310W        W32204   2.273   2.910   0.712  0.0304  0.1260  0.2056
16311W        W32205   2.435   6.995  14.117  0.3772 -0.0001 -0.0551
16312W        W32206   1.937   8.184   4.628 -0.2103  0.1276  0.0122
16313W        W32207   0.191  16.814   3.511  0.1155  0.4662 -0.1695
16314W        W32208  10.337   9.170  11.317 -0.1314 -0.3837  0.0374
16315W        W32209  10.398   8.666  13.093  0.4194 -0.1257  0.3138
16316W        W32210   1.878  18.760   2.214 -0.0076 -0.0937 -0.0193
16317W        W32211   6.431  14.280   1.004 -0.0152  0.0604  0.0750
16318W        W32212   0.502  13.341  13.875  0.1299 -0.1354  0.1373
16319W        W32213  14.496   2.402  12.454  0.0046 -0.1614 -0.2243
16320W        W32214   7.647  17.647  11.576 -0.0358  0.1571 -0.2005
16321W        W32215   6.560   0.427  13.920  0.2041 -0.2459 -0.4219
16322W        W32216  16.350   6.261   6.082  0.0502 -0.2842 -0.0705
16323W        W32217   6.628   3.253  10.333  0.1437  0.3979 -0.4788
16324W        W32218  13.040   2.334   3.032  0.0823  0.0086 -0.0441
16325W        W32219  18.951  14.123  12.109 -0.2631 -0.2478 -0.0677
16326W        W32220  13.369  17.426   0.759  0.1360  0.0462  0.0145
16327W        W32221  14.945  17.855  11.318  0.1046 -0.0184  0.2164
16328W        W32222   2.901   3.410   4.539 -0.4151  0.0745 -0.6063
16329W        W32223  10.583  17.982   0.489  0.1256 -0.1550 -0.1638
16330W        W32224  10.462   5.463  14.703 -0.4246  0.0513  0.0665
16331W        W32225   7.007   2.428  10.681  0.2166 -0.1370  0.2294
16332W        W32226   0.613   1.571   2.156  0.1187  0.0479 -0.2388
16333W        W32227   4.461  17.069   2.608 -0.0704  0.2005 -0.2302
16334W        W32228   6.307  13.958  12.090 -0.0096 -0.1228  0.1164
16335W        W32229  18.584   6.555  12.116 -0.2301  0.0513 -0.0293
16336W        W32230   4.986  15.626   0.134 -0.0036  0.0873  0.3263
16337W        W32231  18.743  16.930  14.092 -0.0789 -0.0232 -0.2647
16338W        W32232  10.655  18.619  11.893  0.0698  0.1642 -0.1676
16339W        W32233   6.158   7.499   0.070  0.0318 -0.4774  0.1424
16340W        W32234  14.815  10.321  13.885 -0.2425  0.0823  0.0773
16341W        W32235  12.409  10.886   1.696 -0.3595 -0.0473  0.1652
16342W        W32236  13.701   3.168   1.681 -0.0782  0.1647 -0.0481
16343W        W32237   6.721   3.240   1.450 -0.0680 -0.1120  0.2441
16344W        W32238   5.210  16.732  10.907  0.2389  0.1092 -0.2230
16345W        W32239   7.185  11.080   0.407 -0.0389  0.0408  0.1203
16346W        W32240   7.608  15.613   2.744  0.2716  0.2664 -0.2284
16347W        W32241  10.313  18.509  15.033 -0.0437  0.1211 -0.1190
16348W        W32242   8.354   8.637   0.103  0.2500  0.1087 -0.0862
16349W        W32243  13.917   4.167   1.474 -0.0582  0.3168 -0.0983
16350W        W32244   7.819  12.249  14.145 -0.1811 -0.0382  0.1033
16351W        W32245  15.939  16.873  11.370  0.0625  0.0951 -0.3651
16352W        W32246   8.281   9.989  14.797 -0.4130 -0.4493 -0.0916
16353W        W32247  16.394   6.778  11.413  0.1254  0.0249 -0.0212
16354W        W32248   9.722   7.942  11.548  0.1403  0.2370  0.0958
16355W        W32249  16.890  10.748   2.350  0.1731  0.2602 -0.2553
16356W        W32250  18.259   8.731   9.981 -0.2594 -0.2161  0.2450
16357W        W32251   0.199  18.301   2.021 -0.0574  0.2296 -0.0506
16358W        W32252   2.807  13.616   0.697  0.0653  0.2471  0.0391
16359W        W32253   7.094  15.228  10.320 -0.0082 -0.1568 -0.4763
16360W        W32254   5.109  12.180  14.254  0.0950  0.0012  0.1922
16361W        W32255   1.066  18.148   4.064 -0.1390  0.0743 -0.2152
16362W        W32256  14.754  18.128  14.784  0.0457 -0.0542  0.1971
16363W        W32257  17.210   7.748  12.979  0.0578 -0.2478 -0.1492
16364W        W32258   5.565   3.958  10.739 -0.1873 -0.3223 -0.2578
16365W        W32259  18.606  12.121   4.296  0.0431  0.0677 -0.1443
16366W        W32260  18.499   5.029   0.242  0.0286  0.2791 -0.2147
16367W        W32261   7.437  10.047  10.877  0.3088 -0.2730  0.1242
16368W        W32262   1.689   5.196  14.179  0.1297 -0.3770  0.2040
16369W        W32263   5.595   5.253   4.409  0.0396  0.1631  0.0165
16370W        W32264  15.014  13.493  11.255 -0.1614 -0.0122 -0.0666
16371W        W32265   5.061   8.364  12.776  0.1970 -0.0237 -0.2869
16372W        W32266   0.196  11.457   4.690  0.0955  0.0081  0.1410
16373W        W32267  17.610   3.420   0.500 -0.0547  0.1150  0.1207
16374W        W32268   8.941   0.740  12.117 -0.1655  0.0339 -0.2341
16375W        W32269  13.095   2.620   4.930  0.0543 -0.2397 -0.2131
16376W        W32270  15.665  17.196  11.174 -0.2379  0.1195  0.5104
16377W        W32271  17.109  15.457   3.088  0.1922  0.3470 -0.2446
16378W        W32272   0.043   7.720  11.741  0.1048  0.0340 -0.0231
16379W        W32273  17.268   4.700   4.596 -0.0195 -0.1980  0.2545
16380W        W32274  15.017   2.995   3.436  0.1049  0.2788 -0.3259
16381W        W32275   4.047   2.409   9.489 -0.0923  0.3427 -0.0195
16382W        W32276   4.670   3.474  14.587  0.0874 -0.0341  0.0115
16383W        W32277  18.653   6.584   2.654 -0.2404 -0.2326  0.3508
16384W        W32278  12.991   8.018  11.908 -0.0185  0.0421 -0.1749
16385W        W32279  18.366  13.465  14.323  0.1416 -0.4116  0.1942
16386W        W32280   5.574   5.210   2.390  0.3400  0.0987  0.1303
16387W        W32281   2.839  18.508   1.270 -0.0793 -0.1722 -0.1578
16388W        W32282  15.261  12.174   1.120  0.0045 -0.2948  0.1013
16389W        W32283   5.727  16.746  13.286  0.0058  0.1236  0.2902
16390W        W32284   4.712  13.761  11.760 -0.6757 -0.2059  0.2030
16391W        W32285  16.687   3.541  10.049 -0.1141 -0.0138 -0.2835
16392W        W32286  11.714  11.310   3.230  0.0307 -0.2414  0.1371
16393W        W32287  10.967  10.243   1.769  0.0037 -0.0353  0.0687
16394W        W32288  17.102  16.882   0.878 -0.0230  0.0890  0.0183
16395W        W32289   5.269   9.836  11.486 -0.0174  0.3244  0.0827
16396W        W32290   3.049  13.955  14.459 -0.0275 -0.2277  0.1416
16397W        W32291  12.654   6.344  13.356  0.1300 -0.1897 -0.2189
16398W        W32292   5.094  18.889   1.721 -0.1306 -0.2593 -0.1239
16399W        W32293   6.302  15.497   4.086  0.2142  0.0319  0.1098
16400W        W32294  13.429   3.223  12.077 -0.3567 -0.3359 -0.0672
16401W        W32295  17.238  16.801   4.547  0.4517  0.1531  0.2696
16402W        W32296  10.537   8.763  14.846  0.0597  0.2033 -0.1400
16403W        W32297  13.155  15.924   1.084  0.5103  0.0149 -0.0167
16404W        W32298  10.020  12.129  12.829 -0.1516 -0.0210  0.1106
16405W        W32299  17.889   2.400  10.761  0.1171 -0.1578 -0.1258
16406W        W32300   3.231  13.252  13.277  0.3036 -0.1660  0.2070
16407W        W32301  15.366   7.726   3.727  0.0795 -0.3315 -0.0178
16408W        W32302  11.822  16.496  14.540  0.0408  0.2036 -0.0565
16409W        W32303   5.333   5.748  14.698  0.1286  0.1529 -0.3660
16410W        W32304   7.350  19.144  10.866 -0.1172 -0.2042  0.2929
16411W        W32305   4.007   9.344   3.747 -0.2966  0.4320 -0.2603
16412W        W32306   4.845  17.878  10.403  0.0612  0.2320 -0.2028
16413W        W32307   9.378   8.004   3.745 -0.0160 -0.3477 -0.2875
16414W        W32308   2.760  12.730   2.739 -0.1604  0.4108  0.0981
16415W        W32309   8.488   0.640  13.935  0.2178  0.0331  0.0124
16416W        W32310   0.820  16.716  13.118 -0.0544  0.0287 -0.4925
16417W        W32311  10.637  12.498   4.638  0.0906  0.0298  0.0515
16418W        W32312  17.269   7.191   5.702  0.0144 -0.0077  0.0089
16419W        W32313   9.461   9.953  14.835  0.0732  0.0879  0.0699
16420W        W32314   3.558  18.580   1.889  0.0561  0.3261  0.4765
16421W        W32315  10.915   5.250  10.918 -0.3733 -0.0170  0.1140
16422W        W32316   2.674   7.455  13.941  0.3525 -0.0250 -0.1518
16423W        W32317  18.473   8.259   1.875  0.3938 -0.1597 -0.4423
16424W        W32318  14.771  18.006   2.809  0.2001  0.1813  0.2020
16425W        W32319  14.951  15.693   4.797  0.1319  0.0881 -0.2388
16426W        W32320  18.962   6.531   3.056  0.0259 -0.3215 -0.4367
16427W        W32321   9.497  13.434  11.773  0.0208  0.0362  0.1783
16428W        W32322   9.702  12.163   0.008  0.3133 -0.2124 -0.3750
16429W        W32323   6.772   0.250  14.937 -0.0655  0.2551  0.2305
16430W        W32324   6.800  18.803   3.866 -0.2718 -0.2453  0.1082
16431W        W32325  16.484  11.933  14.745  0.0187 -0.1766  0.2760
16432W        W32326   3.598   2.120  13.839 -0.1108  0.0627  0.0385
16433W        W32327   9.792  16.133  13.204  0.0493 -0.0938 -0.2368
16434W        W32328   7.434   8.229   0.162 -0.1697  0.6389 -0.0521
16435W        W32329   6.441  16.689   2.065  0.4003  0.0021  0.1758
16436W        W32330  17.972  15.679  14.206 -0.1386  0.2714  0.0959
16437W        W32331  10.649   9.905   2.555 -0.1704 -0.1264  0.2548
16438W        W32332   5.525  11.084   4.314  0.3023 -0.0084  0.0952
16439W        W32333  11.127   0.304   4.870 -0.0977  0.0223 -0.1590
16440W        W32334  18.541  14.624  10.549  0.0693  0.2543  0.1820
16441W        W32335  16.929   7.211   0.577  0.0046  0.1552  0.2698
16442W        W32336  14.593  11.763   2.832  0.2774 -0.2975  0.1060
16443W        W32337   5.861   5.450   1.465  0.1967  0.0166  0.0013
16444W        W32338   4.703  16.603  15.044 -0.0471 -0.2255 -0.1869
16445W        W32339  10.404  16.184   1.428 -0.0632 -0.2229  0.0104
16446W        W32340   3.696  10.625  11.211  0.2827  0.0338  0.2030
16447W        W32341   5.469  15.394   0.989  0.0131  0.1453  0.2304
16448W        W32342  13.489   5.115   5.274  0.1114 -0.2262 -0.4979
16449W        W32343  16.050  15.723  10.422 -0.2538 -0.2322 -0.0025
16450W        W32344   1.983  15.835  12.476 -0.0922 -0.2416 -0.1519
16451W        W32345   5.147  13.574   3.016 -0.0520  0.1809 -0.2166
16452W        W32346  13.227  16.613   4.356  0.0312 -0.0876  0.4479
16453W        W32347   2.966   5.948  14.824  0.0427  0.1326 -0.0521
16454W        W32348  11.453   9.350   4.288 -0.0398 -0.0541 -0.0665
16455W        W32349  12.149  18.068  12.841  0.2498 -0.0361  0.0938
16456W        W32350   3.655   2.716   0.025 -0.0894 -0.1049  0.0092
16457W        W32351  17.613  15.667   3.068  0.3306 -0.3747 -0.0247
16458W        W32352   6.281   8.007   4.961  0.2582  0.0218  0.0124
16459W        W32353  10.566   0.615   3.421  0.0055  0.1461 -0.0990
16460W        W32354  18.446  15.212  11.425  0.1319  0.2722  0.0978
16461W        W32355   7.812  10.784   4.457  0.3720  0.1931  0.2791
16462W        W32356   1.610  15.963  14.994 -0.3636  0.0653  0.0561
16463W        W32357   4.672   4.281   2.108 -0.2221 -0.2093 -0.0277
16464W        W32358   3.889  18.503   3.833 -0.0002  0.0815 -0.0757
16465W        W32359   3.715  14.976   2.388  0.1002 -0.0817 -0.1438
16466W        W32360  12.986   3.073   2.265  0.2083 -0.2357 -0.2531
16467W        W32361   9.612   7.259   1.913 -0.1118  0.1980  0.5536
16468W        W32362   5.508  15.188   4.082 -0.2542 -0.2889 -0.2601
16469W        W32363  16.497   2.849   2.584 -0.2630  0.4104 -0.0961
16470W        W32364  17.645   6.653   0.907  0.2084  0.1228  0.1833
16471W        W32365  12.303   8.050  11.626 -0.0163 -0.2283 -0.1454
16472W        W32366  16.286   7.333  13.040  0.1151 -0.0076 -0.0144
16473W        W32367  19.055  15.819  11.785 -0.4162 -0.0650 -0.2034
16474W        W32368  18.060  17.483   4.410  0.2479 -0.0007 -0.1881
16475W        W32369  15.439  17.217   1.227 -0.0367 -0.0504 -0.2382
16476W        W32370   9.089   4.402   3.416  0.1167  0.0996 -0.1146
16477W        W32371  13.548   9.673   0.384 -0.2467  0.6358  0.0246
16478W        W32372   1.777  17.842   4.038  0.0511 -0.0548  0.0684
16479W        W32373   2.952   8.187  10.268  0.0313 -0.0155  0.0659
16480W        W32374  18.486  15.557  13.364 -0.0835  0.1510  0.0502
16481W        W32375   9.353  17.474  11.111 -0.1379 -0.0819  0.1660
16482W        W32376   5.621   9.975   1.163 -0.1627 -0.2520  0.0935
16483W        W32377  12.396   1.456  12.561  0.0343  0.2069  0.2199
16484W        W32378  17.024   3.909  15.078 -0.1054 -0.1819  0.0261
16485W        W32379   0.998   7.010   1.155  0.2820  0.1070  0.1905
16486W        W32380   0.674   3.525   2.354  0.0616  0.0968  0.1888
16487W        W32381  16.227  14.171   2.169 -0.0572  0.0661 -0.0617
16488W        W32382   7.179  17.361   1.531  0.2547  0.2543 -0.1639
16489W        W32383  16.731  15.178  14.704  0.1847  0.0541 -0.1891
16490W        W32384   7.109   3.966  14.321  0.5170  0.3054 -0.0642
16491W        W32385  18.888   7.272  11.779 -0.3587 -0.2053 -0.0323
16492W        W32386   3.298   4.610   2.221 -0.2741  0.1853 -0.1623
16493W        W32387  13.681   3.769  12.115 -0.0011  0.1768 -0.1410
16494W        W32388  15.231  13.278  10.391  0.1993 -0.4366 -0.0268
16495W        W32389   1.280  17.517  11.883 -0.1601 -0.0176  0.1952
16496W        W32390  14.835   2.878  12.571 -0.0912  0.1019 -0.0749
16497W        W32391   4.649   7.900  11.926 -0.2377  0.0596  0.1424
16498W        W32392   0.322   4.427   3.093  0.1680 -0.2167 -0.3660
16499W        W32393   8.313  10.411  12.735 -0.2921 -0.0164 -0.1387
16500W        W32394   4.700  15.955  15.050 -0.0589 -0.2293 -0.0956
16501W        W32395  11.307   2.615   0.118 -0.0103  0.4326  0.2806
16502W        W32396   0.038   3.688   0.905 -0.1036 -0.0197  0.1198
16503W        W32397   5.869   7.227  13.036  0.2752 -0.3189  0.2807
16504W        W32398   0.219   7.912  10.288  0.1963  0.2545  0.1069
16505W        W32399  12.411   2.442  10.844  0.1182 -0.0140 -0.0304
16506W        W32400   6.605  13.287   3.620  0.0999  0.3098  0.1993
16507W        W32401  11.850   2.004   4.483  0.1131 -0.2555 -0.0891
16508W        W32402   9.527   8.999  10.031 -0.1996  0.1813 -0.1732
16509W        W32403   5.542  10.091   4.427  0.5946  0.0750  0.3767
16510W        W32404   6.234   5.740   1.973  0.3065  0.1252 -0.1405
16511W        W32405  16.403  11.108  10.660  0.0503  0.0483  0.2265
16512W        W32406  14.771   9.812  12.459 -0.0151  0.1953  0.3287
16513W        W32407   9.663  12.675  10.462  0.2439  0.4122 -0.1635
16514W        W32408  17.336  14.979   5.313  0.0715  0.1332  0.2716
16515W        W32409   8.194  12.650  15.068 -0.0394 -0.1306  0.3144
16516W        W32410   8.582   6.287   4.978  0.1180 -0.0314 -0.1015
16517W        W32411   1.988   9.744  13.927  0.2147 -0.3638  0.0084
16518W        W32412  17.739  16.175   4.181  0.0155  0.3073  0.1652
16519W        W32413   5.931   8.706   4.380  0.1210 -0.2694  0.2185
16520W        W32414  16.022  13.999   4.249  0.3167  0.3718  0.0865
16521W        W32415  10.435   2.147  12.951  0.4179 -0.0964  0.1521
16522W        W32416  10.733  11.688  13.467  0.2835  0.3045 -0.1095
16523W        W32417  13.612  10.685   2.035  0.2350  0.0505 -0.1119
16524W        W32418   0.806   4.705   3.963 -0.0534  0.3178 -0.0212
16525W        W32419   0.461  10.474   2.632 -0.1245 -0.3547 -0.2153
16526W        W32420   0.255  15.640   3.937 -0.1470  0.0053 -0.3608
16527W        W32421  14.548  15.677   4.506  0.1904 -0.5336 -0.1362
16528W        W32422   0.288   3.893   2.783 -0.2443 -0.0124  0.1299
16529W        W32423   3.369  13.218   1.564 -0.0260  0.1323 -0.2209
16530W        W32424  17.062   8.243  12.361  0.4884 -0.3654 -0.1483
16531W        W32425  17.459  14.086  14.857 -0.0293 -0.2033  0.0870
16532W        W32426   5.422  13.836  13.944 -0.2795  0.2745 -0.3679
16533W        W32427   6.115  16.804   4.353  0.2866 -0.1911  0.2610
16534W        W32428  14.597   9.174  14.858 -0.0773 -0.0384  0.6000
16535W        W32429   6.055   0.967  11.687  0.0973  0.2691 -0.2415
16536W        W32430  12.501   1.976   1.827  0.4621 -0.0461 -0.3116
16537W        W32431  15.369   4.877   4.874 -0.0312  0.0436  0.0790
16538W        W32432   9.909  18.481   4.415  0.2354  0.0251 -0.0527
16539W        W32433   3.619   0.369   9.808  0.1440  0.1798  0.0668
16540W        W32434   5.774  11.556   3.107  0.0600 -0.3805 -0.4242
16541W        W32435   3.794  12.494  11.167  0.1441 -0.2196  0.0235
16542W        W32436  19.133  15.514   1.232  0.0995 -0.0495 -0.0643
16543W        W32437  12.396  18.686   2.235  0.0653  0.0471  0.2584
16544W        W32438   0.265   0.296  10.118  0.0499  0.0582 -0.1544
16545W        W32439   5.795  16.126  11.662 -0.0713 -0.0513  0.0021
16546W        W32440  14.871  18.486  12.860 -0.3600  0.0708 -0.0239
16547W        W32441   1.799   7.304  13.852 -0.0334 -0.4713 -0.1089
16548W        W32442  18.958  14.560  14.088 -0.2690 -0.1774  0.0557
16549W        W32443  11.032   4.453   3.621 -0.2170 -0.1809 -0.2573
16550W        W32444   6.462   3.303  11.323 -0.0629  0.0165 -0.1070
16551W        W32445   6.368   2.397  11.538  0.0525  0.4400  0.4709
16552W        W32446   5.562  11.938   1.330 -0.0958  0.3233 -0.1784
16553W        W32447  10.392   4.921   2.933  0.1170  0.0859  0.3198
16554W        W32448  17.472   6.657   3.407 -0.0320 -0.0041  0.0908
16555W        W32449   0.263   1.166  12.845 -0.3509  0.0838  0.1249
16556W        W32450   5.918   4.291   9.842 -0.1845  0.3958  0.0913
16557W        W32451  18.690  11.942  11.271  0.0507  0.2477  0.1530
16558W        W32452  14.321  18.290   0.385 -0.1907  0.2473  0.1940
16559W        W32453  11.133  19.002   1.812 -0.3041 -0.0082  0.1988
16560W        W32454  18.344   3.349  11.331  0.1052  0.1468 -0.1072
16561W        W32455  18.901  10.058  14.178 -0.1091 -0.0072  0.2681
16562W        W32456  18.808   3.443   5.404  0.1660 -0.1492  0.1560
16563W        W32457   6.411  12.322   4.451 -0.0960  0.0975  0.1249
16564W        W32458   3.655  18.050   1.605 -0.2332 -0.1217 -0.3025
16565W        W32459  12.632   1.984  11.366  0.4264  0.0596 -0.1450
16566W        W32460  14.197  18.438  13.411  0.0140  0.0192  0.2781
16567W        W32461  10.562   6.367  14.220 -0.0650 -0.5259 -0.0822
16568W        W32462   1.259   4.540   3.939 -0.0248  0.0992  0.2820
16569W        W32463   0.550   9.281   4.703  0.3113  0.2843 -0.2348
16570W        W32464   0.887  15.809  15.121  0.3212  0.0858 -0.0587
16571W        W32465  14.825   6.273  13.955  0.2722  0.0509  0.2118
16572W        W32466  14.995  12.572   2.924  0.0279  0.0271 -0.1458
16573W        W32467   7.702  16.987  12.426 -0.1822 -0.0144 -0.3314
16574W        W32468  17.741  15.029   1.924  0.2939 -0.0888 -0.0430
16575W        W32469  17.417  14.588   5.744 -0.0908 -0.0323 -0.1266
16576W        W32470   9.390   2.505  12.750 -0.1033  0.0361 -0.1421
16577W        W32471  13.804  18.417  11.322 -0.0656 -0.0346  0.2178
16578W        W32472  15.990  14.045   0.576  0.0034 -0.1269  0.0300
16579W        W32473   5.212   0.170  12.495 -0.0950 -0.1113  0.0001
16580W        W32474   4.419  14.123  10.834 -0.2620  0.2306 -0.1498
16581W        W32475   9.555  16.075  11.735  0.2203  0.1490  0.3811
16582W        W32476   7.964   3.217   2.572 -0.0880 -0.1553 -0.0012
16583W        W32477  18.825   9.653   3.823  0.3386 -0.3948  0.0011
16584W        W32478   1.593   4.145   3.681 -0.1105 -0.0905 -0.0923
16585W        W32479  14.660  10.097   5.280 -0.0974 -0.0915  0.1244
16586W        W32480   2.657  16.669   4.342 -0.2692 -0.0250  0.3980
16587W        W32481   1.443   1.523   1.521  0.0732 -0.0395 -0.2404
16588W        W32482  11.065   4.426  14.389 -0.1780 -0.0571  0.3856
16589W        W32483   2.728   8.300   2.157 -0.0057  0.0603  0.1987
16590W        W32484   9.712  19.003  14.107  0.0415 -0.0418  0.2445
16591W        W32485   7.575   8.765   2.778 -0.1288  0.1993 -0.1397
16592W        W32486  11.401   9.737  12.902 -0.0858  0.0103 -0.0567
16593W        W32487  12.142  18.930   3.372 -0.1435  0.1683  0.0525
16594W        W32488   6.761   3.511  13.540  0.1091  0.1339 -0.0450
16595W        W32489  15.829  16.454   0.680  0.1085  0.0593  0.1175
16596W        W32490  18.954  17.397  13.155 -0.2037 -0.0421 -0.2732
16597W        W32491  14.459   1.117   1.772  0.2750  0.0235 -0.1816
16598W        W32492   4.071  13.359  13.238 -0.2611  0.2303  0.1225
16599W        W32493  10.264  13.101  13.000 -0.2532  0.1061  0.0591
16600W        W32494  10.729   2.610  12.319 -0.1181 -0.1355 -0.1412
16601W        W32495  18.332   9.552   0.658 -0.0718  0.1833  0.2135
16602W        W32496  16.606  13.641  13.841  0.0244  0.0640 -0.1007
16603W        W32497   1.210   2.088  13.266  0.0540 -0.0723  0.2444
16604W        W32498  15.827  13.862  10.118 -0.0136 -0.1908 -0.2634
16605W        W32499   4.673   4.699  11.422  0.1083 -0.2607  0.0530
16606W        W32500  19.020  16.182   2.630  0.1468  0.0526  0.0447
16607W        W32501   8.886   6.758   4.200  0.4089  0.2132 -0.0602
16608W        W32502  13.215   3.086   3.602 -0.1102 -0.0854  0.4028
16609W        W32503   8.291   6.217   0.231  0.2451 -0.1646  0.0744
16610W        W32504   0.624   8.244   0.637 -0.0728 -0.1353 -0.1434
16611W        W32505   4.268   9.097   0.879 -0.0698  0.1403  0.2531
16612W        W32506  16.066   8.611  14.002 -0.0045  0.4435  0.0019
16613W        W32507   0.885  10.134  14.371  0.0640  0.0997  0.2815
16614W        W32508   6.377  18.632   2.206 -0.0673  0.2312 -0.4007
16615W        W32509  13.830   5.757   4.511  0.1949  0.0119 -0.3683
16616W        W32510  11.873  12.597   3.478 -0.0323 -0.1854  0.2509
16617W        W32511  18.755  14.175  14.605  0.2620  0.1149  0.0612
16618W        W32512   4.092   0.178   1.777  0.0957  0.0927  0.0291
16619W        W32513  15.554  18.035   2.367  0.2693 -0.2755  0.0123
16620W        W32514  12.529  10.072   0.104  0.1609 -0.1182  0.0336
16621W        W32515   1.673   1.679   3.628 -0.1666 -0.0784  0.1125
16622W        W32516  13.323  17.920   2.528 -0.1946 -0.1209  0.2986
16623W        W32517  10.159  17.794   4.445 -0.3744  0.1703  0.0091
16624W        W32518  16.752   2.281  14.579  0.0108  0.0447 -0.1412
16625W        W32519  10.106   8.325  13.680  0.0440 -0.3036  0.1153
16626W        W32520   5.546   7.246   5.369  0.2308  0.0818 -0.0058
16627W        W32521   0.214   9.999   2.628 -0.0126  0.0568 -0.1081
16628W        W32522   1.334  14.498   9.883 -0.2526  0.0542  0.0435
16629W        W32523   2.612   7.438  10.719  0.0818  0.2102 -0.1427
16630W        W32524   3.660  13.311  11.361  0.0884 -0.1011  0.2870
16631W        W32525  11.129  10.498   3.592 -0.1528  0.1305  0.1759
16632W        W32526  17.672  13.710   4.703  0.3408  0.3281  0.2513
16633W        W32527  16.795  16.391  11.230 -0.1323  0.1244  0.0955
16634W        W32528  17.528  13.049  13.954  0.7141  0.0507  0.2588
16635W        W32529   2.230   8.827  14.019 -0.0681  0.0025 -0.4134
16636W        W32530   9.817  11.187  10.977  0.2673  0.2057  0.1937
16637W        W32531  16.091   0.161  11.868 -0.0422  0.3851 -0.0719
16638W        W32532  15.277  18.815  10.095  0.0895  0.2367 -0.0727
16639W        W32533  10.660   6.469   4.075  0.1126 -0.1313 -0.0621
16640W        W32534  13.714   9.787   0.980  0.1448 -0.2442  0.3353
16641W        W32535  17.757  17.619   1.180  0.3407  0.2300  0.0361
16642W        W32536   4.092   0.781  14.770  0.1731  0.0091 -0.2024
16643W        W32537  16.757   6.170  14.798 -0.2674 -0.1105 -0.3125
16644W        W32538  16.324  16.016   3.166 -0.2618  0.1948  0.0079
16645W        W32539   1.420   3.093   0.153 -0.1022  0.1832  0.0803
16646W        W32540  11.488  17.865   4.099 -0.2860 -0.1730  0.2304
16647W        W32541   4.467   9.176  11.354  0.2875  0.1759 -0.1259
16648W        W32542   8.308   5.971   4.175 -0.1367 -0.2283  0.4379
16649W        W32543  12.703   2.974   1.005  0.0400 -0.3391  0.0026
16650W        W32544  18.612   7.859   2.364  0.0813  0.1005  0.2191
16651W        W32545   3.309  10.242  10.380  0.3275  0.3999  0.0450
16652W        W32546   0.547   2.267   2.135  0.1421  0.2727  0.2901
16653W        W32547  14.193   0.181  13.542  0.0553 -0.0624 -0.2647
16654W        W32548   2.728  14.085   2.260 -0.2258 -0.0291 -0.2072
16655W        W32549   9.252  15.284   1.610 -0.0480 -0.1759 -0.0340
16656W        W32550   6.585   0.328   4.981  0.4179 -0.0514  0.1301
16657W        W32551  18.064  13.789   2.864  0.2294 -0.2955  0.1854
16658W        W32552  18.900  12.345   5.735  0.0298 -0.2114 -0.0574
16659W        W32553   5.512  13.836  13.063 -0.2011  0.0358 -0.3293
16660W        W32554   4.104  17.041   1.153  0.0764 -0.0387 -0.2590
16661W        W32555  13.351   6.972  11.262 -0.0068  0.1387 -0.0332
16662W        W32556   2.938  16.330   3.943 -0.1558  0.0681 -0.1321
16663W        W32557  18.537   6.260   3.367 -0.0382  0.1470  0.0318
16664W        W32558  12.179   7.278   1.756  0.2054 -0.0096  0.0786
16665W        W32559   6.182   4.206   4.215 -0.0430 -0.1735 -0.1424
16666W        W32560  14.853   3.121  13.449  0.0689  0.1534  0.0802
16667W        W32561   6.811   3.113  12.346 -0.2785  0.1161 -0.4508
16668W        W32562  15.699   6.076   1.528  0.0781 -0.1942 -0.1271
16669W        W32563   2.287   9.644  14.577  0.1453  0.3693  0.1981
16670W        W32564   4.541  12.047   4.321  0.0433  0.3111  0.0712
16671W        W32565   5.834  17.421   2.536 -0.2953  0.1115  0.0103
16672W        W32566   4.148   2.547  11.067  0.2061 -0.0208  0.3138
16673W        W32567   1.758   1.942   0.582  0.2050  0.2515  0.1318
16674W        W32568  10.904   9.579   3.559  0.1466 -0.1175  0.0449
16675W        W32569  17.701  12.958  11.920 -0.1384  0.0750  0.2650
16676W        W32570   5.426   9.802   2.078 -0.0606 -0.1318  0.3272
16677W        W32571  14.677   3.741   4.383  0.1873  0.2082  0.1471
16678W        W32572   0.477   8.969   2.792  0.0806  0.3960 -0.0755
16679W        W32573  18.241   3.894   5.823 -0.0363  0.1134 -0.4788
16680W        W32574  12.779  14.884  13.883  0.2887 -0.0608 -0.0058
16681W        W32575   9.970   7.423  11.186 -0.1618 -0.0396  0.2652
16682W        W32576   4.467  10.709   0.638 -0.0894 -0.2096 -0.1354
16683W        W32577  10.334   0.462   4.727 -0.0797  0.2545  0.0285
16684W        W32578   6.659  11.567  14.124  0.4684  0.3874  0.0172
16685W        W32579   3.163  18.155  11.866 -0.0200  0.1268 -0.0408
16686W        W32580  16.847  13.725  14.314  0.0868 -0.0994 -0.1148
16687W        W32581   6.901   3.568  11.536 -0.0440 -0.2103 -0.1702
16688W        W32582  13.690   1.196  11.431  0.0610 -0.2941  0.0375
16689W        W32583  18.420  17.009   5.408 -0.1918 -0.2860  0.2171
16690W        W32584   5.951  18.168  14.150 -0.2434  0.2249 -0.2153
16691W        W32585   8.801   1.467  14.330  0.0612  0.3351  0.0748
16692W        W32586   7.689  12.503   0.297  0.0241  0.3305  0.1593
16693W        W32587   1.531  16.856  13.292 -0.4196 -0.0652  0.6000
16694W        W32588   1.091   7.732  10.375  0.1105 -0.0427 -0.1620
16695W        W32589  13.803  15.388   5.371 -0.0138 -0.0257  0.0711
16696W        W32590   6.785   2.056  13.327  0.1200 -0.2138  0.0386
16697W        W32591  15.007  10.163   0.977  0.1580 -0.3027 -0.1443
16698W        W32592   2.325  10.585   0.070  0.2322 -0.4933 -0.1892
16699W        W32593  12.131   7.532   9.904 -0.2246  0.3083 -0.0573
16700W        W32594  19.141   9.411   4.139  0.1576  0.2510  0.2743
16701W        W32595   7.701   6.387  11.823 -0.4987 -0.2680  0.3394
16702W        W32596   0.488  17.260  14.948 -0.3764  0.1886 -0.3266
16703W        W32597  10.152   3.367  12.402 -0.5589 -0.2142 -0.1214
16704W        W32598   0.651  15.863  14.549 -0.4165 -0.1860 -0.0707
16705W        W32599   1.091  11.915  12.952 -0.0427  0.2280  0.0607
16706W        W32600   0.788   0.010  13.549  0.3051  0.0995 -0.0674
16707W        W32601  11.168  16.097  12.860 -0.0051 -0.0665  0.1007
16708W        W32602   1.454   4.921  12.288  0.0560 -0.1467 -0.3877
16709W        W32603  10.383  14.369   3.099 -0.0818  0.0658  0.3038
16710W        W32604  15.333  10.184  11.353 -0.2801 -0.2386 -0.0492
16711W        W32605   5.221  14.880  13.851  0.0843  0.2204  0.1668
16712W        W32606   3.488   1.915  10.558  0.1805 -0.0366  0.1523
16713W        W32607   1.467   1.459   5.596 -0.1211 -0.0320 -0.0299
16714W        W32608  15.423  12.505   9.721  0.0142  0.1469  0.2055
16715W        W32609  11.474  11.832   5.537  0.1506 -0.0814  0.0284
16716W        W32610   3.578   2.008  12.919  0.1183 -0.1010  0.2904
16717W        W32611   3.759  16.261   4.961  0.1353 -0.1542  0.2761
16718W        W32612   5.760  18.346   3.533  0.3658  0.1160  0.4030
16719W        W32613  10.647   6.087  13.720  0.3541  0.0558  0.1790
16720W        W32614  17.266   3.468   0.059 -0.2075 -0.0274 -0.1370
16721W        W32615  18.735  12.909   1.963 -0.1213 -0.0492 -0.0977
16722W        W32616   6.031   4.489  11.289 -0.0101  0.0485  0.0822
16723W        W32617  11.536  14.646  12.712  0.0501 -0.1164 -0.2640
16724W        W32618  10.482  15.828   4.487 -0.1774  0.1382  0.1324
16725W        W32619   8.532  16.019   1.107 -0.0266 -0.0699 -0.4117
16726W        W32620   6.367   8.567  10.929  0.0340 -0.0694  0.0178
16727W        W32621  16.042  15.891  12.854 -0.2279 -0.0778  0.3507
16728W        W32622  16.311  18.600   2.349 -0.0347  0.1238 -0.2712
16729W        W32623   3.532  18.670   5.024 -0.0380 -0.1750  0.1523
16730W        W32624  17.513   3.128  11.718 -0.4322 -0.1016 -0.1031
16731W        W32625   8.249   3.354   0.857 -0.1270 -0.3738  0.0862
16732W        W32626   6.399  13.606   2.721 -0.0054 -0.0685  0.5246
16733W        W32627  13.219   4.671   1.347  0.3282  0.3493  0.1433
16734W        W32628  14.693  13.548   4.156  0.5344  0.0598  0.1172
16735W        W32629  12.730   4.456  12.215 -0.2662 -0.0548  0.3996
16736W        W32630   6.072  17.909   0.959  0.1268 -0.0177  0.0756
16737W        W32631  17.488   0.863   3.290  0.0608 -0.0923  0.1679
16738W        W32632   8.926   4.547  11.728 -0.0854  0.2369 -0.1977
16739W        W32633   3.809  14.311   4.822  0.2902 -0.1874  0.1763
16740W        W32634  13.841  14.635  12.559 -0.1336  0.0996  0.1650
16741W        W32635   8.436  18.305   4.533 -0.0450 -0.0434 -0.0961
16742W        W32636  10.775  17.928  12.584 -0.1167  0.4607  0.4222
16743W        W32637  10.266   4.402  11.362 -0.1452 -0.0346 -0.0897
16744W        W32638   9.779   7.442   1.299  0.1672  0.1765  0.2506
16745W        W32639  18.337  15.271   3.181 -0.1826 -0.0514  0.2162
16746W        W32640   0.309  16.103   1.684  0.1332 -0.1824 -0.3134
16747W        W32641   8.629  17.641   4.639  0.3573  0.5140 -0.1289
16748W        W32642  13.160   7.424   0.596  0.1492  0.0519 -0.0957
16749W        W32643   8.980   8.888  11.683 -0.2789  0.0433 -0.0387
16750W        W32644  16.364  10.005   2.754 -0.1013  0.2316 -0.4654
16751W        W32645   3.014  10.945  13.507 -0.0721 -0.0258 -0.0954
16752W        W32646  17.876  18.440   0.277 -0.1755 -0.1106  0.1367
16753W        W32647  14.136   4.495   1.119  0.0045 -0.2539  0.1637
16754W        W32648  11.112   9.514  14.657 -0.2085  0.2519 -0.1470
16755W        W32649  15.886  12.823  12.110 -0.0687  0.3119  0.2586
16756W        W32650   7.336  18.504  12.566 -0.1523 -0.1778 -0.0753
16757W        W32651  12.956   7.706   0.167 -0.1679  0.1637  0.2425
16758W        W32652   4.727   8.101  10.769  0.1549 -0.1898 -0.1866
16759W        W32653   8.694   8.670   3.577 -0.0234  0.0224 -0.0351
16760W        W32654  16.307  17.136   2.046 -0.0387 -0.0396  0.0274
16761W        W32655   8.237  17.871   0.648 -0.4305 -0.1219 -0.2405
16762W        W32656  15.682   8.365   4.453  0.0366  0.1738 -0.1313
16763W        W32657   9.623  15.232  10.627  0.0750 -0.0194 -0.1299
16764W        W32658   2.230   3.298  12.385 -0.0824  0.1030  0.2633
16765W        W32659   9.689   0.274   5.324  0.2491 -0.3323 -0.2214
16766W        W32660   8.432  12.918   1.751  0.0082  0.2411 -0.1968
16767W        W32661   7.780  15.142   2.710 -0.3700  0.1936  0.0881
16768W        W32662   4.040  10.860  12.114 -0.1817 -0.1468 -0.3442
16769W        W32663  11.505  16.977  11.278  0.0198 -0.0481 -0.0395
16770W        W32664   4.795  17.186  13.619  0.0773 -0.1635 -0.0941
16771W        W32665  16.700  17.251  11.942 -0.0212 -0.1043  0.1062
16772W        W32666  12.022   8.187   5.557  0.4220  0.1238  0.1966
16773W        W32667  15.272   3.201  12.408  0.0120 -0.0907  0.1108
16774W        W32668   1.108  13.360  12.103 -0.2080 -0.1623 -0.2004
16775W        W32669   8.046  14.206  11.136 -0.2254 -0.1692 -0.1135
16776W        W32670  16.110  18.329   3.423 -0.2156  0.1988  0.1382
16777W        W32671   4.102   6.341   2.004 -0.1601 -0.0171 -0.0071
16778W        W32672  11.990  12.001  12.078 -0.1522  0.0830  0.0199
16779W        W32673  14.088   4.242   2.076  0.1261 -0.2221  0.0887
16780W        W32674   7.660  13.626   2.897  0.0560 -0.2413  0.3016
16781W        W32675  10.329   3.514   2.086 -0.1846 -0.2699 -0.3913
16782W        W32676  19.050  14.017  14.051 -0.2628  0.3762 -0.1859
16783W        W32677  11.333   5.858   0.664  0.0854 -0.0848  0.2596
16784W        W32678  17.353  10.586  10.027  0.0269 -0.3271 -0.2980
16785W        W32679   7.551   1.086  14.013 -0.0273 -0.2614  0.2515
16786W        W32680  11.377  17.509  10.306 -0.2495  0.0662 -0.2261
16787W        W32681   2.617   5.997  14.185  0.0370 -0.1777 -0.4237
16788W        W32682  13.023   1.937  14.912  0.2222  0.5092 -0.1804
16789W        W32683  17.726  11.055  11.245 -0.2358  0.1459  0.1613
16790W        W32684  15.224  12.985   2.876  0.2412  0.4010 -0.1218
16791W        W32685   4.365  12.836   2.330  0.1745 -0.2397  0.0408
16792W        W32686   7.227   4.642  10.298 -0.3504  0.1273  0.2108
16793W        W32687  12.743   1.619   5.100 -0.2474  0.0269  0.0510
16794W        W32688  14.766  19.017   0.693 -0.2279 -0.2487  0.2561
16795W        W32689   7.687  11.695   5.412 -0.4405  0.1949  0.4675
16796W        W32690   7.591  10.275   0.799  0.3275 -0.2348  0.3618
16797W        W32691  18.673  17.682   0.909 -0.2539 -0.0070 -0.1290
16798W        W32692  14.378   2.965   1.810  0.2233  0.0719  0.0516
16799W        W32693   4.473   9.587   3.911  0.1244  0.1187  0.1130
16800W        W32694  10.962   0.068  10.228  0.3578  0.1155  0.0209
16801W        W32695  14.860  13.636  12.222 -0.0522  0.1238 -0.0557
16802W        W32696   8.153  13.649  11.207  0.1458 -0.0785  0.1000
16803W        W32697  17.063  13.060   0.218  0.2136  0.1113  0.1618
16804W        W32698   1.217  16.310   4.209 -0.1064  0.1945  0.6233
16805W        W32699   9.601  13.657  15.078  0.3262  0.1278  0.0957
16806W        W32700   2.142   5.106  13.229 -0.0575 -0.2238  0.1497
16807W        W32701   0.157  10.978  14.501  0.2223 -0.0574 -0.1321
16808W        W32702   2.968  17.123  13.064  0.0900  0.0004  0.0920
16809W        W32703  10.463   8.702   1.687 -0.1518 -0.1114  0.1407
16810W        W32704  16.522   0.953  12.519  0.0241 -0.1423  0.2292
16811W        W32705   6.522  15.805   2.930  0.0075  0.0297 -0.0628
16812W        W32706   0.634  11.386   3.687 -0.1245  0.2134 -0.1447
16813W        W32707  16.694   1.108  13.353  0.0347  0.1498  0.0044
16814W        W32708  17.247  13.519   1.590  0.3749 -0.0236 -0.0344
16815W        W32709  12.220   9.223  11.593 -0.1837 -0.2379  0.1158
16816W        W32710   8.256  10.071  12.362  0.1704  0.2217  0.0640
16817W        W32711  18.482   1.938   5.006  0.1528 -0.2500 -0.0551
16818W        W32712   6.096   8.108   2.461  0.1363  0.3988  0.4108
16819W        W32713  16.313   0.382   2.110  0.1271  0.0899 -0.3654
16820W        W32714   2.937  13.597   3.904 -0.2572 -0.1523 -0.1267
16821W        W32715   6.797   3.973  11.876  0.2750 -0.0623  0.0564
16822W        W32716  17.647  14.863  12.050 -0.1104  0.2296  0.0781
16823W        W32717   2.511  11.011   4.874 -0.2843 -0.1304 -0.0479
16824W        W32718  12.677   0.337   4.058 -0.1957  0.0207  0.2835
16825W        W32719  19.098  15.987   3.995  0.0790  0.2719  0.3121
16826W        W32720  15.363  14.859  14.897 -0.0122  0.1256 -0.0597
16827W        W32721  16.898  18.383  12.755 -0.0913 -0.1129 -0.0850
16828W        W32722   9.019  18.865   0.172  0.1761 -0.0986 -0.2670
16829W        W32723  10.760   5.873  12.226 -0.1263 -0.3408  0.3507
16830W        W32724   2.618   6.536  11.974 -0.1289 -0.0718 -0.0745
16831W        W32725   0.932   7.471   4.886  0.2040 -0.0604  0.0973
16832W        W32726  18.334   7.143   1.290  0.1187 -0.1020  0.1007
16833W        W32727   5.489   6.458   1.409  0.1263  0.3426 -0.2950
16834W        W32728   9.052  17.600   3.137  0.2624 -0.1415  0.0074
16835W        W32729  17.244  11.267  15.119  0.2786  0.1538  0.0361
16836W        W32730  11.624   9.437  10.769  0.2477  0.0739 -0.0356
16837W        W32731   7.344   4.589   3.596 -0.0737  0.3261 -0.0240
16838W        W32732   3.628  14.149   3.403 -0.0483  0.0939  0.0338
16839W        W32733  16.518   6.204  12.792  0.4505 -0.2271  0.0748
16840W        W32734   9.158   7.853  11.706 -0.3050 -0.2161 -0.0079
16841W        W32735   8.730   9.569  13.358  0.1443 -0.1006 -0.1357
16842W        W32736   9.872  11.441   5.429  0.0252  0.4299 -0.0907
16843W        W32737  10.797  19.095   2.877  0.0258 -0.0101 -0.0818
16844W        W32738  13.222   0.695  13.895  0.1971  0.2654 -0.1135
16845W        W32739   7.043  13.004   2.440  0.5090 -0.0464  0.2437
16846W        W32740   1.933  16.956   1.508 -0.1133  0.1111  0.2398
16847W        W32741  11.547  15.552  14.437  0.2664  0.0786  0.1752
16848W        W32742  13.710   4.185   3.388 -0.0344 -0.1607 -0.1216
16849W        W32743  10.306  11.231  14.724  0.1537 -0.0045 -0.1682
16850W        W32744  16.832  17.589   2.234 -0.1362 -0.0429  0.2711
16851W        W32745  10.180  12.618  14.420  0.0550  0.1672  0.0488
16852W        W32746  18.411   2.587  12.819  0.0521  0.2876 -0.1309
16853W        W32747  18.722   1.006   3.090 -0.3233 -0.2551  0.0352
16854W        W32748   8.798  14.998   1.424  0.1614 -0.0727 -0.2197
16855W        W32749  19.180  16.426  11.464  0.1457 -0.0391  0.0933
16856W        W32750   8.984  13.521  11.725 -0.0410 -0.1813  0.0418
16857W        W32751  16.117   1.888   0.329 -0.0821  0.0087 -0.0034
16858W        W32752   1.979  11.620   4.541  0.0131  0.2172 -0.0596
16859W        W32753   1.622  16.119   1.944 -0.0465 -0.0261 -0.5664
16860W        W32754  18.064   7.557   0.937 -0.0072  0.0476  0.0794
16861W        W32755  14.961   0.118   4.069  0.3210 -0.0557  0.0851
16862W        W32756   7.418  16.586   0.289  0.3457  0.0595 -0.0755
16863W        W32757  10.188  15.526  15.049 -0.0508  0.0460 -0.0133
16864W        W32758  15.184   0.133  12.849 -0.0821 -0.0407 -0.2238
16865W        W32759  17.109   6.448  15.009 -0.0815  0.1211 -0.1176
16866W        W32760   6.047  13.652   4.789  0.0787  0.0448  0.0073
16867W        W32761  10.786  18.468   2.942 -0.0444  0.0602  0.0959
16868W        W32762   3.297  12.524  12.122 -0.2033 -0.1327 -0.1697
16869W        W32763  17.362   2.980  11.145 -0.0819  0.1794  0.0294
16870W        W32764   6.834   6.546   0.458  0.1754 -0.0888  0.0534
16871W        W32765   8.079  10.500  14.841 -0.0348  0.0296  0.2347
16872W        W32766   7.089  12.290   2.955 -0.2563  0.0916 -0.0693
16873W        W32767   9.275   3.849  14.205 -0.3825 -0.0133  0.2333
16874W        W32768   2.498  17.298   4.437 -0.0354  0.0158 -0.2262
16875W        W32769  10.394   8.444   9.480  0.0114 -0.0145 -0.3167
16876W        W32770   0.192  18.606  11.358 -0.3057 -0.0259  0.1382
16877W        W32771  16.593  14.431   4.940 -0.1063  0.1876 -0.0527
16878W        W32772   9.906  16.226  14.588 -0.0291 -0.2718  0.1456
16879W        W32773   6.420  10.293  12.939  0.3051 -0.1084  0.2961
16880W        W32774  17.158  10.176  13.882 -0.1244 -0.0622  0.4089
16881W        W32775  14.235  11.982  12.184  0.1349 -0.1018  0.1437
16882W        W32776   0.557  13.261   0.175  0.0463 -0.1263  0.0272
16883W        W32777   6.294   3.167   3.970  0.1636  0.1788 -0.0731
16884W        W32778  11.492   3.090  11.180 -0.0417 -0.1596 -0.1242
16885W        W32779  11.674  13.104   1.552 -0.1467  0.0344 -0.1474
16886W        W32780  12.470   9.352   2.847  0.2138  0.0219  0.1900
16887W        W32781  16.116   8.781   1.438  0.1951  0.1365  0.0662
16888W        W32782   8.948   9.422   0.012 -0.0796 -0.1202 -0.0547
16889W        W32783   0.842  10.628   4.879  0.1566 -0.0563  0.2251
16890W        W32784  14.605  18.468   2.782  0.1507  0.0610 -0.1570
16891W        W32785   9.349   7.402  11.729  0.0676 -0.0094  0.1015
16892W        W32786   5.750  15.620   4.055  0.0323 -0.0771  0.1553
16893W        W32787  18.666  13.996   2.171 -0.1970 -0.2477  0.1372
16894W        W32788   0.224   6.056   2.260 -0.0700 -0.3981 -0.0401
16895W        W32789  19.032   4.145   2.962  0.3263 -0.0338 -0.2279
16896W        W32790  18.013  10.473   4.406 -0.1192  0.4680 -0.1049
16897W        W32791   0.811   5.561  10.664  0.0912 -0.1335  0.0725
16898W        W32792  12.858  14.807   4.036  0.1886 -0.3297  0.4052
16899W        W32793   9.824   7.390  13.549 -0.1699  0.1428  0.2956
16900W        W32794   2.720  11.321   0.003 -0.0109 -0.3553  0.1675
16901W        W32795  10.820  17.338   1.958 -0.1114  0.1538 -0.4134
16902W        W32796  11.959  16.409   1.346  0.0351  0.0325  0.1462
16903W        W32797   7.803  11.451   2.356 -0.0453 -0.0509 -0.0576
16904W        W32798   4.895  16.942  14.650  0.0661  0.0108 -0.1276
16905W        W32799  16.380  10.418   0.469  0.1648 -0.2669  0.3727
16906W        W32800  13.146  15.455  13.771 -0.1527  0.0856 -0.1989
16907W        W32801   6.556   3.961   0.494 -0.2132 -0.0808 -0.1755
16908W        W32802  11.137  17.070  11.596  0.0179  0.0752  0.1645
16909W        W32803  17.680   0.865  13.860  0.1493  0.0579  0.3175
16910W        W32804  11.503  15.313   1.106  0.0909  0.0551 -0.0015
16911W        W32805   2.186   1.694  13.974 -0.2642  0.0844 -0.0127
16912W        W32806   3.160   0.087   1.810  0.0268  0.1382  0.1021
16913W        W32807  16.074   5.221  14.527 -0.0695 -0.0823 -0.2496
16914W        W32808   9.994  18.346   9.594  0.1203 -0.1914  0.1574
16915W        W32809   6.371  18.660  15.032 -0.0766 -0.0036 -0.1526
16916W        W32810   2.211  13.566  14.805  0.1510 -0.0933 -0.4013
16917W        W32811  11.574  18.966   1.492  0.1469 -0.1388  0.0083
16918W        W32812   8.791  12.104  12.065 -0.2275  0.1776  0.1108
16919W        W32813  18.209  10.905   4.427 -0.0185  0.2762  0.1187
16920W        W32814  10.513  17.343   1.173  0.3786  0.0720 -0.4010
16921W        W32815   1.418  11.950   1.612  0.2809  0.3134  0.0731
16922W        W32816   6.308   7.272  14.855 -0.1025  0.5469 -0.0964
16923W        W32817   2.408   5.502   5.053  0.0948 -0.0533 -0.1986
16924W        W32818   5.638   3.228   0.431  0.0925  0.1872  0.1099
16925W        W32819  18.672   6.890   2.261 -0.0510 -0.3231  0.1059
16926W        W32820   6.167   6.002  14.649 -0.0128 -0.4161  0.1272
16927W        W32821  18.502   9.044   2.873 -0.1089 -0.0550  0.1449
16928W        W32822  16.857   8.128  10.592  0.0356  0.1592 -0.0582
16929W        W32823  13.624  12.149   0.287  0.1264 -0.0367  0.0674
16930W        W32824  12.959  10.063  13.488  0.0464 -0.1010  0.1523
16931W        W32825   5.997   1.601   3.125  0.2059 -0.0296  0.0400
16932W        W32826   8.554  12.325   0.885 -0.0896 -0.1000  0.0885
16933W        W32827  13.246   7.897   2.955  0.0305 -0.2445 -0.0991
16934W        W32828  18.337   8.636   4.584  0.1102  0.2353  0.0783
16935W        W32829  18.735   7.569   0.290  0.1385 -0.0462  0.4617
16936W        W32830  18.265   1.902   2.161  0.0600 -0.2267 -0.0507
16937W        W32831   5.169   3.535   1.809 -0.1150  0.3172 -0.0463
16938W        W32832   6.944  14.016   2.569  0.2886  0.2393  0.3850
16939W        W32833   7.962  13.888   2.510 -0.2004  0.3291 -0.3330
16940W        W32834   2.089   7.766   1.313  0.0706 -0.1479 -0.2702
16941W        W32835   3.359  13.246   3.720  0.0483  0.0667 -0.2602
16942W        W32836   8.067  10.970   5.506 -0.0639 -0.1920 -0.0709
16943W        W32837   2.991  15.298  14.402  0.0020  0.2084 -0.4642
16944W        W32838  13.415  13.340   0.778 -0.1512 -0.0412  0.3170
16945W        W32839  18.194   0.254  13.243  0.2158  0.1178 -0.1478
16946W        W32840  14.694   2.739   2.678  0.1008  0.0188 -0.3394
16947W        W32841  15.627  16.366   4.022  0.3263 -0.0275 -0.2340
16948W        W32842  16.790  17.736   0.199  0.1056 -0.2223  0.0145
16949W        W32843  10.946  15.874   4.269 -0.1662  0.0942 -0.2874
16950W        W32844  17.784  10.661  14.932  0.1513  0.2298 -0.1568
16951W        W32845   1.643  18.544   5.182  0.1113 -0.1581  0.1692
16952W        W32846   2.430   5.573   2.961 -0.4327 -0.2207 -0.2639
16953W        W32847   4.937   1.118  13.291 -0.2554  0.1597 -0.1185
16954W        W32848  12.472   5.984   3.431  0.0398 -0.1959  0.0702
16955W        W32849  17.749   2.856  12.486  0.2935 -0.1622  0.0232
16956W        W32850  15.452  13.072   2.372  0.0490  0.4378 -0.2965
16957W        W32851  17.736  15.438  12.540  0.0237 -0.1203  0.4564
16958W        W32852  14.982  16.831  12.519  0.1013  0.4508  0.0524
16959W        W32853   3.368  11.388   4.183  0.0128 -0.2372  0.2399
16960W        W32854   2.235   7.111   1.846  0.1496 -0.1094  0.0257
16961W        W32855   6.696  11.694  12.264  0.1780 -0.1281  0.1860
16962W        W32856   4.604   2.293   3.450  0.0575  0.0644  0.3780
16963W        W32857   7.850   6.012   0.756  0.2960 -0.5385 -0.1456
16964W        W32858   2.265   3.511   1.827  0.1477  0.4114  0.0131
16965W        W32859   7.498   0.947  10.462  0.2014  0.1497 -0.0878
16966W        W32860   9.278   5.747  12.070 -0.0214 -0.5367 -0.0405
16967W        W32861  13.393   1.571  11.408 -0.2251  0.2261  0.0741
16968W        W32862   3.123   6.195  10.674  0.3149  0.0413 -0.1831
16969W        W32863  17.732   4.149   1.669 -0.0397  0.1041  0.0399
16970W        W32864   5.261   4.178  14.376 -0.1168  0.1513 -0.3227
16971W        W32865   2.479   5.919   1.305  0.1234  0.2906  0.1371
16972W        W32866   1.729  15.053   2.945 -0.0691 -0.1877  0.0504
16973W        W32867   2.275   4.046   3.098 -0.3456 -0.1097 -0.0001
16974W        W32868   3.123   1.850  12.066  0.1215 -0.1094  0.1732
16975W        W32869  14.976  16.388  12.656  0.0444  0.1202 -0.2800
16976W        W32870   8.726  18.483   0.246 -0.1279 -0.2231 -0.1664
16977W        W32871   0.365  16.183   0.712  0.2957 -0.0823  0.1422
16978W        W32872   8.708  13.450   9.255 -0.3193  0.1203  0.0022
16979W        W32873  15.582  11.267  13.291  0.3964  0.0405  0.3481
16980W        W32874   7.347   5.702  14.826  0.0809  0.1267  0.3150
16981W        W32875  16.220  13.450  12.664 -0.1470  0.0516  0.1192
16982W        W32876  10.177   5.344  14.274 -0.0388 -0.1103  0.0511
16983W        W32877   2.983   6.062   2.845 -0.2432 -0.0788  0.0990
16984W        W32878  12.979   7.854   3.444 -0.1284 -0.2250 -0.1167
16985W        W32879   7.096  18.417   0.326 -0.1551 -0.1048  0.0810
16986W        W32880  16.660  16.346  13.468 -0.0491 -0.5113 -0.0860
16987W        W32881   9.766  17.319  13.656  0.0520 -0.0249  0.3349
16988W        W32882   9.377   2.039   5.391 -0.1387  0.1519 -0.1709
16989W        W32883   5.893  15.026   5.407 -0.0766 -0.2804  0.0496
16990W        W32884  18.554  18.598   3.232 -0.0140  0.0927 -0.1175
16991W        W32885  18.224   3.848  14.777  0.4654  0.2886 -0.2128
16992W        W32886   3.010   7.679   1.633 -0.0638  0.1188  0.0567
16993W        W32887   6.978   5.910  13.822  0.0055 -0.3227  0.0067
16994W        W32888   8.823  14.841   4.047 -0.1170  0.1142  0.1273
16995W        W32889  15.734   4.275  12.227  0.1206  0.3044 -0.2002
16996W        W32890   3.842   2.157  13.346  0.4362 -0.1962  0.0007
16997W        W32891   8.054  14.151  12.247 -0.2343  0.2474 -0.2234
16998W        W32892   3.251   7.907  15.046 -0.0269 -0.2361  0.4442
16999W        W32893  18.119  13.982  13.130 -0.0135 -0.0212 -0.0176
17000W        W32894   6.777   8.790  10.808 -0.0119 -0.5641  0.2414
17001W        W32895   4.449  13.794   6.272 -0.0112 -0.1721  0.1385
17002W        W32896  18.194  12.829  10.982  0.3217 -0.0066 -0.4340
17003W        W32897   6.083  16.003  12.071 -0.2351 -0.1724 -0.0525
17004W        W32898   7.993   2.216  11.177  0.0158 -0.0709 -0.1800
17005W        W32899   1.621   3.734   2.344  0.2031 -0.1879  0.2873
17006W        W32900   8.441  11.696  13.357 -0.1024  0.1274  0.1208
17007W        W32901  13.329   5.332   5.722 -0.0177 -0.2979 -0.1820
17008W        W32902  12.163  14.830   9.942 -0.1347  0.0570  0.2659
17009W        W32903   6.663  12.736  10.490  0.0394  0.2222 -0.0999
17010W        W32904   4.092  13.875  13.364  0.2823 -0.1663  0.1377
17011W        W32905   8.665   4.489  13.813  0.0593  0.0193  0.1324
17012W        W32906  15.348   7.919   0.649  0.1276 -0.1243  0.1658
17013W        W32907   1.612  12.270  14.866 -0.1040 -0.1977  0.0880
17014W        W32908   1.907   8.993   4.378 -0.0523  0.0169  0.1178
17015W        W32909   6.116   9.962   1.261 -0.1097 -0.4174  0.1287
17016W        W32910   2.564  17.160  11.759  0.0002 -0.0812 -0.1212
17017W        W32911  13.985  14.312   2.300  0.3296 -0.5659 -0.1676
17018W        W32912  18.951  15.481   3.796  0.0799  0.1312 -0.0465
17019W        W32913   4.160   2.200   0.582 -0.0656  0.0825 -0.0936
17020W        W32914  11.014  12.171  10.158 -0.1371  0.0514  0.0945
17021W        W32915   3.497   0.136  11.121  0.1780  0.1843  0.2561
17022W        W32916   7.747   1.329  10.921  0.0743 -0.4474 -0.0169
17023W        W32917  18.708  16.263  10.319 -0.1483 -0.1210 -0.1869
17024W        W32918  14.428   8.877   0.494 -0.0917 -0.1142 -0.1928
17025W        W32919   6.745   3.791  14.672 -0.0218  0.0659 -0.1358
17026W        W32920   7.568  14.810  13.334  0.1410 -0.1934  0.2222
17027W        W32921   9.798  11.922   1.596  0.0628  0.0708  0.1336
17028W        W32922   9.690   6.889  10.419  0.3317  0.0541 -0.1789
17029W        W32923  16.903   2.464   4.200  0.2448  0.2183 -0.0227
17030W        W32924   9.738   3.707  10.826 -0.1708  0.2582  0.2145
17031W        W32925  10.312   6.894  14.224 -0.1135  0.0504 -0.0889
17032W        W32926   0.159   5.595  11.462 -0.0228  0.2953  0.2322
17033W        W32927   5.199   5.203   5.321 -0.1858 -0.0729  0.0407
17034W        W32928   6.098   2.895  12.363 -0.0024 -0.5582  0.0831
17035W        W32929   4.103   8.696  14.469  0.3250  0.0614 -0.0602
17036W        W32930  14.515   4.929   3.701  0.1568 -0.0930 -0.1428
17037W        W32931   0.564   7.316   3.008 -0.0618  0.0996  0.1868
17038W        W32932   2.553  10.197   3.396 -0.1166  0.0255  0.0027
17039W        W32933   8.261   9.680   0.007 -0.3322 -0.2206 -0.0922
17040W        W32934  17.222  11.872   1.916  0.0723  0.0922  0.0294
17041W        W32935  18.517   6.083   2.901  0.1860 -0.0462 -0.1136
17042W        W32936  12.525   4.659  14.608 -0.1280  0.2689 -0.0237
17043W        W32937   1.522  14.572   1.146 -0.3065  0.0829 -0.2214
17044W        W32938   2.383  14.020   2.751  0.0044  0.1193 -0.2341
17045W        W32939  12.991   5.411  13.221 -0.2421  0.0664  0.0980
17046W        W32940   3.025   7.091  14.118  0.1268  0.2432  0.0728
17047W        W32941   2.478   3.600  14.534 -0.1338  0.0488 -0.1014
17048W        W32942  17.982  14.422  10.601 -0.0213 -0.0541 -0.0604
17049W        W32943  13.096  14.083  15.140 -0.1382  0.2638  0.0656
17050W        W32944   4.204   7.478  13.378 -0.1945 -0.4717  0.0729
17051W        W32945  16.744  12.380   4.671  0.2606 -0.1548  0.2096
17052W        W32946   2.784   3.543  10.687 -0.0504 -0.0611 -0.1158
17053W        W32947  11.453  15.818  12.488  0.0938  0.3363 -0.4983
17054W        W32948  15.881   8.828  13.520 -0.1324 -0.3522 -0.1347
17055W        W32949  10.009   9.595   2.968  0.1886 -0.1451  0.0658
17056W        W32950   7.707  18.038  10.533 -0.2272 -0.2453 -0.0780
17057W        W32951  14.604  15.300  14.475  0.1112 -0.1303  0.0650
17058W        W32952   0.974  10.067   3.817  0.1386  0.0574 -0.1466
17059W        W32953  10.091   9.606   0.248 -0.2337 -0.1544 -0.1665
17060W        W32954  16.800  11.219   0.167 -0.0594 -0.0042 -0.0097
17061W        W32955  10.078   1.171  10.995  0.1215  0.2190  0.0799
17062W        W32956  10.884  13.335   2.719 -0.1974  0.0232  0.2620
17063W        W32957  10.282  10.578  12.335 -0.1056  0.1221  0.2266
17064W        W32958  18.444  10.058   2.802  0.0555  0.0450  0.0539
17065W        W32959   3.183   9.530   3.492 -0.0905 -0.0540 -0.3184
17066W        W32960   6.093  11.696  11.055 -0.1045 -0.3316  0.1517
17067W        W32961  15.056  14.000   0.804  0.0134  0.1853  0.0552
17068W        W32962  15.942   1.351   1.955  0.1233 -0.2177  0.0927
17069W        W32963  12.471   6.117   4.569 -0.0448 -0.0428 -0.1871
17070W        W32964  10.553  18.630   1.411  0.2676 -0.2410  0.4406
17071W        W32965  12.524   5.833  12.506 -0.0325 -0.0907 -0.2165
17072W        W32966  15.133   2.818   2.523 -0.0596 -0.0995  0.0838
17073W        W32967   0.409  10.015  12.879 -0.1323  0.4357  0.3412
17074W        W32968  17.950   0.215  10.864 -0.1732  0.3679  0.2388
17075W        W32969   0.437  11.185  12.791 -0.2795  0.0508  0.0654
17076W        W32970  11.596  17.592  14.673 -0.2695 -0.0209  0.0222
17077W        W32971  13.956   1.906   1.057 -0.0103 -0.0465 -0.2360
17078W        W32972  17.055   9.573   2.342 -0.2379  0.0157  0.0760
17079W        W32973   8.272  14.404  12.618  0.2071  0.0416 -0.2346
17080W        W32974  10.338   4.038  14.427  0.0570 -0.0459  0.3437
17081W        W32975   2.656  10.180  13.049  0.3855  0.0303 -0.1023
17082W        W32976  14.919   8.193   0.544  0.1526  0.1012 -0.3963
17083W        W32977  18.618  13.300  12.001  0.0172 -0.0997  0.0475
17084W        W32978  11.114   7.545  13.341  0.2518  0.2175  0.1383
17085W        W32979   2.035   0.329  14.238 -0.0259 -0.2204  0.2588
17086W        W32980   7.933   3.283  15.187  0.0735  0.0567  0.1785
17087W        W32981  13.971  19.008   3.092 -0.4067  0.0446  0.0559
17088W        W32982  15.042  10.696   5.336  0.0482 -0.1751 -0.2298
17089W        W32983  13.337  15.371  12.779  0.1979 -0.2407  0.4289
17090W        W32984   5.175  12.675   5.233  0.1869 -0.1652  0.0837
17091W        W32985  18.358  10.869   3.911 -0.0821 -0.2049  0.0684
17092W        W32986  16.877  10.271  13.185 -0.0908 -0.1207  0.5070
17093W        W32987  12.097   3.520   2.857 -0.1551 -0.4042 -0.3752
17094W        W32988   2.531   5.388  14.925 -0.2401 -0.1526  0.2846
17095W        W32989  14.897  15.643   1.226 -0.0747  0.2937  0.1149
17096W        W32990  17.011   3.656   3.888  0.1138  0.0387 -0.2088
17097W        W32991  14.268  16.814  13.758 -0.0973 -0.2207 -0.1126
17098W        W32992  12.681   6.047   0.079  0.1685 -0.0504  0.0215
17099W        W32993  16.966   8.449   2.745 -0.3767  0.1860 -0.4247
17100W        W32994   2.124  13.767  12.694  0.2376  0.0039 -0.2215
17101W        W32995   5.671  16.970  10.868  0.0010  0.0644  0.2510
17102W        W32996  18.552   9.324  13.513 -0.1773 -0.1366 -0.1625
17103W        W32997  12.973  10.597   3.814  0.0955 -0.4395  0.0196
17104W        W32998   1.348  13.113   0.370 -0.3642  0.1944  0.1339
17105W        W32999   8.397   2.770   1.770  0.1530 -0.1781  0.0525
17106W        W33000  18.641  12.206  12.180 -0.1430 -0.1273  0.3416
17107W        W33001   0.840  18.121   5.487  0.1742  0.1601  0.1553
17108W        W33002   0.982   8.946  11.915  0.2917  0.2295  0.0880
17109W        W33003  15.895   3.150   3.315  0.2722  0.0987  0.1339
17110W        W33004   9.542  12.819  13.421 -0.0371 -0.1779  0.2264
17111W        W33005   1.905   7.182   0.907  0.2453  0.1717  0.1237
17112W        W33006   5.357   1.327   2.350 -0.3173  0.0972 -0.0055
17113W        W33007  13.766   6.674  12.273 -0.5321  0.0698 -0.2170
17114W        W33008  18.639   7.841   4.933  0.1662  0.3360  0.0700
17115W        W33009  17.110  19.171   2.098  0.1858  0.0327 -0.3132
17116W        W33010  18.752  10.096   4.184  0.2826 -0.3668  0.0303
17117W        W33011   5.023  15.174   4.390  0.0381 -0.0030  0.3334
17118W        W33012  15.179  10.527   3.651  0.1343  0.2023 -0.3601
17119W        W33013  17.939   0.878   4.796  0.0917 -0.0862  0.0277
17120W        W33014   2.516  15.098   3.360 -0.0069  0.0173 -0.1108
17121W        W33015   2.231   0.971  10.668  0.2546  0.0441  0.1325
17122W        W33016  17.140  15.996   5.583 -0.2795 -0.1502 -0.0496
17123W        W33017   3.545  17.390  12.609 -0.0945 -0.1365  0.2596
17124W        W33018   1.684   6.291  14.238 -0.0792 -0.2626  0.0046
17125W        W33019  14.827  15.638  12.488  0.2218  0.1895  0.1089
17126W        W33020   7.397  10.556  11.047 -0.0374  0.2678 -0.0994
17127W        W33021   5.876  16.897  11.268 -0.0161 -0.0036 -0.2043
17128W        W33022   0.602   4.764   5.246 -0.0992  0.1403  0.1070
17129W        W33023   1.478  16.313  12.625  0.0219  0.1495  0.0552
17130W        W33024   1.594  16.474  13.684 -0.4144 -0.0888 -0.1744
17131W        W33025   3.716   1.252  14.640 -0.1638 -0.0639 -0.2537
17132W        W33026   9.753   5.796   5.597 -0.1536  0.0769 -0.0391
17133W        W33027  16.600  12.017  10.371 -0.0459 -0.1248 -0.0897
17134W        W33028   3.457  18.184   3.166  0.1318 -0.2542  0.3526
17135W        W33029   9.257   0.668   4.427 -0.0487 -0.0705  0.0723
17136W        W33030  12.596  10.518  14.458  0.2795  0.0730 -0.0475
17137W        W33031  13.821   0.114   3.539 -0.0360  0.0428 -0.2056
17138W        W33032   2.175  10.626  13.596 -0.0737 -0.3802  0.0081
17139W        W33033   5.018  15.868  14.722  0.0648 -0.0955  0.0748
17140W        W33034  17.037  14.704   1.346  0.1550 -0.2353  0.1941
17141W        W33035  15.503   8.767   2.831  0.3438 -0.1591  0.3202
17142W        W33036  12.275  10.176  14.602 -0.2192  0.1961  0.2007
17143W        W33037   6.519   6.770  10.888 -0.0332  0.0973 -0.0789
17144W        W33038   5.164  15.470   2.602 -0.1693  0.0240 -0.0464
17145W        W33039   7.254   3.437   0.187 -0.0154  0.3072 -0.3108
17146W        W33040  14.655   4.215   1.753  0.1697  0.1714  0.0698
17147W        W33041   9.574  16.239  14.006  0.0765  0.2298 -0.1676
17148W        W33042   8.058  12.853   2.110  0.0402  0.3987 -0.1831
17149W        W33043  13.687   0.366  13.155 -0.1828 -0.4201 -0.1131
17150W        W33044   6.603   4.351   4.519 -0.2366 -0.0994  0.1758
17151W        W33045   5.770   1.860   3.972  0.2599  0.1542 -0.4360
17152W        W33046  11.508   5.800   2.465  0.1059 -0.0383  0.0347
17153W        W33047  10.496   3.085   3.299 -0.0784  0.0799  0.1003
17154W        W33048  12.351  12.490  10.439 -0.1476  0.1795  0.2106
17155W        W33049   8.747   7.332  14.551  0.2219  0.2563 -0.0825
17156W        W33050   0.713  12.807   3.418  0.0357  0.2754 -0.1512
17157W        W33051   6.831  19.169   3.480 -0.2083  0.1487  0.2413
17158W        W33052   7.588   9.314   5.484  0.1411  0.3182  0.1507
17159W        W33053  12.579   5.915   4.138  0.4147  0.0644 -0.0283
17160W        W33054   9.862   5.870  14.239 -0.0229 -0.0058 -0.1228
17161W        W33055   6.443  16.403  14.836 -0.3487  0.1165 -0.0638
17162W        W33056  15.015  10.417   0.506  0.1104  0.0317  0.1361
17163W        W33057   9.815   1.411   2.882  0.2051  0.0228 -0.0019
17164W        W33058   7.712  12.511  14.581 -0.0752  0.0310  0.0283
17165W        W33059   6.652  14.343   3.717 -0.4160  0.4264 -0.0814
17166W        W33060  14.990   7.669   1.550 -0.0140  0.0007  0.0475
17167W        W33061   3.690  16.689  14.977  0.3263  0.1219  0.0215
17168W        W33062   8.431  14.261   2.580 -0.0202 -0.0761  0.4098
17169W        W33063   0.347  10.469   5.241  0.0784  0.0958 -0.1628
17170W        W33064   2.549   3.981   3.528  0.0083  0.0843  0.1561
17171W        W33065   4.292  15.948  11.684 -0.1636  0.0729 -0.1733
17172W        W33066  19.028  18.571   4.543  0.1503 -0.0955  0.0711
17173W        W33067  18.861   4.066  13.882 -0.0934 -0.0075  0.1035
17174W        W33068  11.760   1.722  13.393  0.2654  0.1016 -0.1365
17175W        W33069   6.966   5.983  10.537  0.0040 -0.1421 -0.0978
17176W        W33070  10.236  18.811  14.593  0.2829 -0.1717 -0.2792
17177W        W33071   1.006   3.270  11.616 -0.2986 -0.1151 -0.2246
17178W        W33072   5.586   6.138  11.138  0.0478 -0.0906  0.0810
17179W        W33073  10.073  16.463   1.723  0.4508 -0.3337 -0.1786
17180W        W33074  16.860   5.299  11.350  0.0703  0.0105  0.1535
17181W        W33075  16.616  10.487   2.669  0.4938  0.1788  0.3981
17182W        W33076   3.880   9.677  11.027  0.0820 -0.0557  0.1935
17183W        W33077  16.256   7.922  15.187 -0.1924  0.4587 -0.2119
17184W        W33078  13.951  19.147   4.214 -0.4272  0.1598  0.0876
17185W        W33079   7.680  15.390  14.258  0.1742 -0.3838 -0.0910
17186W        W33080  16.573   8.563  12.448 -0.1270  0.1972  0.0070
17187W        W33081   3.017   1.474   1.792  0.4240 -0.0119  0.1643
17188W        W33082  13.496  14.175  10.281 -0.1974  0.0263 -0.3277
17189W        W33083   0.855  11.904   0.704 -0.0204  0.3878  0.3635
17190W        W33084  15.817  15.692   5.108 -0.2548 -0.1441 -0.2823
17191W        W33085   4.129  15.221  12.837  0.1941  0.0551  0.1181
17192W        W33086   3.571   0.253   3.205 -0.0007 -0.1778  0.0178
17193W        W33087   4.135  13.360  12.688 -0.0812  0.1744  0.3680
17194W        W33088   7.265  13.105  11.177  0.0021 -0.0894 -0.2384
17195W        W33089   9.751   1.658  10.864 -0.0702 -0.1093 -0.1483
17196W        W33090  14.784  18.593   0.367 -0.0513 -0.0321 -0.2859
17197W        W33091   9.147   9.945   0.577 -0.4018 -0.0901  0.0466
17198W        W33092  12.751  15.760  10.526  0.0638 -0.0416  0.1443
17199W        W33093   7.909   3.053   4.363  0.1519 -0.0700 -0.2967
17200W        W33094   7.848  10.348   1.248  0.2495 -0.0979 -0.2395
17201W        W33095   6.615   6.215  14.691  0.0212 -0.1626  0.0445
17202W        W33096   8.853   7.742   4.522  0.0662  0.0312  0.2957
17203W        W33097   9.259   9.692   3.317  0.3257 -0.0615  0.1681
17204W        W33098   7.671  18.357  10.917  0.0200 -0.1089 -0.0139
17205W        W33099  18.419  15.054  14.699  0.1551 -0.1673  0.0223
17206W        W33100  15.186   5.859   5.214  0.1567 -0.0958  0.1353
17207W        W33101  17.494   7.629   1.060  0.0516 -0.0002  0.3066
17208W        W33102   1.009   8.829   2.257 -0.2170  0.0064  0.0949
17209W        W33103  12.955   0.928   1.111  0.2428 -0.1638 -0.0579
17210W        W33104   7.846  11.864   4.656  0.3193  0.2089  0.2014
17211W        W33105   8.393  14.938   2.005 -0.1014 -0.0580  0.2648
17212W        W33106  16.556  16.546  12.773  0.2063  0.0720 -0.0426
17213W        W33107   6.539  11.418  10.805 -0.1226  0.1685 -0.1730
17214W        W33108  15.430   5.564  12.549  0.0839 -0.3287 -0.1338
17215W        W33109   0.699   2.297   3.668 -0.3219 -0.2736 -0.1512
17216W        W33110  19.018  12.959   3.933  0.1549  0.1842 -0.2267
17217W        W33111   1.267  18.032  11.899 -0.0905  0.1860 -0.0787
17218W        W33112  16.480  10.758  10.279  0.0787  0.1065  0.0774
17219W        W33113  11.666   1.368   0.992  0.2781 -0.0079  0.2060
17220W        W33114  16.192  12.962   4.092  0.0949  0.1615  0.0459
17221W        W33115   4.345   2.610   2.938  0.4405 -0.0234  0.0400
17222W        W33116   8.604   3.500  14.800 -0.6064 -0.1709  0.0632
17223W        W33117   9.835   1.472   2.327 -0.0344 -0.1331  0.0697
17224W        W33118   9.501  14.967   3.219  0.0022  0.2101 -0.4234
17225W        W33119   9.454  18.727  13.658  0.1694 -0.0889 -0.2878
17226W        W33120   2.873   8.253   0.166 -0.1709 -0.1323 -0.1289
17227W        W33121  14.176   4.415   0.582  0.2282 -0.3430  0.1494
17228W        W33122   0.362  17.966  12.114 -0.0700  0.3168 -0.2529
17229W        W33123  16.675  12.771  12.425  0.0361  0.2097  0.0221
17230W        W33124   8.813   9.939  13.911  0.0480 -0.2099 -0.3024
17231W        W33125   1.827   8.001   4.163 -0.3742 -0.1698  0.3963
17232W        W33126   2.527   1.646   1.895 -0.1657 -0.0066  0.0670
17233W        W33127  18.949   0.267   0.679  0.0585  0.1522 -0.1688
17234W        W33128   1.212  10.307   0.644 -0.0108  0.1631  0.0446
17235W        W33129   5.277   0.239  11.699 -0.1848 -0.2381 -0.4390
17236W        W33130   6.238  10.257  13.424 -0.3358  0.1175 -0.2540
17237W        W33131   5.167   6.840   1.173 -0.1246  0.1044  0.0944
17238W        W33132   3.364  12.315  13.377 -0.0616  0.2778 -0.3660
17239W        W33133   9.395   7.930   1.310  0.3107 -0.1243 -0.2030
17240W        W33134  10.813  16.112  10.547  0.1355 -0.2421  0.1669
17241W        W33135   3.510  16.873  13.506  0.2406 -0.2321 -0.0547
17242W        W33136   5.150  12.464   6.109  0.0796 -0.0964  0.0782
17243W        W33137  13.543  16.034  15.085 -0.2549 -0.0995  0.2289
17244W        W33138  14.790  17.508   0.481 -0.1468  0.3101  0.3426
17245W        W33139  12.462  15.683  14.372 -0.2133 -0.0076  0.0373
17246W        W33140   1.542  11.156  11.857  0.0486  0.1002 -0.0920
17247W        W33141  15.487  10.772  14.100 -0.0902  0.5968  0.3364
17248W        W33142   1.129   1.324   0.615 -0.1031 -0.3806  0.0744
17249W        W33143  11.737  16.524  13.467  0.1273 -0.2240  0.3696
17250W        W33144  16.791  16.046   1.152  0.0231  0.2051  0.0716
17251W        W33145   9.895  13.350  12.106 -0.2597  0.0045 -0.3067
17252W        W33146   1.478   2.837  12.706  0.2906  0.0747 -0.1401
17253W        W33147  12.920  10.365  11.172  0.0047 -0.1611 -0.0400
17254W        W33148   5.033  17.529  14.399  0.0949 -0.3695 -0.2100
17255W        W33149  17.412  14.886   4.789  0.1498  0.0829  0.3195
17256W        W33150   4.517  18.097   2.640 -0.1261 -0.2858 -0.0048
17257W        W33151   1.131   5.680  14.542  0.1274 -0.1842  0.1221
17258W        W33152   6.466  14.833   0.213  0.1458  0.0941 -0.1936
17259W        W33153  16.278  11.571   0.971 -0.4588 -0.0665 -0.0002
17260W        W33154  16.545  16.967   0.757 -0.1753  0.1889 -0.0938
17261W        W33155   2.167  11.479  12.384 -0.0010  0.0479 -0.0917
17262W        W33156   0.703  15.733  12.225  0.0795  0.2676  0.0265
17263W        W33157   1.656   4.486  12.165  0.2510  0.2010 -0.0097
17264W        W33158   9.013   6.901  12.668 -0.0945  0.0639  0.4430
17265W        W33159   3.483   5.817   4.973  0.0962 -0.1996 -0.0584
17266W        W33160   9.407  16.071  15.060 -0.1757 -0.4040  0.2124
17267W        W33161   2.875   5.332   4.976 -0.4585 -0.0471 -0.5379
17268W        W33162  18.023  18.789  14.306  0.2453  0.0308  0.0494
17269W        W33163   8.140   0.510  10.631  0.2150  0.1365 -0.2185
17270W        W33164  14.602  10.359  13.146  0.2902 -0.1727 -0.0179
17271W        W33165   7.765   7.266  15.010 -0.0937 -0.0655  0.0975
17272W        W33166   0.846  11.404  11.482 -0.2150 -0.1456  0.1765
17273W        W33167  11.737   8.767  13.824 -0.1390 -0.0341 -0.2526
17274W        W33168   1.239   6.191   4.886  0.1449 -0.2663 -0.0060
17275W        W33169   5.738   4.724   0.906 -0.2419  0.0371  0.0179
17276W        W33170   8.067  15.898  14.416  0.1393 -0.0466  0.2114
17277W        W33171   7.419   2.420  11.428 -0.1010  0.1073 -0.0805
17278W        W33172  17.093  10.831   3.457  0.3713 -0.2166 -0.1050
17279W        W33173   6.040  10.882  14.676 -0.1298 -0.1610  0.2119
17280W        W33174   2.213   1.056   0.459  0.1769 -0.0822 -0.1273
17281W        W33175  17.837  13.566   2.320 -0.0382  0.2125  0.3055
17282W        W33176   5.079  16.909   4.327  0.2869  0.2590 -0.0159
17283W        W33177  11.145   4.413   2.667 -0.0093  0.0750 -0.2122
17284W        W33178   7.989   9.021   5.293  0.1736  0.1940  0.1684
17285W        W33179  13.785   6.546   3.725  0.1563 -0.0319  0.1576
17286W        W33180   5.564  10.315   2.233 -0.2224  0.2845  0.2720
17287W        W33181  18.581  18.173   0.853 -0.2224 -0.2599 -0.1220
17288W        W33182   9.773  18.024  12.347  0.2749 -0.2087 -0.0131
17289W        W33183  18.640  10.447   2.604  0.0196 -0.2609  0.0582
17290W        W33184   0.126  14.786  11.080 -0.1264 -0.1233 -0.2512
17291W        W33185   5.867   5.219  10.349  0.0245  0.0597  0.0383
17292W        W33186  12.754   0.709  14.459  0.4653 -0.0478  0.0732
17293W        W33187   6.049   9.272  10.920 -0.3288  0.3245  0.2127
17294W        W33188   2.787   7.387   3.321  0.0535  0.0468  0.2181
17295W        W33189   3.447   4.600   1.299 -0.1106  0.0246 -0.0482
17296W        W33190   0.925   0.076  13.046 -0.2665 -0.1511  0.5106
17297W        W33191  14.778   3.196  12.981  0.2715 -0.0990 -0.1685
17298W        W33192  10.025  12.003  13.415 -0.0586  0.0145 -0.0897
17299W        W33193   4.712  18.094   0.745 -0.0069 -0.0847 -0.2515
17300W        W33194   6.269   3.962   0.038 -0.0414 -0.1037 -0.0210
17301W        W33195  11.420   2.612  14.811 -0.0663  0.0523  0.0243
17302W        W33196   0.728  17.340   2.231 -0.1598 -0.1624 -0.0622
17303W        W33197  14.218   1.008  14.001  0.2602 -0.0520 -0.0450
17304W        W33198   1.672   8.986  13.375  0.2883 -0.1312  0.0194
17305W        W33199   9.416   6.380  13.868  0.0033  0.1778 -0.0194
17306W        W33200  17.603  18.471  14.389 -0.0157  0.4289  0.1276
17307W        W33201   8.750   4.902  13.355 -0.2820  0.3035 -0.0411
17308W        W33202  14.649   8.747   2.633 -0.2830  0.0009  0.0759
17309W        W33203   5.415   7.143  14.760  0.0630 -0.1156 -0.0938
17310W        W33204   6.576  16.547   4.098 -0.2106 -0.1681  0.1815
17311W        W33205   1.142  10.631   3.896 -0.3046  0.1388  0.0062
17312W        W33206   4.787  15.825   2.580  0.2355 -0.0543 -0.0883
17313W        W33207  11.310   2.217  13.648 -0.2754  0.1564 -0.0729
17314W        W33208  10.055  16.461  11.188 -0.0647  0.0221 -0.0278
17315W        W33209  13.286  10.819  12.591 -0.1163 -0.1561 -0.1533
17316W        W33210   3.602  14.502   2.134  0.0659  0.1143  0.5108
17317W        W33211  16.857  13.868   2.692  0.0321 -0.0456  0.1739
17318W        W33212  15.276  10.484  13.735  0.2448 -0.0251 -0.0134
17319W        W33213   2.757  16.798  13.404 -0.1568 -0.1431  0.1399
17320W        W33214   0.639   7.785   0.793 -0.0419  0.0919  0.0482
17321W        W33215  17.203  13.676   4.617 -0.1832 -0.2866 -0.1330
17322W        W33216  17.039  18.622  11.924  0.1644 -0.0781  0.0409
17323W        W33217  18.981   2.198   2.715 -0.2703 -0.1937  0.0363
17324W        W33218   8.522  15.804  12.610 -0.4665  0.2028 -0.0149
17325W        W33219   8.531   9.226   0.362 -0.1609  0.1651 -0.0487
17326W        W33220   5.398   8.174  13.361  0.0315 -0.0099 -0.0781
17327W        W33221  10.287  12.942   2.595  0.2120 -0.0035 -0.2114
17328W        W33222  10.100   4.285  12.801  0.1774  0.0915  0.1141
17329W        W33223   1.992   6.862  13.695  0.3369  0.2394 -0.3316
17330W        W33224   6.948   8.176   0.246  0.2190  0.0968  0.0079
17331W        W33225   3.855   8.914  10.701  0.2622  0.0369 -0.2539
17332W        W33226  14.257  17.573   4.251  0.0656 -0.2005  0.3439
17333W        W33227   6.740  17.829   3.793 -0.0100 -0.2498 -0.1814
17334W        W33228  14.049  14.283   5.142 -0.0116  0.1316  0.1874
17335W        W33229   8.520  11.877   3.072  0.0151 -0.0915 -0.0439
17336W        W33230   5.336   0.539   1.970 -0.1594 -0.2990 -0.2199
17337W        W33231   1.545   8.530   4.050  0.2965 -0.1336 -0.2850
17338W        W33232   6.821  19.022  13.807 -0.2527 -0.0751 -0.0605
17339W        W33233   1.370   9.791   5.751  0.5169 -0.1570 -0.0583
17340W        W33234  16.766   3.736  11.347 -0.1198  0.1360  0.1768
17341W        W33235  14.983   1.035  12.319 -0.2466  0.1573  0.0250
17342W        W33236  15.843   6.021  14.866  0.0734  0.2414 -0.1083
17343W        W33237   4.469   3.777  11.206 -0.1310  0.1577 -0.0131
17344W        W33238   3.204  14.399   2.452 -0.0431 -0.1096 -0.1539
17345W        W33239  11.706  11.247  13.477 -0.0910  0.1371  0.1547
17346W        W33240   6.796  18.250  14.202  0.1088 -0.3401 -0.0452
17347W        W33241   0.829  14.753   1.976 -0.1316 -0.2724 -0.1941
17348W        W33242  13.498   3.947  15.084 -0.2392 -0.0237  0.0147
17349W        W33243  11.641  11.104   4.106 -0.1700 -0.1965 -0.0309
17350W        W33244   5.237   7.005   4.195  0.4708  0.4409  0.3956
17351W        W33245   3.817   8.399   2.254  0.0843  0.2057  0.1180
17352W        W33246  15.800  14.519  11.499  0.0202  0.1004  0.0033
17353W        W33247  14.165  18.705  15.156 -0.0044 -0.1160 -0.0232
17354W        W33248  13.636   8.049   1.150  0.2596 -0.0333  0.1931
17355W        W33249  15.230  17.421  12.625  0.2312  0.0225  0.0827
17356W        W33250   8.364   2.535   3.690  0.1811 -0.1861  0.3876
17357W        W33251   4.515  13.950   0.115 -0.3963  0.0672 -0.2045
17358W        W33252  16.735  10.380  14.037 -0.0717  0.1736 -0.1039
17359W        W33253   4.797   9.651  12.662 -0.1235 -0.1681  0.3628
17360W        W33254  17.393  10.003   3.237 -0.2870  0.3577 -0.0873
17361W        W33255  17.499  12.291   3.371 -0.1923 -0.3097 -0.0042
17362W        W33256  10.164  10.311   3.367  0.2639  0.0946  0.2342
17363W        W33257   6.476   9.198  12.211  0.1170 -0.1825 -0.0911
17364W        W33258   6.745   0.874  11.090 -0.2228 -0.3145 -0.2655
17365W        W33259   9.497  13.434   4.045  0.1985  0.0942 -0.1499
17366W        W33260   1.300   5.612  14.086 -0.0257  0.1199  0.0115
17367W        W33261   3.122   2.282  12.907  0.0378  0.0244  0.0431
17368W        W33262  17.292   1.555   0.423  0.0663 -0.1499 -0.2605
17369W        W33263  11.551   6.039  13.334 -0.1719 -0.1977 -0.0894
17370W        W33264   3.294  10.721  10.338  0.3322  0.0379  0.2992
17371W        W33265  18.468  17.242   1.956  0.4389 -0.1516  0.1473
17372W        W33266   8.796  18.061   0.522  0.1624  0.0250 -0.0497
17373W        W33267   9.098   1.071   5.189 -0.2121 -0.0399  0.1101
17374W        W33268   4.038  11.407  11.312  0.0925 -0.2181 -0.3549
17375W        W33269   3.534   5.080  12.059  0.1782  0.1855  0.0138
17376W        W33270  10.451  16.399   2.627  0.1738  0.1270  0.1692
17377W        W33271   0.509   5.968  11.435  0.2307 -0.0322 -0.2832
17378W        W33272   9.893   8.776   5.679 -0.0165 -0.0308  0.0583
17379W        W33273   8.619   3.959  11.995  0.0120  0.2466 -0.1628
17380W        W33274   6.617  17.056   4.157  0.0027 -0.1927  0.0229
17381W        W33275   1.815  15.677   4.244  0.2732  0.2622 -0.2555
17382W        W33276   4.932   2.315  10.142  0.1007 -0.0102 -0.1072
17383W        W33277   7.342   1.459  14.486  0.1697 -0.1098 -0.3545
17384W        W33278   6.552  12.863  13.960  0.0938  0.1998 -0.0663
17385W        W33279  12.007   3.333  11.333  0.0764  0.3642 -0.2679
17386W        W33280   0.711  16.983  11.365 -0.3346 -0.4804  0.1750
17387W        W33281   8.718   3.874   1.794 -0.0414  0.1475 -0.2280
17388W        W33282  18.626  16.246   3.571 -0.0615 -0.2845 -0.2358
17389W        W33283   9.953  14.132   2.986  0.0357  0.1677  0.0985
17390W        W33284  10.433   6.930   9.500  0.2994  0.0820  0.5075
17391W        W33285   0.731   5.564   5.398  0.1496  0.1346  0.1808
17392W        W33286   2.794  15.191   0.340  0.2956  0.2656  0.2474
17393W        W33287   6.412  11.990   4.813  0.2282  0.2121  0.1598
17394W        W33288  15.662  14.009   2.898  0.2424 -0.1061 -0.3719
17395W        W33289   4.267   5.105  15.164 -0.2873 -0.1877 -0.0708
17396W        W33290  10.153   9.838   0.773 -0.0550 -0.1715 -0.0579
17397W        W33291  17.470  12.286   0.804  0.0466 -0.4146 -0.0382
17398W        W33292   2.016   1.188  12.255  0.3906  0.5355 -0.0420
17399W        W33293  16.691   7.598   4.118  0.2863 -0.1472 -0.5939
17400W        W33294  16.043  17.306  13.955 -0.1664  0.1529  0.4093
17401W        W33295   9.307  10.832   4.022  0.1120  0.1120 -0.2955
17402W        W33296   6.537   2.418  10.533 -0.0486 -0.0393 -0.1424
17403W        W33297   3.849   4.956   4.433 -0.2596  0.0607  0.0054
17404W        W33298   9.548  14.696   9.954  0.0771 -0.0046 -0.0966
17405W        W33299   0.352   9.531  13.083 -0.2450 -0.0382  0.1590
17406W        W33300   1.918  12.959  12.193  0.0771  0.1754  0.0189
17407W        W33301   0.959   6.338   2.863  0.2237 -0.1546 -0.0596
17408W        W33302   6.916  15.866   0.249 -0.0638  0.0211 -0.2089
17409W        W33303   5.831  10.261   2.620 -0.4730 -0.2911  0.2822
17410W        W33304   1.727  16.997   2.360  0.0399  0.1138 -0.0306
17411W        W33305  18.350  11.389   1.951 -0.0090  0.1025 -0.0947
17412W        W33306  18.708  13.614   4.789  0.1713 -0.0941  0.1054
17413W        W33307   0.217   3.542   5.837  0.0669  0.0419 -0.2792
17414W        W33308   6.973  10.496   3.820  0.2116  0.1666  0.2133
17415W        W33309   1.420   7.698  12.832 -0.0445  0.0127  0.1858
17416W        W33310   3.716  16.670   1.987 -0.4482 -0.1682 -0.0848
17417W        W33311  13.787   5.082  14.848 -0.2850  0.1189  0.0088
17418W        W33312   1.723   8.862   0.067  0.2944  0.0694  0.1173
17419W        W33313  11.131  13.913   1.799 -0.4492 -0.1865 -0.0230
17420W        W33314   1.964   5.361   3.241  0.1394  0.0495  0.1448
17421W        W33315   4.220  16.745  15.123  0.0696 -0.1600 -0.2274
17422W        W33316  12.375   7.894   5.846  0.1838  0.1757 -0.0432
17423W        W33317  14.989   4.902   3.480 -0.1613  0.2774  0.0598
17424W        W33318  17.408   1.928   1.191  0.2796 -0.0199  0.0807
17425W        W33319  16.445  14.998   1.974  0.0803  0.1480 -0.3935
17426W        W33320  10.848  18.768   0.915  0.0279 -0.0661  0.1858
17427W        W33321   6.417  11.764   3.548 -0.1313  0.0053  0.0547
17428W        W33322  12.166  10.940   4.100  0.2604 -0.1062 -0.1449
17429W        W33323  17.720  12.248  14.322 -0.2707  0.0693  0.2785
17430W        W33324   8.904  14.401  10.499  0.0088  0.1878 -0.3694
17431W        W33325   5.303  14.398  14.850  0.4967 -0.1277 -0.3738
17432W        W33326   5.826   3.332   4.036  0.1743  0.3114  0.0613
17433W        W33327   0.453  11.496   4.178  0.0322 -0.0035 -0.2223
17434W        W33328   9.765  12.244   4.855 -0.0010 -0.1759 -0.0309
17435W        W33329   2.508  11.674   2.622  0.1668  0.0843 -0.1263
17436W        W33330  18.321   7.648  12.058  0.3613  0.0291 -0.3080
17437W        W33331  15.741  18.991   0.589 -0.2401 -0.2279 -0.2492
17438W        W33332  14.585   3.314   3.378 -0.0492  0.1317 -0.0882
17439W        W33333   1.945   1.558   4.745  0.2270  0.0364  0.3923
17440W        W33334  13.445  10.448  15.020  0.1835  0.0495 -0.1983
17441W        W33335  16.916   0.079  10.843  0.2428 -0.1199  0.1356
17442W        W33336   0.379   3.925   0.113  0.2930 -0.0823 -0.2960
17443W        W33337   0.478  14.036  14.486  0.0450  0.1649 -0.2581
17444W        W33338  13.802  12.335   4.223 -0.1238 -0.1263  0.2052
17445W        W33339   9.935  16.170   2.361  0.2181  0.0290 -0.2574
17446W        W33340   5.817  18.483  11.572 -0.0141  0.0286  0.1362
17447W        W33341  16.950  12.353   3.113 -0.1434  0.1276  0.0936
17448W        W33342   6.991   6.572  12.397  0.2263 -0.1476 -0.1929
17449W        W33343   5.067   5.978   0.352  0.0285 -0.0091 -0.0557
17450W        W33344  17.247  15.925   3.235  0.0922 -0.2673  0.0186
17451W        W33345   1.822   1.825   2.513 -0.2329  0.3525  0.1515
17452W        W33346   6.409  12.066  12.417  0.0203 -0.0169 -0.1127
17453W        W33347   3.371   3.082  11.302 -0.0728  0.3096 -0.0112
17454W        W33348  13.559  18.539  11.729 -0.1810  0.3749  0.1117
17455W        W33349   9.808   1.487   1.721  0.2752 -0.1243 -0.0255
17456W        W33350   0.926   9.037   4.249  0.0514  0.2693 -0.3055
17457W        W33351   1.174   1.988  10.298  0.0843 -0.0544 -0.1392
17458W        W33352  15.053   5.979   0.713  0.3647 -0.0539 -0.0109
17459W        W33353  14.468  12.125  14.061 -0.2888 -0.0087 -0.2444
17460W        W33354   3.326  18.507   4.609  0.1683 -0.0352 -0.0331
17461W        W33355  14.287   4.194  14.804  0.0001  0.1012  0.1003
17462W        W33356   6.491  16.723  13.846  0.1421 -0.1242  0.0089
17463W        W33357  18.454  17.591   4.011 -0.1793 -0.0929 -0.1058
17464W        W33358   8.767   3.669   0.226 -0.3083  0.0158  0.0017
17465W        W33359  17.657  16.265  13.288  0.1364 -0.1698 -0.2866
17466W        W33360  10.314  15.623  14.097 -0.2206  0.0962  0.2008
17467W        W33361  18.430   9.067   0.801 -0.0686  0.0052 -0.2732
17468W        W33362   9.205   5.563  15.153  0.0749 -0.0206  0.0121
17469W        W33363   8.616  19.133  14.688  0.1126  0.1758 -0.1325
17470W        W33364  14.579   9.596  14.409 -0.1796  0.4888 -0.2104
17471W        W33365   5.294   5.549   3.654  0.2522  0.0032  0.0416
17472W        W33366  16.039   1.384  13.129  0.2411 -0.2863  0.1481
17473W        W33367   2.843   1.849   1.026  0.3902  0.1062  0.0818
17474W        W33368   7.824   0.227  11.715  0.0759 -0.2989  0.0128
17475W        W33369  18.362  17.827  13.117  0.0647  0.1802 -0.2814
17476W        W33370  18.328   0.468  11.070  0.0100 -0.0320 -0.1122
17477W        W33371   7.551   0.747  14.382  0.0562  0.1446  0.0562
17478W        W33372  13.067  14.309   4.091 -0.1515 -0.0235  0.2615
17479W        W33373   4.467   8.490  10.606  0.2529 -0.0328 -0.1856
17480W        W33374   8.688  14.935   0.094  0.1020 -0.0571 -0.3351
17481W        W33375  12.584   6.464  14.937 -0.2789 -0.0747 -0.0804
17482W        W33376   4.546  16.358  13.474  0.1290 -0.0795  0.2071
17483W        W33377  16.576  10.972  11.188  0.1583  0.0708  0.1665
17484W        W33378   0.846   2.382  11.077  0.2997 -0.1234 -0.0625
17485W        W33379   0.347   0.859   5.489 -0.1696 -0.3774 -0.0420
17486W        W33380   7.455   9.857  14.606 -0.0762 -0.4353  0.2361
17487W        W33381  17.092   3.766  12.920 -0.4429 -0.0260 -0.1378
17488W        W33382  11.880  12.098   0.021  0.0691  0.1476 -0.1576
17489W        W33383  11.456  10.512   2.672 -0.3728  0.4176  0.4851
17490W        W33384   7.459  13.083  13.768 -0.2590  0.0870 -0.1834
17491W        W33385  10.921  12.578   3.486 -0.1019  0.1974 -0.0905
17492W        W33386  16.350  11.733  12.626 -0.0572  0.0536  0.2797
17493W        W33387  12.559   2.139  12.093 -0.0692 -0.1845 -0.0347
17494W        W33388   2.245   1.958  11.686  0.0064  0.0461 -0.2290
17495W        W33389  16.281   6.154  14.702  0.1676 -0.1425  0.0508
17496W        W33390  18.369   2.793   4.674  0.0116 -0.0214 -0.1004
17497W        W33391  10.327   3.243  14.547  0.0217  0.1958 -0.0303
17498W        W33392  15.361   0.070  10.984 -0.0610 -0.0337 -0.0816
17499W        W33393  14.691   4.507   1.325 -0.0032 -0.1971 -0.1977
17500W        W33394   5.212  11.342   0.915 -0.1805 -0.3003  0.1202
17501W        W33395   4.837   2.441  15.071  0.2339  0.0349 -0.1125
17502W        W33396   0.663   0.284   3.182 -0.0276 -0.0405 -0.0899
17503W        W33397  11.006   7.273   3.197 -0.0080 -0.0708 -0.0659
17504W        W33398  15.633   1.985   5.277 -0.0332  0.2312 -0.1327
17505W        W33399  14.605   8.569  11.339 -0.6437  0.2820 -0.2554
17506W        W33400  17.697  11.277   2.693  0.2876  0.1069 -0.2060
17507W        W33401  15.043  11.024   1.526 -0.1431  0.1047 -0.0264
17508W        W33402   8.820   4.927   1.389 -0.1294 -0.2226  0.0130
17509W        W33403  10.962  10.484   1.177  0.1702  0.1151  0.3094
17510W        W33404  18.791   8.126   1.482 -0.1431  0.1810 -0.1926
17511W        W33405  13.364  11.614  13.119 -0.0595 -0.1663 -0.2656
17512W        W33406   0.658   2.777  14.435  0.3388 -0.1060  0.2301
17513W        W33407   8.214   9.724  10.329  0.0285  0.1727  0.2027
17514W        W33408  12.044   3.711   2.450 -0.1201  0.2006 -0.1962
17515W        W33409   4.281  15.809   2.932  0.3882 -0.0180 -0.3985
17516W        W33410   8.553   3.421  10.967 -0.2593  0.0141  0.1192
17517W        W33411  15.878   4.525   3.510  0.1145 -0.1689  0.1481
17518W        W33412  16.888   7.417  11.812 -0.4542  0.1601  0.2082
17519W        W33413   7.195   8.750  13.433  0.0461  0.0433 -0.1539
17520W        W33414   1.330   9.050  12.834 -0.4244 -0.2471 -0.1703
17521W        W33415  11.702   2.739  12.520  0.1973  0.1843  0.2909
17522W        W33416  18.727   8.345  13.852  0.1257 -0.1390 -0.0021
17523W        W33417   7.340  15.170   4.060  0.1991  0.2955  0.2504
17524W        W33418  10.609   1.934  12.488 -0.0488  0.2568 -0.0915
17525W        W33419  11.396   3.292   1.225 -0.2104  0.3076 -0.1596
17526W        W33420  19.009  18.466  10.966  0.1293  0.1336  0.1702
17527W        W33421   5.659  10.793   5.188 -0.1073  0.5309  0.3785
17528W        W33422  13.526  18.784   4.171  0.0310  0.0709  0.0333
17529W        W33423  18.540  11.132  15.167 -0.0932 -0.0741 -0.2548
17530W        W33424   8.305  16.133   4.633 -0.2111 -0.0317  0.0364
17531W        W33425   6.467   6.530  12.503  0.0352 -0.1828  0.1633
17532W        W33426  18.454  12.311   2.078  0.2440  0.2591  0.1924
17533W        W33427  11.300   3.193  13.601 -0.1430 -0.1229  0.1831
17534W        W33428   5.795  13.602   0.014 -0.0171 -0.1925  0.4364
17535W        W33429   6.882   3.668   1.029  0.3290  0.1358  0.0520
17536W        W33430   7.058  14.464   4.022 -0.2610  0.3313  0.1766
17537W        W33431  18.987   7.999   0.096 -0.3634 -0.0588 -0.1320
17538W        W33432  14.117   3.272   1.063 -0.2309  0.0006  0.0391
17539W        W33433   4.732   7.520  11.507 -0.0807 -0.0852 -0.1935
17540W        W33434  10.567   8.412  11.717 -0.1410 -0.0801  0.2489
17541W        W33435   6.734  10.010   2.943 -0.2137  0.2522 -0.1230
17542W        W33436  11.568   5.651  10.513 -0.1582 -0.2782  0.2181
17543W        W33437  14.375  10.703  12.817 -0.1525  0.0712  0.1079
17544W        W33438  10.578  14.936   5.467 -0.0756  0.2915  0.0900
17545W        W33439  13.426   7.770  12.737 -0.0548  0.0795  0.0691
17546W        W33440  16.936  12.994   2.261  0.3388  0.0331  0.0208
17547W        W33441   3.385   5.472  11.340  0.3637 -0.1606  0.0661
17548W        W33442  10.791   2.772  14.704 -0.0576 -0.0288  0.1434
17549W        W33443   7.093  16.628   0.796 -0.2286  0.0073 -0.0610
17550W        W33444  11.012   5.311   3.052 -0.0871 -0.3540 -0.1692
17551W        W33445  14.756   0.187   5.134 -0.3507  0.1193  0.2247
17552W        W33446   4.057  18.983  14.113 -0.1572  0.1109 -0.2718
17553W        W33447  17.717  11.032   0.114  0.1500 -0.1946 -0.0438
17554W        W33448   2.490   7.827   0.144  0.0168  0.1941  0.1696
17555W        W33449   3.798  18.494   2.888  0.1182 -0.1169 -0.1146
17556W        W33450  15.766   2.403  12.559 -0.0008 -0.1047  0.0423
17557W        W33451   3.669  12.879  12.589 -0.0880 -0.2049 -0.1444
17558W        W33452  12.003   9.773  14.092  0.2388  0.1566 -0.1889
17559W        W33453  15.724   6.723   4.965  0.1413  0.2678  0.2487
17560W        W33454  13.953   7.326   3.183 -0.2515 -0.1920  0.1420
17561W        W33455   2.605  15.275  14.778 -0.4093 -0.0362  0.0654
17562W        W33456  10.219  17.472  11.438  0.2172 -0.3891  0.3469
17563W        W33457  11.595  12.359   4.214 -0.1567  0.1430 -0.0835
17564W        W33458  11.035  10.765   2.756  0.0083 -0.1456 -0.4010
17565W        W33459   1.813   2.390  12.767 -0.0535 -0.2270  0.0522
17566W        W33460  13.641   6.535  15.070  0.5361 -0.0006 -0.1244
17567W        W33461   6.237   2.402  12.091  0.0057 -0.0521  0.2132
17568W        W33462   8.517  19.141  12.168 -0.0757  0.0096 -0.2960
17569W        W33463   9.179   7.567   1.007 -0.0594 -0.4934 -0.1231
17570W        W33464   8.669  14.384   4.156 -0.0370  0.1886 -0.1173
17571W        W33465  18.865  16.347   1.431  0.0244 -0.0528  0.4381
17572W        W33466   3.742   3.434   0.834  0.2005  0.0105 -0.2160
17573W        W33467  16.556   6.566   1.282 -0.3302 -0.0723 -0.4822
17574W        W33468  10.209  12.123  14.257 -0.0766  0.2061 -0.1635
17575W        W33469  18.289   3.649   1.593 -0.0451 -0.0899 -0.1072
17576W        W33470   9.391  11.361   2.284  0.0314 -0.1997 -0.0635
17577W        W33471   0.931   3.573  12.070 -0.0796 -0.0345  0.0795
17578W        W33472   5.820   9.439   2.199 -0.0758  0.1250 -0.7207
17579W        W33473  12.133   3.242  11.896  0.2147  0.1240  0.0307
17580W        W33474  13.145  12.493  10.750  0.0903  0.1960 -0.2385
17581W        W33475  17.489   5.613   3.528  0.2704  0.0696  0.0076
17582W        W33476   2.380   0.641  11.698 -0.0279 -0.2422  0.0341
17583W        W33477   9.211  10.299  11.706  0.3132 -0.2541 -0.1839
17584W        W33478  17.946  10.015   0.078  0.1434  0.1458 -0.1455
17585W        W33479   1.610   3.839   4.761 -0.2973  0.0869  0.1524
17586W        W33480  18.915  10.343  14.658  0.0177 -0.3302 -0.2629
17587W        W33481   3.184  12.728   1.653  0.0070  0.1032  0.0776
17588W        W33482   3.785   9.675   1.522 -0.1017  0.0252 -0.2306
17589W        W33483  18.527  14.460  14.286 -0.1150  0.0163  0.2046
17590W        W33484  17.285   4.100   3.904  0.1329  0.0192 -0.3046
17591W        W33485  10.344  15.822   3.337 -0.1338 -0.2592  0.4432
17592W        W33486  10.158  12.862  10.429 -0.4356  0.0605 -0.0264
17593W        W33487  17.898  18.382  11.371  0.0798  0.0716 -0.1160
17594W        W33488  16.925  17.069   0.381 -0.0351 -0.3467 -0.0502
17595W        W33489  18.061   5.928   6.069  0.0197 -0.1305  0.0553
17596W        W33490   6.132  17.913   9.301 -0.0126 -0.1686  0.0455
17597W        W33491   9.482   3.207   3.748  0.0434 -0.0782 -0.0602
17598W        W33492   9.953  15.112  12.901 -0.3440  0.3959 -0.2417
17599W        W33493  19.067   9.644   5.136  0.1622  0.2929 -0.1832
17600W        W33494   0.528   7.730   3.360 -0.1910 -0.0855 -0.1609
17601W        W33495  15.532  14.086  12.873  0.0396 -0.0202  0.2336
17602W        W33496   2.308   6.385  11.603 -0.1132 -0.2027 -0.4116
17603W        W33497   1.048   9.071   1.642 -0.0388 -0.0886 -0.0196
17604W        W33498   9.755   3.353   4.132 -0.1762 -0.1337  0.2455
17605W        W33499   3.682   8.009   1.925  0.1060 -0.0032  0.0933
17606W        W33500   5.669   5.841   4.893 -0.2249 -0.1137 -0.3062
17607W        W33501   4.285   5.477  10.857  0.1231  0.0229 -0.0574
17608W        W33502   8.694   2.776  10.771 -0.0628 -0.1706  0.0893
17609W        W33503  13.436   1.851  13.709  0.1516 -0.0115  0.1300
17610W        W33504  12.486  10.996   2.481 -0.1680  0.1121 -0.2505
17611W        W33505  14.823  12.810   1.694 -0.1408 -0.1241  0.0846
17612W        W33506   6.517   6.670  11.412 -0.1931  0.4303 -0.2303
17613W        W33507  17.287  17.200   3.336 -0.0515  0.0441  0.0915
17614W        W33508  15.203   7.969   4.255  0.1964  0.1881 -0.1347
17615W        W33509   6.312  13.092  10.263  0.2452 -0.0343 -0.0026
17616W        W33510  11.317   7.108  15.175 -0.1867  0.1375  0.1472
17617W        W33511  14.148  17.661   5.404  0.2763 -0.1547  0.3540
17618W        W33512  14.764  12.633   0.368  0.0100 -0.0100 -0.0788
17619W        W33513  16.377  12.382   1.396 -0.1435  0.2605  0.0648
17620W        W33514  18.004   8.683   3.321 -0.1649  0.3153  0.2154
17621W        W33515   5.489  18.971  13.029  0.0273 -0.3131  0.1669
17622W        W33516  13.788   4.328  12.438  0.2127 -0.2656  0.0291
17623W        W33517   8.690   1.455  12.770 -0.1360  0.2043  0.3353
17624W        W33518  15.333   5.742  12.064 -0.0077 -0.3564 -0.0484
17625W        W33519   7.107   3.999   4.374 -0.0614 -0.2783  0.0600
17626W        W33520   6.712   4.215  15.020 -0.1178  0.1285 -0.1148
17627W        W33521  14.138  15.227   2.350 -0.1352 -0.1167  0.1019
17628W        W33522  19.079   4.911   3.595  0.1902 -0.1159  0.2046
17629W        W33523  15.950   3.873   4.502  0.0090  0.0493  0.3014
17630W        W33524   5.753   2.179   2.432  0.1706  0.2113 -0.2340
17631W        W33525   8.953  10.865  13.993 -0.1449 -0.2168 -0.1651
17632W        W33526  17.681   1.130   3.747  0.2663 -0.0464  0.0398
17633W        W33527  12.615  18.370   2.603 -0.0023 -0.1259 -0.2020
17634W        W33528   0.683  10.613  12.990  0.0081 -0.3243 -0.1446
17635W        W33529  14.478   6.227   4.867  0.1738  0.0866  0.0078
17636W        W33530  16.463  11.503  11.198  0.2030 -0.2922 -0.0053
17637W        W33531   2.204   6.022  10.652 -0.3903  0.1935  0.0517
17638W        W33532  10.655  14.546  14.813  0.3033 -0.3175 -0.1012
17639W        W33533  15.638   1.731   1.061  0.0194 -0.0502  0.2385
17640W        W33534   9.979  17.260   0.314  0.0264 -0.1760  0.0119
17641W        W33535   3.807  10.092  15.174  0.0127  0.1722  0.1111
17642W        W33536   5.382   4.175  11.227  0.0139 -0.0995 -0.1789
17643W        W33537  10.343   6.135   1.532  0.2111  0.2021 -0.4300
17644W        W33538   4.648   3.424   1.090  0.0091  0.0702  0.1301
17645W        W33539  10.485  10.448  10.938  0.2628 -0.0204 -0.0087
17646W        W33540  11.028   8.554   1.293  0.1209 -0.0669  0.0448
17647W        W33541  16.474   1.509   1.088 -0.3329 -0.2045 -0.1123
17648W        W33542  13.600  13.657  13.452  0.1761  0.0681  0.3409
17649W        W33543  14.198  13.185  12.838  0.3376 -0.4705  0.4114
17650W        W33544  10.454  13.604   0.091 -0.0936  0.1189  0.0386
17651W        W33545  10.468   8.510   3.778 -0.0719  0.1813  0.2818
17652W        W33546   8.565   2.963   3.915 -0.1056 -0.1822  0.0471
17653W        W33547   5.341  11.890  13.898 -0.1793 -0.0502 -0.1295
17654W        W33548  15.359  17.029   0.047 -0.1697  0.3551  0.3689
17655W        W33549  17.388  12.377   2.898 -0.0324 -0.1282  0.0554
17656W        W33550   8.440  15.720   2.439  0.1587 -0.1654 -0.0619
17657W        W33551   8.472   3.907   4.224 -0.0506  0.2934  0.1508
17658W        W33552  14.489   6.767   0.416 -0.1323  0.0159 -0.2913
17659W        W33553   8.887  18.036  14.211  0.1113 -0.0850 -0.0388
17660W        W33554  14.362   8.452   9.699 -0.0031 -0.1212  0.0746
17661W        W33555  17.945   5.005   0.948  0.2008  0.0052  0.2232
17662W        W33556   7.771  14.108   2.919 -0.1042 -0.0681 -0.1630
17663W        W33557   9.332   6.096   1.976 -0.1578 -0.3419  0.2751
17664W        W33558   5.476   4.607   5.522 -0.0304 -0.2666 -0.2551
17665W        W33559   8.125  18.646   3.742 -0.0038 -0.1950  0.1806
17666W        W33560  10.717   7.805   4.454  0.0930 -0.0258  0.1014
17667W        W33561  11.678  18.751   0.987  0.0713 -0.0170 -0.0313
17668W        W33562  18.243  17.655  11.356 -0.1535 -0.3797  0.3878
17669W        W33563   0.923  11.416   4.132  0.2563 -0.1423  0.2049
17670W        W33564   1.300  10.374  14.357  0.0559 -0.1554  0.2428
17671W        W33565  16.521  16.036  12.795 -0.3345 -0.0964  0.2194
17672W        W33566   8.298   1.331  12.506 -0.0287  0.2956 -0.3403
17673W        W33567  10.311  16.264  12.453 -0.1388 -0.2556  0.0580
17674W        W33568  16.011   1.397  14.092 -0.4523  0.2757  0.0131
17675W        W33569   8.878  18.631  10.965  0.1849 -0.0263 -0.2958
17676W        W33570   3.822   4.483   3.418 -0.4120 -0.3061  0.0330
17677W        W33571   7.932   3.234  11.863  0.2161  0.0399 -0.0152
17678W        W33572  15.938   1.543   3.646  0.0424  0.3390 -0.1082
17679W        W33573   1.971   8.881  13.008 -0.1085  0.1048  0.1938
17680W        W33574  11.750   9.881  12.601 -0.3139 -0.2560  0.1076
17681W        W33575   8.170   4.591  14.443  0.0632  0.0164  0.1695
17682W        W33576   0.062   6.471  13.466  0.0195 -0.0459  0.0312
17683W        W33577   2.067  18.549   0.617 -0.0670 -0.1453  0.3998
17684W        W33578   6.409   0.838   3.045  0.1942 -0.0356 -0.0773
17685W        W33579   3.065  14.916   3.431 -0.0363 -0.2339  0.0349
17686W        W33580  15.276   3.820   5.114  0.0787 -0.0605 -0.1859
17687W        W33581  11.925  15.131   1.356 -0.1523  0.0642 -0.1371
17688W        W33582   6.799  11.035   1.949  0.0898 -0.0068  0.3415
17689W        W33583   5.093   3.068   1.012  0.1029  0.0150 -0.1212
17690W        W33584   5.331   1.538  11.980 -0.0747 -0.2631  0.1249
17691W        W33585  16.372  14.436  10.669 -0.0297 -0.0768  0.1623
17692W        W33586  12.674   3.573  13.790 -0.1789  0.2605 -0.0636
17693W        W33587  11.898   6.706   1.585  0.2330 -0.2759 -0.0726
17694W        W33588   5.124   3.584   1.226  0.2025  0.0992  0.0009
17695W        W33589  15.617  14.456  12.505  0.0815  0.0916 -0.1642
17696W        W33590  14.950   5.549  13.509 -0.0047 -0.1860 -0.1604
17697W        W33591  13.199  17.059   4.112  0.1878 -0.2377  0.1484
17698W        W33592  14.242  13.093  10.952  0.4508  0.0257 -0.2208
17699W        W33593   1.236   0.345   3.664 -0.0008  0.1718 -0.1811
17700W        W33594   8.531  11.747   1.152  0.1357  0.5158  0.3598
17701W        W33595  10.573   0.445  13.752  0.0970  0.1933 -0.1936
17702W        W33596  18.754   3.556   1.528  0.1360 -0.0519  0.2003
17703W        W33597   7.307  12.495   1.904  0.0835 -0.1707 -0.1623
17704W        W33598  11.667  11.713   2.462 -0.2612  0.1146 -0.0622
17705W        W33599  16.498   0.499  12.698  0.0815 -0.1866 -0.1974
17706W        W33600  12.615  19.010  14.681  0.1855 -0.0284 -0.0842
17707W        W33601  18.868   0.584   4.684 -0.0588 -0.1421 -0.1787
17708W        W33602   8.761  16.275  10.547 -0.0969  0.0759 -0.3674
17709W        W33603  16.283   3.186  13.516  0.0856 -0.0719  0.1174
17710W        W33604   9.186  15.000   2.609 -0.1807 -0.1270 -0.0931
17711W        W33605  13.845   5.441   3.052  0.3347 -0.1845  0.1992
17712W        W33606  13.111  10.478  14.590 -0.1089 -0.0574 -0.1608
17713W        W33607   4.166   3.842  11.573 -0.2531 -0.0686 -0.0497
17714W        W33608  12.014  18.087   4.585  0.0009  0.2598 -0.1505
17715W        W33609   4.400  12.926   4.913 -0.0811  0.1337 -0.2666
17716W        W33610   3.303  13.140  14.419  0.0195  0.4341 -0.0851
17717W        W33611   2.614   4.768   4.513  0.0490 -0.0634 -0.3723
17718W        W33612  10.354  11.494   3.034 -0.0596  0.2698  0.2009
17719W        W33613  17.747  17.714  12.834  0.0703 -0.0289 -0.1456
17720W        W33614  19.130  18.493   5.422  0.1453  0.1874  0.1270
17721W        W33615   4.547   2.018  10.366 -0.1518 -0.1224  0.0152
17722W        W33616   4.620   1.737  13.748 -0.1545  0.0786 -0.0334
17723W        W33617  16.461   3.343  11.053 -0.2373  0.1571  0.0832
17724W        W33618  14.760   0.168  10.941 -0.0729  0.4186  0.3111
17725W        W33619  12.539   1.850  10.890 -0.0055 -0.2242 -0.0563
17726W        W33620   7.382   6.788  13.986  0.0219 -0.1044  0.1933
17727W        W33621   3.029  17.407  11.684  0.3843  0.2250 -0.2142
17728W        W33622  12.798  17.003   1.517  0.3283 -0.0513  0.1481
17729W        W33623  14.026   0.071   0.416  0.1910  0.1410  0.0598
17730W        W33624   9.138   2.076  13.593 -0.0014  0.1285 -0.2192
17731W        W33625   5.085   9.340  13.891 -0.1691  0.3331 -0.5149
17732W        W33626  11.204   7.207   5.482 -0.1080 -0.0947 -0.1460
17733W        W33627  18.657  12.825   1.517  0.1704  0.0495  0.0994
17734W        W33628  16.557   1.316  13.840 -0.1320 -0.2544  0.0433
17735W        W33629  13.236  15.705  11.403  0.2048 -0.2643 -0.0725
17736W        W33630  10.438   0.462  12.810 -0.1383  0.2440  0.4163
17737W        W33631   8.184   0.947   2.072 -0.0982 -0.1105 -0.0937
17738W        W33632   1.351   6.454  15.049  0.2401  0.0524 -0.1028
17739W        W33633   4.095  14.779  13.003  0.1193  0.1027  0.2962
17740W        W33634   8.649   9.222  11.894 -0.2956  0.1582  0.2507
17741W        W33635  17.893   7.938   1.180  0.5334  0.1847  0.3627
17742W        W33636   7.579  18.352  14.291  0.2214 -0.2038  0.2004
17743W        W33637   3.096  10.339   0.095  0.1628 -0.1529 -0.1731
17744W        W33638   8.172  13.670  14.325  0.2096 -0.0295  0.1591
17745W        W33639   8.096  16.985   0.843 -0.1501  0.1692 -0.2477
17746W        W33640   5.067   8.446  11.145  0.1368  0.0767  0.1766
17747W        W33641   0.980   1.864  12.914  0.2022  0.1665  0.3542
17748W        W33642  17.726   7.345   5.055 -0.1084  0.0581  0.2771
17749W        W33643   8.481   5.199   3.373 -0.1455 -0.2200  0.1068
17750W        W33644  11.713   4.937  14.083  0.3072  0.2502 -0.0489
17751W        W33645   0.442   4.499  15.181  0.1130 -0.1982 -0.0940
17752W        W33646  13.519   1.627  13.260 -0.3037  0.0383 -0.0042
17753W        W33647  13.206  11.902   0.141 -0.1009  0.0331  0.0983
17754W        W33648   3.459   9.328  12.383  0.0732 -0.0317 -0.1443
17755W        W33649   8.921   5.466   1.328 -0.0567 -0.1296  0.0180
17756W        W33650   3.500   9.726   2.498 -0.0564  0.3998 -0.4578
17757W        W33651  13.143   8.197  12.784  0.2264 -0.0314  0.3381
17758W        W33652  12.984   3.286  11.715  0.0313 -0.2749 -0.0913
17759W        W33653   4.280  12.031  13.911 -0.0089  0.2414 -0.0169
17760W        W33654   3.000   4.073   0.062  0.2951  0.0228 -0.0090
17761W        W33655   8.890   9.093   2.314  0.1011 -0.1334  0.2074
17762W        W33656  13.616  15.140  14.721 -0.1369  0.3231  0.3815
17763W        W33657  14.560   6.993  10.951 -0.2428 -0.0205 -0.2700
17764W        W33658   7.083   9.244  12.250  0.1381 -0.0182 -0.3092
17765W        W33659  11.320  12.468   0.916  0.3611 -0.1181  0.0325
17766W        W33660  11.187  18.689   3.203  0.2989  0.1785  0.1018
17767W        W33661   4.567  17.359  14.531 -0.2104  0.1349 -0.1605
17768W        W33662   4.484  18.168  10.175  0.1049  0.3085 -0.0862
17769W        W33663  10.404   7.730   2.158  0.2652  0.0123 -0.2584
17770W        W33664  11.887   8.733  13.306  0.0792 -0.2444 -0.0314
17771W        W33665   3.062  13.982  12.703 -0.0294  0.1666  0.2024
17772W        W33666   6.292  15.989  11.364 -0.0007  0.0348 -0.0587
17773W        W33667  13.420  17.015   4.669 -0.0737  0.3095  0.1663
17774W        W33668   0.801   8.227   4.498 -0.0209  0.2168  0.1870
17775W        W33669  16.057  11.989   4.047 -0.0560 -0.0374  0.1385
17776W        W33670  11.093   0.988  11.086  0.1331 -0.1280 -0.3021
17777W        W33671   3.416  10.390   3.700 -0.2717  0.1191 -0.0624
17778W        W33672   1.717  14.221  13.067  0.0068 -0.0320  0.0795
17779W        W33673  14.902   4.828  13.932  0.1888  0.2133  0.2184
17780W        W33674   7.531  17.347   4.322 -0.2529 -0.3642 -0.1501
17781W        W33675   0.051   0.356  12.622 -0.1545  0.3060  0.1205
17782W        W33676   8.307   2.776   5.208  0.0583  0.1710 -0.0192
17783W        W33677   5.569  10.024  14.494 -0.1803 -0.0239  0.1285
17784W        W33678  15.646  17.026  14.281 -0.0755 -0.0419 -0.1975
17785W        W33679   6.660   4.505  10.873  0.1768  0.0457  0.2705
17786W        W33680  16.785  16.180   5.265  0.1007 -0.0457 -0.1691
17787W        W33681   7.018  14.636  13.218 -0.2337 -0.5047  0.2047
17788W        W33682  11.661   8.452   0.123 -0.1193 -0.1014 -0.0977
17789W        W33683  16.478   0.156  14.780  0.1638  0.3469 -0.0616
17790W        W33684  17.523  16.709  13.620  0.2641  0.2182  0.1671
17791W        W33685  11.091   0.076   0.761 -0.0751 -0.3775 -0.0028
17792W        W33686   5.256   2.767   3.977 -0.2767 -0.0933 -0.1415
17793W        W33687   3.066   7.447  10.991 -0.2261  0.1001 -0.2135
17794W        W33688   4.498  14.270   5.123 -0.0623 -0.0790 -0.1208
17795W        W33689  17.403  12.717   3.875  0.2305  0.2861  0.0574
17796W        W33690   1.392   4.659   4.915  0.0111  0.0867  0.5048
17797W        W33691  14.849   7.238   4.690 -0.0403  0.0259  0.3688
17798W        W33692  15.521  13.419  13.683  0.3933  0.0117 -0.1246
17799W        W33693  14.991  18.908  10.992 -0.1210  0.1356  0.0993
17800W        W33694  15.572  10.537  11.698  0.1710  0.2406  0.1545
17801W        W33695   7.755   4.535   3.819 -0.1899 -0.0630 -0.0452
17802W        W33696  12.227   9.862  11.062 -0.2020  0.1597 -0.2955
17803W        W33697  14.825  12.659  12.907  0.0923  0.0676  0.1337
17804W        W33698  10.906   8.666   3.600 -0.2746  0.0853 -0.1856
17805W        W33699  17.337  10.548   1.571 -0.1462  0.2323  0.1319
17806W        W33700  11.145  11.208   1.320  0.0908 -0.4604  0.0848
17807W        W33701  14.578   2.746  12.093 -0.0199  0.3527 -0.0439
17808W        W33702   5.802  17.976  14.759 -0.2510  0.1369  0.0549
17809W        W33703   9.885  16.848   1.420  0.2145  0.2773  0.3205
17810W        W33704   8.864   3.443   3.086 -0.1803 -0.1894 -0.0045
17811W        W33705   0.747  11.567   4.643  0.0973 -0.2255  0.1408
17812W        W33706   8.057  10.201   3.524 -0.1446  0.2243 -0.2263
17813W        W33707  16.660  19.099   0.507 -0.0026 -0.0028  0.2905
17814W        W33708  14.378  11.176   2.099 -0.0097  0.0756 -0.1621
17815W        W33709   0.423  11.944  13.340  0.0972  0.3009 -0.1520
17816W        W33710  11.400  14.676   1.338  0.0041  0.1523  0.5068
17817W        W33711   3.106  17.898  14.188  0.2039  0.0226 -0.2836
17818W        W33712   4.888   0.657  12.503  0.1618  0.0202  0.1767
17819W        W33713   3.442  16.936   1.679 -0.2594  0.1519 -0.2625
17820W        W33714  15.676  18.747  14.504 -0.1625 -0.1600  0.3661
17821W        W33715   1.911  16.175  12.084  0.2835  0.1561  0.1359
17822W        W33716  14.026   6.829  13.944  0.2120 -0.2539  0.0116
17823W        W33717   3.950   5.748  11.516 -0.3019 -0.0541  0.2997
17824W        W33718   0.088  10.010  12.383 -0.2095  0.2028  0.1265
17825W        W33719   6.062   2.130  11.118 -0.1812  0.2627  0.0376
17826W        W33720   1.845   9.838  13.162 -0.3451 -0.2437  0.0336
17827W        W33721  12.862  12.641  14.994 -0.4144 -0.1309 -0.0280
17828W        W33722   6.574   9.560  14.601 -0.3840 -0.0749  0.0601
17829W        W33723   4.512   2.990   3.813  0.1241 -0.2589 -0.0016
17830W        W33724  13.255   8.432  10.905 -0.3310 -0.2973  0.0595
17831W        W33725  12.847   0.239  12.436  0.4301 -0.0301 -0.2094
17832W        W33726  12.324  15.641   4.752  0.0135 -0.1358  0.1079
17833W        W33727  17.937  13.969  10.932  0.0991 -0.0762  0.1322
17834W        W33728  13.300  12.751   5.410  0.1270  0.1174  0.0257
17835W        W33729   3.088  14.264  12.329  0.0574 -0.0539  0.3197
17836W        W33730  14.640   1.094   5.026  0.1021 -0.0368 -0.2398
17837W        W33731  14.679   2.169  13.017  0.1076  0.2623  0.1364
17838W        W33732  11.797  16.955   5.037 -0.1363 -0.1466  0.0576
17839W        W33733  16.677   0.622  11.464  0.1373 -0.2057 -0.3499
17840W        W33734  15.187   0.397   5.321 -0.1541 -0.0162  0.1323
17841W        W33735  15.220   3.443   3.361 -0.2184 -0.1009 -0.4175
17842W        W33736   1.968  13.795  11.702  0.1789 -0.0159 -0.0507
17843W        W33737   6.355   3.515   3.604  0.2734 -0.1966  0.2728
17844W        W33738   6.622  18.981  13.009  0.1186 -0.1367  0.1317
17845W        W33739  11.086   7.977  14.742  0.0296  0.0205  0.1346
17846W        W33740  13.969  15.084  12.399 -0.3898 -0.4388 -0.0496
17847W        W33741  11.790   7.131   0.223  0.3200 -0.1294 -0.0765
17848W        W33742  13.876   9.026  13.184  0.3103 -0.1229 -0.1999
17849W        W33743   1.032   5.311  11.145 -0.1751  0.0350  0.3524
17850W        W33744   0.369   3.498  15.008 -0.1160  0.5007  0.0748
17851W        W33745  12.632  17.964  12.876  0.1488  0.0768 -0.1298
17852W        W33746  11.268   3.092  14.589 -0.1711  0.2422 -0.3198
17853W        W33747   1.863   0.042  11.830  0.0818 -0.0345  0.1679
17854W        W33748  17.658   0.040   1.596  0.2251 -0.4395 -0.0202
17855W        W33749   9.911  16.979  10.083 -0.0033 -0.0741 -0.1649
17856W        W33750   5.301  11.720   1.884 -0.5694 -0.0120 -0.1743
17857W        W33751  18.996   1.496   4.999 -0.0517 -0.1202  0.0382
17858W        W33752  10.629  15.823  12.374 -0.3558  0.0149  0.0089
17859W        W33753  10.052   6.201  12.950  0.1719  0.2527 -0.0390
17860W        W33754  12.170  14.667  11.275  0.0680 -0.0320 -0.0079
17861W        W33755   6.599  13.427  14.886  0.0861 -0.2186 -0.0342
17862W        W33756   1.161  16.098  11.332  0.1568 -0.0685  0.1724
17863W        W33757  11.203  18.674  11.047 -0.0127 -0.1914  0.0247
17864W        W33758   8.168  12.713  10.677  0.0875  0.3215  0.0385
17865W        W33759   1.296   2.740  11.321  0.1766  0.2038  0.0211
17866W        W33760  17.553   3.589  11.935  0.0173  0.2722  0.1938
17867W        W33761   9.833  18.409  14.879 -0.0735 -0.0511  0.1841
17868W        W33762  16.924  18.886  13.215 -0.1014 -0.1040  0.4452
17869W        W33763   5.735   5.693   4.083  0.2885  0.0087  0.1948
17870W        W33764   1.767  10.554   4.597 -0.0412  0.1843 -0.2428
17871W        W33765  11.004  18.119   0.147 -0.3023 -0.1568  0.0622
17872W        W33766  17.997  16.022   0.162 -0.3036 -0.0458  0.1249
17873W        W33767   8.356   0.472   3.643 -0.2925 -0.2329 -0.3561
17874W        W33768   2.944  12.679   4.113  0.1087 -0.0578 -0.2357
17875W        W33769   5.098   3.338  14.829 -0.0384  0.1148 -0.0969
17876W        W33770   9.757   5.471  14.497  0.1328 -0.1668  0.0218
17877W        W33771  10.958  14.780  11.691  0.1693 -0.1475 -0.1156
17878W        W33772  10.350  16.144   0.147 -0.0389  0.1021 -0.1197
17879W        W33773  11.476  17.206   4.581  0.4044  0.0978  0.0575
17880W        W33774   6.482  12.825  12.870  0.1889 -0.1825 -0.0251
17881W        W33775  11.826  14.972   2.118 -0.0675 -0.1087 -0.1668
17882W        W33776   4.134   7.906   3.188 -0.0126  0.1047 -0.1583
17883W        W33777   7.938  11.846   0.223 -0.0550  0.1484  0.3054
17884W        W33778  15.022   8.987   2.915  0.3589  0.3091 -0.2187
17885W        W33779   3.902  17.330  14.357 -0.3120 -0.1739  0.1692
17886W        W33780   1.546  12.343   2.453  0.0090  0.1650  0.2607
17887W        W33781   5.003   2.706  10.860 -0.1665  0.1339 -0.0133
17888W        W33782  14.814  15.964   2.852  0.0155 -0.1382 -0.1553
17889W        W33783  17.034  13.125  10.688  0.0269  0.1467 -0.1456
17890W        W33784   9.170  12.123  14.427  0.0406 -0.2497  0.1318
17891W        W33785  10.478  16.129  11.956 -0.1497 -0.2391  0.1364
17892W        W33786   1.544   9.622   0.326 -0.0664 -0.1024  0.1292
17893W        W33787   5.156  10.240   1.984 -0.0515 -0.3183 -0.0349
17894W        W33788  12.628  15.065   0.740  0.2419 -0.0409 -0.2524
17895W        W33789   6.733  13.582  12.367  0.2321 -0.1631 -0.0558
17896W        W33790  17.924   9.955   2.516 -0.0435 -0.2765  0.2720
17897W        W33791   0.161  17.320   4.703  0.0041  0.1826  0.4035
17898W        W33792  16.554  15.734   0.838 -0.0476  0.1532  0.2528
17899W        W33793   6.961  17.904   0.444 -0.0397 -0.2251  0.3088
17900W        W33794   7.940  17.266   0.525  0.0818  0.0104  0.0269
17901W        W33795  14.334  15.003  14.095 -0.0702  0.0578 -0.1985
17902W        W33796   8.353  18.630  10.599 -0.0304 -0.0851 -0.0055
17903W        W33797   6.293  12.364  12.824  0.0542  0.0751 -0.1683
17904W        W33798  13.214  13.213  14.413 -0.3866 -0.0166  0.1000
17905W        W33799   5.960   5.139  11.242 -0.1300 -0.0984 -0.2380
17906W        W33800   9.370  10.320  10.489 -0.0127  0.0861  0.0087
17907W        W33801   3.473   9.335  10.953  0.2434 -0.1585  0.0115
17908W        W33802  13.523   1.485  14.757  0.0742 -0.1631 -0.0724
17909W        W33803   0.409   9.484   2.598  0.2698 -0.1428 -0.0837
17910W        W33804   6.158   9.655  11.317  0.3191  0.0773 -0.1559
17911W        W33805  13.031  13.866  11.054  0.0596 -0.0776  0.2168
17912W        W33806  17.005   3.072   3.843 -0.0097  0.0872 -0.0019
17913W        W33807  14.933   9.758   1.324 -0.2048  0.4003 -0.2265
17914W        W33808  10.611  11.168  11.127 -0.1330 -0.1068  0.0284
17915W        W33809  18.250   1.678  13.051  0.3708 -0.0997 -0.0354
17916W        W33810   8.510   4.032  13.668 -0.2881 -0.2854 -0.3260
17917W        W33811   6.476   2.679  14.374  0.0380  0.0286 -0.3236
17918W        W33812  10.407  11.913  10.491 -0.3732 -0.2726  0.1546
17919W        W33813   1.159   1.410  12.776 -0.1760  0.0924  0.1345
17920W        W33814   2.859  12.218   6.093  0.0509 -0.0443 -0.6475
17921W        W33815   1.732   7.062  10.878 -0.2114  0.0194 -0.3135
17922W        W33816   2.586  10.741  13.227 -0.3431  0.0250  0.1787
17923W        W33817  10.252   1.193  14.192  0.2498  0.1476  0.1227
17924W        W33818   8.492  11.552   9.887 -0.3593  0.1397 -0.1049
17925W        W33819  14.199   3.005   5.173 -0.2172 -0.2231 -0.0848
17926W        W33820  15.344   1.834  12.747  0.0937  0.0701  0.1317
17927W        W33821   0.091  15.126   3.573 -0.0166  0.1506 -0.1337
17928W        W33822  15.795  17.118  12.914 -0.0242  0.1323 -0.3419
17929W        W33823  15.110  14.805  14.392  0.0253 -0.1341  0.5297
17930W        W33824   1.960  10.018  12.314  0.0694  0.1774  0.1646
17931W        W33825   5.064  12.159   0.062  0.1576 -0.4429 -0.2202
17932W        W33826   8.141   7.782  11.635 -0.0027 -0.1385 -0.2901
17933W        W33827   3.931  17.707  10.739  0.1547 -0.1106 -0.4443
17934W        W33828  18.740   4.540   0.129  0.0604  0.1157  0.1964
17935W        W33829   1.519  17.971   2.335 -0.1449  0.0374  0.0957
17936W        W33830  10.703  15.169   1.076 -0.0723 -0.4136 -0.2298
17937W        W33831   0.874   1.886   0.848  0.0663  0.3140 -0.2698
17938W        W33832   3.937   4.727  15.097 -0.0659 -0.2088 -0.0263
17939W        W33833   4.079  18.146  10.973  0.1406 -0.0357  0.0484
17940W        W33834   8.635  16.431  11.921  0.0284 -0.0851 -0.2630
17941W        W33835   1.263   7.148  15.074  0.0825 -0.2588  0.0682
17942W        W33836   2.780   9.595   4.599 -0.0512 -0.0143 -0.0140
17943W        W33837   8.570  11.212   4.582  0.0043 -0.0225  0.3347
17944W        W33838   8.184  19.146   2.026 -0.1535  0.0819  0.0242
17945W        W33839   7.252   1.958   1.528 -0.1861 -0.1628 -0.1999
17946W        W33840   7.683   2.039   3.008 -0.2357 -0.0411  0.0975
17947W        W33841   7.443  10.385   2.376  0.0726  0.0288 -0.4663
17948W        W33842   2.313  18.503   1.539 -0.0327  0.0676 -0.0459
17949W        W33843   5.336   8.872  12.880 -0.1547 -0.1162  0.1597
17950W        W33844  10.250  18.905  13.288 -0.0949 -0.0480  0.0317
17951W        W33845   2.924  15.343   3.215 -0.4236 -0.0656  0.0231
17952W        W33846  12.881  12.504  12.224 -0.0134 -0.2181  0.1105
17953W        W33847   5.364   7.607   2.401  0.0847  0.0955  0.1844
17954W        W33848  17.515  16.492  10.640 -0.0865 -0.1650 -0.2071
17955W        W33849   5.529   9.111  12.450  0.1546  0.1988  0.0386
17956W        W33850  15.641   9.144   1.019 -0.0102  0.0104 -0.1029
17957W        W33851  11.953  13.809   4.493 -0.0334 -0.1345  0.1207
17958W        W33852  11.352   6.782  12.866  0.3766  0.0335 -0.1729
17959W        W33853   9.625   8.894  11.453 -0.1706  0.1761  0.2779
17960W        W33854   5.055  14.400   4.403 -0.1497 -0.0157  0.0398
17961W        W33855   7.021  16.815  10.711 -0.0041  0.2008 -0.1813
17962W        W33856   9.135  13.470   1.607 -0.0450 -0.1146  0.2180
17963W        W33857  17.378   1.362   3.427  0.2932 -0.2323  0.0247
17964W        W33858  12.106  15.341   2.375 -0.2336  0.0273  0.4371
17965W        W33859   3.108  18.888  10.365 -0.0219 -0.0860  0.4115
17966W        W33860   6.884  12.604  14.271  0.0394 -0.0063  0.0671
17967W        W33861  13.960  12.475  14.886 -0.1857 -0.1104  0.2773
17968W        W33862  14.705   8.102  11.976 -0.1321 -0.0036  0.1867
17969W        W33863  12.859   4.063   5.196  0.0345 -0.3315  0.3089
17970W        W33864   7.228   9.193  14.421 -0.2048 -0.1407  0.0813
17971W        W33865   9.211   6.791  10.285  0.1095  0.0564 -0.1548
17972W        W33866  10.766  12.225  13.010  0.0554  0.0769 -0.1092
17973W        W33867  12.117   2.608  10.079 -0.0845  0.1615 -0.2196
17974W        W33868   6.628  19.083   4.679  0.0411 -0.1986 -0.1351
17975W        W33869   5.520   7.404  12.137  0.0776  0.1717  0.1487
17976W        W33870  13.483  16.938  14.608 -0.4273  0.0577 -0.0221
17977W        W33871   5.581   6.581   3.813 -0.2775  0.2106 -0.0954
17978W        W33872  18.293  14.931  13.117 -0.1709  0.0428 -0.0466
17979W        W33873  16.439   5.930   3.526  0.2842 -0.1478 -0.0189
17980W        W33874   9.582   1.922   1.760 -0.0738 -0.1055 -0.1466
17981W        W33875   4.025  15.476  14.982  0.1415  0.1112  0.0039
17982W        W33876   0.853  16.754  14.156  0.0296  0.1498 -0.2281
17983W        W33877   4.949   4.983   1.785 -0.0298 -0.0915 -0.0800
17984W        W33878   7.867  17.052  10.926  0.0425 -0.5628 -0.1057
17985W        W33879  18.992   3.015  15.172 -0.1759 -0.0679  0.5058
17986W        W33880   0.050  16.295  14.674  0.1123  0.0592  0.0122
17987W        W33881   7.374   2.264   4.061 -0.1070 -0.0098  0.2694
17988W        W33882   8.506   9.804   3.309 -0.0297  0.2992  0.2647
17989W        W33883  19.004   4.716   2.926 -0.0864 -0.2228 -0.3147
17990W        W33884   9.628  12.145  11.542 -0.3245  0.2297 -0.0438
17991W        W33885   9.143   9.346  13.083 -0.1601 -0.2265 -0.0655
17992W        W33886   5.942   4.568   2.934 -0.0480 -0.1602 -0.0907
17993W        W33887  16.234  15.102   4.388  0.2900  0.1705  0.1178
17994W        W33888   1.278   0.458   2.823  0.2871  0.1720 -0.2700
17995W        W33889   6.760   1.133   3.082 -0.1021  0.5162 -0.1816
17996W        W33890  14.940   6.130   2.998 -0.0127 -0.2436  0.0405
17997W        W33891   6.111  18.227  11.865  0.0408  0.0986 -0.1795
17998W        W33892  18.039  13.372   1.916 -0.1819  0.2793 -0.0455
17999W        W33893  12.389   8.513   5.102  0.0182  0.2481  0.0319
18000W        W33894   9.111  14.213   4.167 -0.0744  0.0343 -0.0259
18001W        W33895  14.966  18.285   5.312  0.0550  0.0268  0.0358
18002W        W33896  18.984  17.256   4.344  0.0702 -0.4700 -0.0859
18003W        W33897   6.611   5.565   2.469 -0.2365 -0.0779  0.0642
18004W        W33898  18.631   5.759  14.975 -0.1599 -0.1343  0.2410
18005W        W33899  16.950   3.879  13.454  0.2759 -0.2095 -0.1263
18006W        W33900  15.894   6.442  12.229 -0.0110 -0.1527 -0.0845
18007W        W33901   1.965   9.359   0.327  0.1532  0.2194 -0.1759
18008W        W33902   9.271  11.816   2.575  0.0267 -0.2705  0.0433
18009W        W33903  15.046  13.611   3.445  0.1502  0.0844 -0.1676
18010W        W33904  14.286  14.355  10.435  0.0178 -0.0764  0.1229
18011W        W33905  18.325   3.632  13.635 -0.1180  0.2284  0.0990
18012W        W33906   3.828   0.376  13.490  0.2789 -0.0029 -0.0104
18013W        W33907   3.856  12.492   0.883 -0.0388  0.5047  0.1690
18014W        W33908  11.272  15.251  11.536  0.4757 -0.1212  0.3996
18015W        W33909   6.808   5.486  12.016  0.1392 -0.3893  0.2959
18016W        W33910  11.560  14.293   4.620 -0.1250 -0.3343 -0.2443
18017W        W33911  10.444   7.497  11.170 -0.2969 -0.0303  0.2666
18018W        W33912   1.777   0.137   5.069 -0.0479 -0.0199  0.0951
18019W        W33913  12.718   5.193  12.491  0.2901  0.1791 -0.2877
18020W        W33914  12.260   6.078   2.662  0.0947 -0.0295  0.2643
18021W        W33915  12.450  16.127   9.594  0.1967  0.1173 -0.0224
18022W        W33916  18.378  14.752  12.112 -0.3694  0.3222 -0.3949
18023W        W33917  15.155  13.954   1.989  0.1426 -0.1167 -0.2301
18024W        W33918  15.981  11.167  14.999 -0.0708 -0.0813  0.2575
18025W        W33919   5.144  18.481  11.704 -0.1933 -0.0223  0.2729
18026W        W33920  11.274  13.073  13.869 -0.0838  0.1403  0.1783
18027W        W33921   4.771   2.877  12.779 -0.0200  0.2530 -0.0476
18028W        W33922  17.904   3.727  13.970 -0.1867 -0.1325  0.2951
18029W        W33923   3.027  14.443  11.232 -0.0027  0.0722  0.2908
18030W        W33924   1.991  18.924   1.673 -0.3706  0.0089 -0.0024
18031W        W33925   5.432   4.274  13.454 -0.0266 -0.2232  0.0011
18032W        W33926   4.801  10.866   5.449 -0.0720 -0.1362 -0.3043
18033W        W33927  15.802  11.129   0.318 -0.1524  0.0228 -0.2685
18034W        W33928  18.867   1.074   2.077 -0.0126 -0.0880  0.1127
18035W        W33929   6.040  15.635  12.691 -0.1382 -0.1240 -0.1551
18036W        W33930   2.653   9.552  10.337 -0.1706 -0.1469  0.1035
18037W        W33931  17.854  13.814  11.527 -0.2786 -0.0943  0.1174
18038W        W33932   0.544  12.696   0.072  0.0431 -0.1311 -0.2242
18039W        W33933   0.236  17.646   0.627 -0.0971 -0.2670  0.0086
18040W        W33934  17.821  13.208   3.093 -0.4367 -0.1218  0.1364
18041W        W33935   1.643   0.044   4.386 -0.0733  0.0843  0.2360
18042W        W33936  10.036  17.703   3.161  0.0832  0.2489 -0.1913
18043W        W33937  14.243   4.095   4.109  0.1324  0.4230  0.1084
18044W        W33938  14.207  14.254  13.254 -0.0004  0.0976  0.2866
18045W        W33939   2.215   6.107  14.962  0.1859  0.3600  0.2208
18046W        W33940   0.263  16.946   4.394 -0.1586  0.2531  0.1370
18047W        W33941   7.453  13.727  12.486 -0.0770  0.2069 -0.2477
18048W        W33942  15.593   8.427  14.187  0.3808  0.0735 -0.0792
18049W        W33943   9.983  17.781  10.710 -0.1774 -0.0805  0.2772
18050W        W33944   9.530  14.796  10.925  0.0111  0.1612 -0.2073
18051W        W33945   3.304   8.736   2.790  0.0992  0.0384 -0.1826
18052W        W33946   4.368   0.196  14.309  0.0752  0.0412 -0.1060
18053W        W33947  16.651   8.034   4.338  0.0915  0.1547  0.0968
18054W        W33948  18.843  11.417   3.014  0.2568  0.1739  0.2859
18055W        W33949   7.145  11.671  14.087  0.0594  0.1397 -0.2199
18056W        W33950   5.804  16.606  12.754  0.1217  0.4367 -0.5477
18057W        W33951   4.449  18.253  12.817 -0.0207 -0.1565 -0.4487
18058W        W33952   2.578  11.798   2.028  0.2914  0.2986  0.1322
18059W        W33953   0.164  11.210  10.261  0.0869 -0.0275  0.3900
18060W        W33954   0.352   6.217  13.798 -0.0057  0.0058  0.1762
18061W        W33955  19.181   9.348   1.260  0.1764  0.1880 -0.0500
18062W        W33956   8.577  12.179   5.525 -0.2381  0.0215 -0.2183
18063W        W33957   0.708  18.492   3.225  0.1883  0.2454 -0.0268
18064W        W33958   2.844  10.074  12.016  0.0947 -0.0916  0.0123
18065W        W33959  13.850   3.034  14.602  0.1923  0.1030  0.0606
18066W        W33960   8.552  10.330   4.351 -0.2867 -0.0295  0.0807
18067W        W33961   6.059   5.441   0.125  0.0012  0.1349  0.0446
18068W        W33962  13.281   4.519   5.212 -0.0034  0.0962 -0.0552
18069W        W33963   0.225  17.090   3.092  0.0871  0.2324 -0.3396
18070W        W33964   2.056   5.120  10.252  0.0941 -0.0131 -0.2304
18071W        W33965  12.484   3.438  14.198  0.0726 -0.2207  0.1307
18072W        W33966  18.842   8.704  14.578 -0.3235  0.1885 -0.0010
18073W        W33967   3.608  11.701   1.214  0.0013  0.5517 -0.2441
18074W        W33968   9.928  11.730   3.688 -0.1688 -0.3087  0.1974
18075W        W33969   6.149   8.706  15.046  0.2345 -0.0316 -0.4387
18076W        W33970   8.863   2.886   0.920 -0.0116  0.0048  0.2243
18077W        W33971   1.681  17.222  14.297  0.1288 -0.1897 -0.0494
18078W        W33972   2.116  16.317   1.099  0.0772 -0.1932 -0.2122
18079W        W33973  11.402  18.322  13.917  0.2544  0.1141  0.2413
18080W        W33974  16.221  17.313  11.203 -0.2209 -0.0564 -0.2305
18081W        W33975   4.870   2.261   1.299  0.1201  0.0990  0.2066
18082W        W33976   2.058  13.398   1.112 -0.0174 -0.2049  0.2907
18083W        W33977  15.151   5.905   4.342 -0.2877 -0.0106 -0.1261
18084W        W33978  16.004  16.731   0.211 -0.0829  0.0478  0.3119
18085W        W33979   7.390  12.674   2.776 -0.3056  0.0497 -0.0650
18086W        W33980   5.718   8.808   4.836  0.1781  0.3023  0.0562
18087W        W33981  15.340   9.624   3.993  0.1690 -0.2282 -0.0965
18088W        W33982   6.360   5.752  12.676  0.0543  0.0159 -0.5122
18089W        W33983   5.182   6.798   2.393 -0.1048 -0.1324  0.3472
18090W        W33984  15.772  19.095  12.133  0.0433  0.0570  0.1028
18091W        W33985  10.038   5.769  14.826  0.2600 -0.1264  0.0963
18092W        W33986  18.788   6.036  13.814  0.0751  0.1563 -0.0801
18093W        W33987   8.083   7.911  13.608 -0.0628  0.1029 -0.0754
18094W        W33988   4.207  15.663  13.051 -0.1152  0.0196 -0.2032
18095W        W33989   8.191  13.241  10.780  0.1927  0.1915  0.0190
18096W        W33990   9.179   5.658   0.956 -0.0565  0.1056 -0.0282
18097W        W33991   0.646  15.155   4.990  0.2801  0.1166  0.1791
18098W        W33992  14.090  11.554  12.401 -0.1438 -0.0088  0.2689
18099W        W33993  10.416   4.103   3.780 -0.2721  0.2415 -0.1826
18100W        W33994   7.227  13.258   4.990  0.1366 -0.0004 -0.0438
18101W        W33995  14.897   1.283   2.010 -0.1367  0.2071  0.4533
18102W        W33996   3.597   0.485   4.036 -0.1070 -0.0433 -0.2220
18103W        W33997   8.606  13.128   1.298 -0.0187  0.1125  0.1689
18104W        W33998  10.055   5.183  14.793 -0.0285 -0.0746  0.3227
18105W        W33999  14.269  13.037  11.783  0.0312  0.0870 -0.0291
18106W        W34000  13.842   9.364  10.267 -0.0832 -0.0690 -0.1443
18107W        W34001  16.880  10.400   1.598  0.0393  0.2565 -0.1208
18108W        W34002   4.102   6.980  13.369 -0.3662  0.0153 -0.1868
18109W        W34003  14.903  17.300  12.195  0.2578  0.0159  0.2660
18110W        W34004  11.654  18.516  11.401  0.0004 -0.3656  0.1887
18111W        W34005   4.871  15.316   2.224  0.0296  0.0616  0.0056
18112W        W34006  17.171   7.889   1.265 -0.2660  0.2956  0.0237
18113W        W34007  11.646   9.133   1.773  0.0481  0.1948  0.1193
18114W        W34008   2.890   5.434   0.159  0.0778  0.4373  0.0579
18115W        W34009  16.952   6.681   1.624  0.2952 -0.0421 -0.4464
18116W        W34010   6.339   8.524  12.467 -0.2352  0.1961  0.3406
18117W        W34011   5.598   3.076  14.270 -0.0480  0.0379 -0.0816
18118W        W34012   8.542   5.729   0.202 -0.0674 -0.0391  0.1116
18119W        W34013  14.649   7.975  11.411  0.0833  0.0183  0.0369
18120W        W34014  14.575  14.915  12.335  0.0354 -0.1084 -0.0153
18121W        W34015   9.825   5.297   1.559 -0.3715  0.2130 -0.2205
18122W        W34016   9.943   4.683  10.698 -0.1319 -0.0918  0.2633
18123W        W34017  15.562  15.321  13.786  0.0627 -0.4997 -0.3031
18124W        W34018  15.760   6.843   4.437 -0.2393  0.0098 -0.0553
18125W        W34019   4.595   3.571   2.503  0.1469 -0.1540 -0.2744
18126W        W34020   3.384  16.005  12.992  0.0460  0.1126  0.2174
18127W        W34021  11.919  11.503   4.852 -0.0606  0.0038  0.0081
18128W        W34022   4.796  15.907  12.721  0.2618  0.3245 -0.2748
18129W        W34023   5.546  14.504   4.513  0.3654  0.0251  0.2780
18130W        W34024  17.996  14.243  14.294 -0.4050  0.0411 -0.0826
18131W        W34025   0.939   3.075  12.119  0.0140  0.1432  0.0334
18132W        W34026  16.376   1.059   1.101 -0.2885  0.1076  0.2647
18133W        W34027   2.267   8.469   2.457 -0.1904  0.2483  0.0211
18134W        W34028  10.473  11.740   2.571  0.0060 -0.3344 -0.0635
18135W        W34029  13.296  18.708   0.299 -0.1033  0.0993  0.2228
18136W        W34030   8.143  12.207   2.882  0.1296  0.1176  0.2404
18137W        W34031   2.505   9.270  14.813  0.0894 -0.1670 -0.0277
18138W        W34032  15.762   7.253  13.245  0.0906 -0.0384  0.2063
18139W        W34033   8.268   6.530  14.213  0.0135 -0.1080 -0.0177
18140W        W34034   1.718  14.986   4.389  0.0158  0.1105  0.1658
18141W        W34035   2.202   0.448  10.845 -0.0394  0.2596 -0.2188
18142W        W34036  11.780  10.541   3.044  0.1183  0.3565 -0.3707
18143W        W34037   5.910  14.167  12.849  0.3042 -0.1189 -0.2303
18144W        W34038  17.742  12.938  11.246 -0.1278 -0.2134  0.0926
18145W        W34039   0.794   6.702  14.779  0.0455  0.2016  0.0991
18146W        W34040   8.433  17.980   0.111  0.2961 -0.1823 -0.0349
18147W        W34041  12.459   1.338   2.633  0.1588  0.0707 -0.0676
18148W        W34042  12.588  15.251   2.203  0.0207  0.2564  0.0924
18149W        W34043  10.723   5.110   5.992  0.0330  0.0096  0.5675
18150W        W34044   5.291   3.008  11.931 -0.1445 -0.0951  0.0029
18151W        W34045  10.806   8.739   0.312 -0.2857  0.1957 -0.0669
18152W        W34046   9.252  13.144   9.865 -0.0058 -0.2412  0.2085
18153W        W34047  12.062  13.833   2.813 -0.6186  0.0165 -0.0761
18154W        W34048   3.599   8.777  14.721  0.0946 -0.1593 -0.0566
18155W        W34049   5.761  10.462   1.203  0.1244 -0.0799  0.1587
18156W        W34050   7.357  17.112   2.682  0.0774  0.0205 -0.0647
18157W        W34051  18.740   0.541   1.038  0.1028  0.1685  0.0017
18158W        W34052  12.676   0.792   2.690 -0.0990  0.0583  0.2431
18159W        W34053  15.003  15.847   3.734 -0.1184 -0.1321 -0.0891
18160W        W34054  18.425  16.194   0.328 -0.2481  0.1450  0.0198
18161W        W34055  14.257   6.102  11.318 -0.1979  0.1381 -0.2911
18162W        W34056  16.474  14.108  11.804 -0.0863 -0.0430 -0.0392
18163W        W34057  16.521   3.560  12.289  0.3440 -0.1755 -0.1534
18164W        W34058  15.924   0.754   5.698  0.2785 -0.0710 -0.3315
18165W        W34059   3.751  14.943   0.668  0.0119  0.0988 -0.0087
18166W        W34060   0.436   3.480  12.171  0.2374  0.0379 -0.1218
18167W        W34061   4.605  14.344   1.559  0.0621 -0.0448 -0.2433
18168W        W34062   8.912   2.255   3.266 -0.1018  0.0819 -0.3158
18169W        W34063   1.336  18.664  15.040  0.0354 -0.3772  0.0179
18170W        W34064  11.233   5.618  11.512 -0.0640 -0.2045  0.1220
18171W        W34065  19.018   9.561  12.448  0.0499  0.0304  0.0474
18172W        W34066   2.569   9.328  13.431  0.1220 -0.4711 -0.0403
18173W        W34067  18.378  19.179   0.773 -0.2571 -0.0062 -0.1627
18174W        W34068   8.653   5.264  13.729 -0.1000 -0.3490  0.3904
18175W        W34069   9.541   6.568   0.270  0.2189 -0.2215  0.0400
18176W        W34070   1.998   0.575   4.935  0.2156 -0.2558  0.2371
18177W        W34071   1.210  19.108   2.729 -0.0690 -0.1840 -0.2701
18178W        W34072  14.267   4.156   2.685  0.1271 -0.2275 -0.1478
18179W        W34073  10.490  15.102  14.295  0.0396  0.0573  0.0341
18180W        W34074  14.235  13.386   4.050  0.1431  0.0793  0.1848
18181W        W34075  12.097   4.833  11.485 -0.2538  0.2421 -0.1531
18182W        W34076   8.565  15.789   5.506 -0.0980 -0.3323 -0.0804
18183W        W34077  11.625   0.900  12.803  0.0175 -0.1222 -0.0665
18184W        W34078   8.867  15.837  13.795 -0.1870  0.0501  0.1916
18185W        W34079   1.779   1.314  15.120 -0.1387 -0.2008  0.2073
18186W        W34080   2.978   2.522  13.424 -0.1825  0.3026 -0.1729
18187W        W34081  12.726   9.546  10.329 -0.0827  0.0703 -0.1673
18188W        W34082  10.174   2.211   0.950  0.0227  0.0476 -0.0209
18189W        W34083   4.853   0.610   2.037 -0.0413 -0.2511  0.1777
18190W        W34084  13.410   7.466   1.323  0.1728 -0.1803  0.1735
18191W        W34085   0.427   0.759  12.550 -0.1251  0.2195 -0.3117
18192W        W34086   1.756  10.994   5.135 -0.1074 -0.0100  0.0157
18193W        W34087   3.860   2.795  12.599 -0.1724 -0.2287 -0.1848
18194W        W34088   7.800  13.512  13.353  0.2579 -0.2823 -0.0340
18195W        W34089  10.396   4.898  11.875  0.0477 -0.0174 -0.2539
18196W        W34090   5.635  14.751   2.205 -0.3346  0.0719 -0.2523
18197W        W34091   5.002  15.608   1.743 -0.1162 -0.3897  0.0372
18198W        W34092   7.130  14.551  12.156 -0.0517  0.3530  0.3210
18199W        W34093  17.367  17.553  12.498 -0.1109  0.1383 -0.1559
18200W        W34094   3.557   8.243  15.120  0.2230 -0.2373 -0.5141
18201W        W34095   5.390  17.423   0.177 -0.2991  0.0375  0.0092
18202W        W34096   1.152   3.163  12.979 -0.1539 -0.2593  0.1079
18203W        W34097  10.026   0.189  12.285 -0.0128  0.2186  0.0223
18204W        W34098  14.727  16.883  14.096  0.5135  0.0816  0.1348
18205W        W34099   2.423  18.126   1.225  0.2261  0.1271 -0.0778
18206W        W34100   5.241  15.595   3.579 -0.1906 -0.0392 -0.0011
18207W        W34101  13.594   6.039   0.953 -0.2986 -0.2340  0.1970
18208W        W34102   8.121   0.793   3.208 -0.0568  0.4093  0.0689
18209W        W34103   2.523   9.664  12.486  0.0207 -0.3609  0.2805
18210W        W34104  10.870   4.936   5.067 -0.1056 -0.1066 -0.3274
18211W        W34105   8.733   1.526   1.400 -0.2445  0.1496 -0.1815
18212W        W34106   3.412  10.138   0.469 -0.1763  0.2123 -0.1694
18213W        W34107  13.991  17.568  13.701 -0.0483  0.1899  0.0531
18214W        W34108   1.636   0.073   2.996 -0.2776  0.0888  0.0646
18215W        W34109  15.780  13.581  12.381  0.0846  0.1192  0.1191
18216W        W34110  10.636  12.713  13.004 -0.2363 -0.2878  0.2318
18217W        W34111   2.834   1.444   1.234  0.0800  0.0979 -0.0414
18218W        W34112  12.026   2.262  12.155  0.0516  0.0307 -0.0562
18219W        W34113  12.203  11.273  12.311  0.2092 -0.0901 -0.0141
18220W        W34114   9.743   3.113  12.357  0.0953  0.2979 -0.0490
18221W        W34115  14.419   3.893  15.172 -0.0649  0.0517  0.4241
18222W        W34116   5.980   3.875   9.504 -0.1620 -0.3817 -0.2480
18223W        W34117  19.110   1.156   3.324  0.0996 -0.0932  0.2108
18224W        W34118  10.176   7.559  14.991  0.1357 -0.0459 -0.3858
18225W        W34119   9.488   7.946  13.024  0.0370 -0.3384  0.1057
18226W        W34120  15.073  16.450  10.760  0.0714  0.0650  0.1002
18227W        W34121  11.587  11.172  11.109  0.0331  0.1303 -0.0609
18228W        W34122  18.246  17.604   5.144 -0.1541 -0.2017 -0.0551
18229W        W34123   2.516  17.210  14.398  0.0222 -0.2751 -0.0162
18230W        W34124   7.522  11.498  14.562 -0.3585 -0.1792 -0.0299
18231W        W34125  17.727  13.617  12.034 -0.1406  0.2040  0.0926
18232W        W34126   4.986   7.833   4.744  0.0691 -0.0582  0.1357
18233W        W34127  17.508   5.967  13.413 -0.1655  0.2369 -0.0687
18234W        W34128  15.594  14.525  14.128  0.0986  0.2099  0.2021
18235W        W34129   2.376  10.186  11.864 -0.0575  0.0237  0.3801
18236W        W34130  18.295   5.689  10.779 -0.4206 -0.1391 -0.0953
18237W        W34131  10.473   7.068  10.917  0.2886 -0.0120 -0.1828
18238W        W34132  15.709  12.228  10.351 -0.0199 -0.3676 -0.2327
18239W        W34133  12.046   5.899  13.954 -0.3100  0.0429 -0.0704
18240W        W34134   9.894   2.757   3.404  0.0660 -0.0013 -0.0705
18241W        W34135   6.518  13.710  12.954 -0.2343  0.0105 -0.2398
18242W        W34136  16.700  14.172  12.960 -0.1251  0.0193 -0.0456
18243W        W34137  12.240  12.674   1.101  0.3448  0.1668  0.0672
18244W        W34138   9.316   2.950  14.482 -0.1757 -0.2316  0.0815
18245W        W34139   0.139   7.718  11.263  0.0640  0.2651  0.0417
18246W        W34140  14.480   9.562   5.135 -0.2576  0.3392  0.0194
18247W        W34141  18.044  18.769  10.986 -0.1579 -0.3228 -0.1267
18248W        W34142   0.201  10.905  13.981  0.1233 -0.1170 -0.0528
18249W        W34143   7.654   1.880  10.833  0.1879  0.3785  0.1342
18250W        W34144   7.161   4.132   1.623 -0.0936  0.1919  0.0224
18251W        W34145  17.021   7.795   3.780 -0.0366 -0.2411 -0.1651
18252W        W34146  15.714   7.943   4.226  0.0299  0.0646 -0.3476
18253W        W34147  13.155   2.795   1.011  0.1634  0.1289  0.1318
18254W        W34148   3.490  14.130  10.483  0.1513  0.0714 -0.0138
18255W        W34149  18.299   2.805  12.324 -0.1832 -0.0527  0.1827
18256W        W34150   8.024   7.647  12.871  0.1987  0.0133  0.1555
18257W        W34151  15.818  15.896   1.310 -0.0704  0.0066  0.2015
18258W        W34152   3.010  10.422  13.441  0.0880  0.1124  0.2607
18259W        W34153   3.356   6.770   0.560 -0.2426  0.2041  0.1697
18260W        W34154   4.458   4.395  12.322 -0.0360  0.2447  0.1201
18261W        W34155   6.204  15.184  11.842 -0.0215 -0.0055 -0.0420
18262W        W34156  12.280   0.184  12.238  0.1056 -0.0029 -0.0408
18263W        W34157   6.072  15.686   2.060  0.2250 -0.1441  0.2912
18264W        W34158   4.859   1.686   2.656  0.0157  0.0696 -0.2382
18265W        W34159   4.301  13.189  14.571  0.0776 -0.0092  0.2193
18266W        W34160   3.811   5.854   1.293  0.0697  0.0284  0.1645
18267W        W34161   3.385  18.217  15.006 -0.1061 -0.1210  0.0362
18268W        W34162  16.935   6.662  13.597  0.0289 -0.2850 -0.0315
18269W        W34163   8.101   8.312   4.075  0.2103 -0.0459 -0.1902
18270W        W34164   3.034   6.429  14.921  0.0176  0.1179 -0.0198
18271W        W34165  17.180   5.803   2.269 -0.2153  0.0445  0.1099
18272W        W34166   9.408   3.986  11.155 -0.0465 -0.0035 -0.2704
18273W        W34167  16.194   1.169   5.443 -0.2703  0.1894 -0.0960
18274W        W34168   0.331  11.257   0.952  0.1453  0.1220  0.0098
18275W        W34169  16.021   0.272   4.148  0.1070  0.1856 -0.0085
18276W        W34170  11.928  18.179   2.838  0.0676 -0.1274 -0.0040
18277W        W34171   3.277  15.330   4.011  0.1768 -0.2952 -0.1128
18278W        W34172   9.068   6.678   0.788  0.3349  0.1649  0.0502
18279W        W34173  16.283  11.408   1.442  0.0482 -0.1852  0.0749
18280W        W34174   7.872   6.876  10.883  0.1441  0.2753  0.1263
18281W        W34175   4.241   3.707   2.848  0.0899 -0.0500  0.2302
18282W        W34176  13.886  10.350  12.211 -0.1468  0.0633  0.3204
18283W        W34177   4.948  13.976   5.156  0.0181 -0.0845 -0.1640
18284W        W34178  14.913  11.745   4.833  0.0399 -0.0442  0.0710
18285W        W34179   2.694   0.525  14.449  0.2035 -0.0967 -0.3346
18286W        W34180  13.094  12.378   0.313  0.2092 -0.0007 -0.0544
18287W        W34181  16.450  13.053   1.408  0.2219  0.3101  0.0199
18288W        W34182  15.905  17.118   4.932 -0.0985  0.0440  0.0130
18289W        W34183   7.129   1.825  12.884  0.0928 -0.2926 -0.1596
18290W        W34184   2.897  18.013  13.227  0.1519 -0.0653  0.1098
18291W        W34185  15.882   9.769  10.331 -0.1595  0.0223 -0.0551
18292W        W34186  18.748   1.994   0.015  0.1989  0.3459 -0.2466
18293W        W34187   3.856  11.389  11.839  0.0329 -0.0108 -0.2406
18294W        W34188   0.705   4.105  11.481 -0.1794 -0.0862  0.0392
18295W        W34189  10.914  16.212  11.395 -0.4660 -0.0335 -0.5187
18296W        W34190   7.586   8.828   0.401  0.0571 -0.2516  0.0509
18297W        W34191   1.545  13.535  10.009 -0.1194  0.0256  0.1628
18298W        W34192  12.946   3.404  12.481 -0.4223 -0.2534 -0.1940
18299W        W34193  18.411   8.051   2.796 -0.0345 -0.3184 -0.1681
18300W        W34194  16.851   8.121   1.567 -0.1514  0.0539  0.4757
18301W        W34195   7.062  16.276  11.086  0.0663  0.1605 -0.2000
18302W        W34196   4.861   1.749  11.805  0.2530  0.0464 -0.0125
18303W        W34197   2.779   3.853   3.056 -0.0381  0.1445  0.2811
18304W        W34198   3.801  16.868  14.493  0.1431  0.0809 -0.0725
18305W        W34199   8.992   1.181  11.851 -0.0730 -0.1236  0.0446
18306W        W34200   8.493   7.388  11.541  0.3284 -0.0568  0.1899
18307W        W34201  17.677  13.173   1.644 -0.3346  0.0210  0.2972
18308W        W34202  17.815  12.098  11.061  0.2599 -0.3056 -0.2559
18309W        W34203   7.825  12.640   3.206 -0.1961  0.0984 -0.1682
18310W        W34204   1.233  18.128   0.086 -0.0084  0.0556  0.2569
18311W        W34205   1.488   1.470   3.099  0.0237  0.0936 -0.2784
18312W        W34206   8.914   4.822  12.417  0.4904  0.1938 -0.1156
18313W        W34207  18.975  14.882  12.701  0.3108  0.0235  0.0119
18314W        W34208   1.524  12.930   2.057  0.2595  0.2180  0.0586
18315W        W34209  10.684  14.727  12.247  0.3011  0.1329 -0.0061
18316W        W34210   6.766   8.229   3.725 -0.0117  0.2545  0.0241
18317W        W34211  13.873   0.621  11.515 -0.0211 -0.1653 -0.1602
18318W        W34212  13.560   8.641  14.159 -0.2486  0.3714  0.0612
18319W        W34213   3.103  10.042   4.119  0.1690  0.1681  0.0879
18320W        W34214   9.806  16.638  13.341  0.2571 -0.1109 -0.0946
18321W        W34215   4.417   4.609  13.745 -0.0778 -0.0136  0.1915
18322W        W34216  10.394   2.436  12.540  0.1645  0.0110 -0.0105
18323W        W34217  13.476   5.699  12.389  0.0284  0.0890 -0.3499
18324W        W34218   2.152   7.482   0.274 -0.3654  0.0376 -0.2287
18325W        W34219   0.387   0.753   3.282  0.1217  0.1434 -0.2358
18326W        W34220   2.390   9.829   3.685  0.1423 -0.0956  0.0973
18327W        W34221  13.169   0.375  13.438 -0.4563 -0.0410  0.1216
18328W        W34222   8.661   2.625  13.416  0.3072  0.0651 -0.0817
18329W        W34223  14.771   3.516  15.054 -0.2727 -0.2140  0.0254
18330W        W34224   6.061   5.871   0.547 -0.6792 -0.0636  0.1336
18331W        W34225   9.368  13.146   2.002 -0.1354 -0.0143 -0.0495
18332W        W34226   5.383  15.291   5.182  0.2457 -0.2565  0.0471
18333W        W34227  13.729  11.650   0.062 -0.0893 -0.0549 -0.1642
18334W        W34228  17.796   1.433   4.629 -0.1957 -0.1807  0.0393
18335W        W34229   8.275  16.783  11.739 -0.1044 -0.0455  0.1625
18336W        W34230  15.801   9.145   3.892 -0.1552  0.1789  0.2279
18337W        W34231  14.082  11.599  14.914 -0.0046 -0.3750 -0.0676
18338W        W34232   5.353  15.931   0.072 -0.1282  0.3159  0.3115
18339W        W34233  18.116  17.385  10.646  0.2176  0.0153 -0.1083
18340W        W34234   1.537   0.262  12.858  0.0646 -0.1501  0.4534
18341W        W34235  15.320   0.892   3.750 -0.3148  0.0540  0.0303
18342W        W34236  16.836  15.565  14.198 -0.0890 -0.1946  0.3402
18343W        W34237  17.542   6.361   3.964  0.1344  0.0331 -0.0132
18344W        W34238   6.592   1.610   4.392 -0.0135  0.4064 -0.2072
18345W        W34239  11.667   7.484   2.038  0.0844  0.0285  0.2053
18346W        W34240   7.570  13.459   3.740  0.0182 -0.0059  0.1689
18347W        W34241   0.155  11.885  13.980 -0.0086  0.1945  0.2710
18348W        W34242   7.912   9.126  13.188 -0.0877 -0.1417 -0.0213
18349W        W34243   6.743   3.074  13.102 -0.1164  0.1151 -0.0100
18350W        W34244   3.803  10.153  12.639  0.2970 -0.0314  0.0420
18351W        W34245   2.940  17.288  12.155 -0.2269 -0.2179 -0.3878
18352W        W34246   3.904   9.758   3.997  0.1348 -0.0806 -0.5417
18353W        W34247  10.544  13.258  10.499  0.2479  0.0710 -0.2525
18354W        W34248  18.006   5.886  12.658  0.0812 -0.0397 -0.0990
18355W        W34249   1.906   4.619  13.088 -0.2258  0.1067 -0.0340
18356W        W34250   1.167  10.536   1.928  0.2618 -0.2874 -0.2822
18357W        W34251  18.490  15.866   1.907 -0.0104 -0.0024  0.2117
18358W        W34252   5.723  12.815   0.544 -0.0951  0.4281  0.2744
18359W        W34253   3.886   6.910  13.792  0.1879 -0.1644  0.0646
18360W        W34254  13.441   0.189  12.405 -0.0590  0.2616  0.2762
18361W        W34255   0.400   4.092   9.857 -0.0391  0.1798 -0.3496
18362W        W34256  17.875   6.910   3.138 -0.1949  0.1436 -0.0495
18363W        W34257  13.641  18.237   5.063 -0.4341  0.1662  0.0135
18364W        W34258  12.117   1.753  13.014  0.2433  0.0418  0.2635
18365W        W34259  16.963   4.268   1.337  0.0243  0.1994 -0.0351
18366W        W34260   2.572   2.381   0.680 -0.0324 -0.1462  0.0617
18367W        W34261  18.296  15.757   0.978  0.2731  0.1378  0.1728
18368W        W34262  15.190   8.189  13.813  0.3785  0.0587 -0.3016
18369W        W34263  19.146  11.432   1.621  0.2012  0.0437  0.0696
18370W        W34264  18.376  15.407   3.753 -0.0052 -0.1892 -0.0717
18371W        W34265  14.252   7.834   2.342  0.1544 -0.0262 -0.0754
18372W        W34266   4.051   8.299  11.309 -0.0672 -0.0260  0.1354
18373W        W34267   0.109   8.948  14.549 -0.2497  0.0216  0.0375
18374W        W34268  13.488   9.107   4.095 -0.0740 -0.3415 -0.0730
18375W        W34269  10.980   7.662  14.190 -0.0673  0.2397 -0.0985
18376W        W34270  14.557   3.194  11.014  0.0116  0.1874 -0.4066
18377W        W34271  19.152   5.508   0.066 -0.1581  0.0036  0.0814
18378W        W34272   5.660  12.259   3.175  0.0620  0.3633 -0.3013
18379W        W34273  17.530  15.456  11.881  0.1213  0.1362  0.0672
18380W        W34274   6.566   2.464   3.314 -0.2647 -0.0458 -0.2317
18381W        W34275   1.587  18.977   5.361 -0.0116  0.0677 -0.1593
18382W        W34276  15.427  10.833   0.481 -0.0195 -0.2687  0.0681
18383W        W34277  15.927   6.363   1.891  0.1053  0.1004  0.0903
18384W        W34278   6.870   9.788   0.203  0.3345 -0.1590  0.2276
18385W        W34279   2.413  11.606   1.436 -0.2008  0.2727 -0.1665
18386W        W34280  17.014  11.188   5.156  0.0163  0.0995 -0.2017
18387W        W34281   7.998   9.806   1.981 -0.0038  0.1422  0.0648
18388W        W34282  13.692   4.123  11.364 -0.0367 -0.0505  0.0892
18389W        W34283   4.456   5.839   4.109  0.0307  0.0520  0.0945
18390W        W34284  18.608   7.680   0.840 -0.2242 -0.0393  0.1832
18391W        W34285  11.356   9.197   3.151 -0.0901  0.0860  0.0020
18392W        W34286   0.799   3.151   3.132  0.0771  0.1525  0.0437
18393W        W34287   9.162  15.527  12.576 -0.0351 -0.4317 -0.1542
18394W        W34288   3.184   7.086   5.145 -0.0626 -0.1002 -0.1594
18395W        W34289   8.176  11.415  13.024 -0.1630 -0.0642 -0.1233
18396W        W34290  19.110   5.982  12.729  0.0741  0.1193  0.2185
18397W        W34291   3.576   8.734  12.087 -0.2671  0.0377 -0.0683
18398W        W34292   4.263  15.334   3.479  0.1460  0.1350  0.0550
18399W        W34293  14.232  15.290  13.096 -0.3776  0.1055 -0.1123
18400W        W34294   5.071   7.606  14.118 -0.1103  0.1526 -0.0815
18401W        W34295   1.944   1.421   2.742 -0.0585  0.1885  0.1029
18402W        W34296   4.788  11.669   0.279  0.1239 -0.0883 -0.0302
18403W        W34297  16.610   0.637   1.244  0.1161 -0.0210 -0.0429
18404W        W34298  16.094  12.144   2.968 -0.0589 -0.0616 -0.1855
18405W        W34299   3.804  11.754   4.055 -0.1620 -0.1990 -0.0450
18406W        W34300   0.540   9.134  14.742 -0.2619 -0.1121 -0.1550
18407W        W34301  18.637  10.288   3.231  0.0744 -0.1456 -0.0089
18408W        W34302   3.813  11.604   0.742 -0.1133  0.0956 -0.3691
18409W        W34303   4.272   6.139  14.976  0.0773  0.1540 -0.2180
18410W        W34304  18.569  14.395  11.842 -0.0516  0.0124 -0.0653
18411W        W34305  17.385   1.752   1.707  0.2755 -0.2871 -0.1782
18412W        W34306   1.751   4.710  10.943  0.0102  0.0754 -0.2121
18413W        W34307  14.670   6.054  14.352 -0.2208 -0.0669  0.0164
18414W        W34308  14.402   0.239  14.044 -0.0329 -0.0836  0.1152
18415W        W34309  13.588  13.673   2.580 -0.2656 -0.3293  0.1956
18416W        W34310  15.320   3.055  13.887  0.2740 -0.0412  0.2465
18417W        W34311   6.465   9.209   3.249 -0.2180 -0.0495  0.1299
18418W        W34312   0.502  11.375   1.504 -0.0609 -0.0920  0.0710
18419W        W34313  16.790   6.016   2.471  0.1258  0.1488 -0.0219
18420W        W34314   1.623  17.100   4.001 -0.0604 -0.2855 -0.0546
18421W        W34315   4.400  15.114   2.115  0.2583  0.0837 -0.2874
18422W        W34316   4.921  14.827  14.987  0.4821 -0.0205 -0.1448
18423W        W34317  11.628  16.183  11.591 -0.0829  0.1282  0.1532
18424W        W34318   6.984   9.067  13.735  0.4560 -0.3086 -0.0131
18425W        W34319   8.854  17.555   0.335  0.5254  0.4617  0.2531
18426W        W34320   5.219   4.901   2.657 -0.0528 -0.3024 -0.1171
18427W        W34321   6.546   0.541   0.241 -0.1168  0.2674  0.0681
18428W        W34322   6.635  17.711  12.631 -0.2660 -0.0860  0.1808
18429W        W34323   6.159   8.111   4.183  0.0484 -0.5229 -0.3986
18430W        W34324   0.242  16.594  13.299  0.0346  0.0830 -0.0530
18431W        W34325  13.665   9.423   3.092  0.0975 -0.0028  0.0475
18432W        W34326   9.895   7.499  11.651  0.1420  0.2872 -0.0003
18433W        W34327  17.527   0.751  10.394 -0.1727 -0.1395 -0.0498
18434W        W34328  16.618   7.958  13.835 -0.2222 -0.1068  0.2221
18435W        W34329   8.906  15.496   2.603  0.4761 -0.0959 -0.0749
18436W        W34330  17.315   4.390   0.500 -0.1245  0.0153 -0.0381
18437W        W34331  18.293  10.905   2.147 -0.3077 -0.5235 -0.0249
18438W        W34332   2.486   2.821  13.327  0.1961  0.0460 -0.2653
18439W        W34333   5.552  14.629   2.647 -0.2909 -0.2330 -0.0290
18440W        W34334  18.157  10.537   2.479 -0.0568  0.1607  0.1452
18441W        W34335  18.463  10.195  13.966  0.5443 -0.1703  0.1125
18442W        W34336  11.371  12.203  13.197  0.2016  0.0435  0.0209
18443W        W34337   0.127   1.118  12.301  0.4288  0.0309  0.0749
18444W        W34338   0.150   5.877   1.412 -0.2552 -0.1723  0.2384
18445W        W34339  14.392  12.786   1.429  0.0282 -0.0393  0.0807
18446W        W34340  17.955   5.804  13.628 -0.3116  0.3429  0.2381
18447W        W34341   8.915   8.299   1.925 -0.2274 -0.0057  0.0419
18448W        W34342   3.462   1.039  13.134  0.0023 -0.0955 -0.1048
18449W        W34343   3.607  18.478   2.352  0.1668 -0.2864  0.0320
18450W        W34344  17.636   8.689  12.035  0.3832  0.2967 -0.3355
18451W        W34345  11.577  10.149   0.158  0.1657 -0.1017 -0.1418
18452W        W34346   2.058   2.638  13.597 -0.0415  0.0676  0.0229
18453W        W34347   2.354   8.711  10.640  0.0146  0.3789 -0.0054
18454W        W34348  16.439  10.200   5.006 -0.3446 -0.1558  0.0905
18455W        W34349   6.640  14.672   5.432  0.2407  0.0287  0.0628
18456W        W34350   0.509   5.938  15.136  0.2592 -0.1460  0.1822
18457W        W34351   3.375   1.213   3.106  0.0462 -0.4697 -0.2501
18458W        W34352  15.004   7.856   2.022 -0.0532 -0.0553  0.5191
18459W        W34353  15.662   1.481   4.877 -0.0462  0.0563 -0.1271
18460W        W34354  14.131  14.500  13.729 -0.2282 -0.2436  0.0809
18461W        W34355  11.367   5.622   2.924  0.0519 -0.2363  0.0998
18462W        W34356  10.559   4.150   0.738  0.0468 -0.3378  0.0125
18463W        W34357   5.782  15.526   1.350  0.0226 -0.2079  0.2468
18464W        W34358   1.501   1.781  14.713 -0.0494  0.0727 -0.1489
18465W        W34359  17.462  11.283  13.949  0.1053  0.1187  0.2383
18466W        W34360  11.315  15.521  13.525  0.1779  0.0598 -0.1118
18467W        W34361   7.830   3.580   1.002 -0.2988  0.1046 -0.1411
18468W        W34362  15.864   8.450   1.667 -0.2165  0.1337 -0.1540
18469W        W34363  13.454   9.755  13.546  0.0150 -0.0668 -0.0540
18470W        W34364   8.490  17.313  10.276 -0.1117 -0.1746  0.0771
18471W        W34365  15.975   5.377  13.163  0.1924 -0.0737  0.2003
18472W        W34366   3.903   6.825  12.910  0.2269  0.1314 -0.0182
18473W        W34367  14.599  11.769   3.354 -0.1096 -0.2321 -0.4244
18474W        W34368   9.931  10.221  12.657 -0.0584 -0.1841 -0.2396
18475W        W34369   4.283   2.808   4.755  0.3637  0.2184 -0.0341
18476W        W34370   9.576  16.440   3.581 -0.2262  0.1616 -0.0395
18477W        W34371  14.066  10.566   4.719 -0.4196 -0.1039  0.2642
18478W        W34372  11.299   0.657   2.511 -0.1701  0.0444 -0.0380
18479W        W34373  10.825   6.482   5.069 -0.0085  0.0716  0.2206
18480W        W34374   3.331  14.966  13.397 -0.1564 -0.1952 -0.0393
18481W        W34375  15.514   3.319   5.618 -0.4716  0.1915 -0.1815
18482W        W34376   8.910  12.549  14.713  0.1047 -0.0026 -0.0695
18483W        W34377   5.373   8.746  14.725  0.0496  0.0162  0.0137
18484W        W34378   6.052   0.058   1.632  0.0254  0.1380  0.0139
18485W        W34379   2.016  11.460  11.852  0.2724  0.1408 -0.4929
18486W        W34380   1.540  12.253  10.031 -0.3268  0.0101 -0.2066
18487W        W34381  14.226   8.608   1.840  0.1190 -0.1326  0.0613
18488W        W34382  12.085  16.180   2.332 -0.1260  0.1654 -0.3891
18489W        W34383   3.985  17.653  12.287  0.0146  0.2117  0.1001
18490W        W34384  15.234  18.425   9.620 -0.1071 -0.2908 -0.1874
18491W        W34385  15.658   3.977   3.591 -0.0808 -0.2073  0.3701
18492W        W34386   9.703  15.753   4.233  0.2313  0.1902 -0.1000
18493W        W34387  10.008  12.782   0.496  0.1052 -0.0199  0.0345
18494W        W34388   3.218   5.092  11.054 -0.0431 -0.1781 -0.1163
18495W        W34389  10.322  18.572   3.163 -0.0573 -0.0423  0.0502
18496W        W34390   1.470  12.917   5.176 -0.3146  0.0220 -0.0520
18497W        W34391   8.316   9.015  12.171  0.0737  0.0900 -0.1361
18498W        W34392  12.031   4.731   4.041 -0.0557  0.0873  0.1220
18499W        W34393   0.011   0.653  12.208 -0.2814 -0.2122 -0.0855
18500W        W34394  10.528  14.755   2.589 -0.0504 -0.1728  0.1552
18501W        W34395  14.001  14.175   0.913 -0.0800  0.1927 -0.0118
18502W        W34396   6.346   2.210   2.599  0.1985  0.1108 -0.1875
18503W        W34397   4.868   6.640  14.581  0.0342  0.2201  0.1152
18504W        W34398  14.240  16.758   4.329 -0.0699  0.3092 -0.2630
18505W        W34399  10.025  18.574   2.653  0.0025 -0.0803  0.1731
18506W        W34400   9.795  12.810  14.779 -0.1512 -0.0272  0.0056
18507W        W34401   1.354   0.052   0.791  0.1725  0.1851 -0.2015
18508W        W34402   1.322  13.913   2.118  0.4142  0.0589 -0.2572
18509W        W34403  15.977   9.011  11.621  0.0924 -0.3622 -0.1389
18510W        W34404   4.102   6.758  11.935 -0.0712  0.3131 -0.0477
18511W        W34405   3.098   0.718   3.988  0.3750 -0.0856 -0.1469
18512W        W34406   0.515   8.502  11.780  0.3518 -0.0627 -0.0425
18513W        W34407   0.239  15.123  13.423 -0.0258 -0.2325 -0.1582
18514W        W34408  13.372  12.211   2.569  0.0253  0.1079  0.1737
18515W        W34409   2.948  12.740   3.544  0.2188 -0.2533  0.1199
18516W        W34410   4.133  11.496   1.230 -0.1073 -0.1408 -0.0695
18517W        W34411   9.707  14.194  13.627 -0.1021  0.2072  0.2841
18518W        W34412   6.578  15.543   9.263  0.0805 -0.1042 -0.0149
18519W        W34413  14.341  12.158   4.019  0.0160  0.1568 -0.0013
18520W        W34414   6.002  15.744   2.962 -0.5201 -0.0685  0.0402
18521W        W34415  12.466   2.065   2.790 -0.1867  0.2730 -0.0847
18522W        W34416   5.062  13.367  14.620  0.1713  0.0800 -0.0960
18523W        W34417   2.857  16.286  11.031 -0.0965  0.1459 -0.1390
18524W        W34418   9.147   7.561   3.852  0.2513  0.0134 -0.0371
18525W        W34419   0.335   4.439   0.784 -0.1738  0.0814 -0.5333
18526W        W34420   6.786   2.347  14.127  0.0008  0.0094  0.1434
18527W        W34421  14.133  16.400   2.294  0.0721  0.0390  0.1516
18528W        W34422  14.475  17.273  13.776  0.0021  0.3157  0.0708
18529W        W34423  15.344  12.202  12.866 -0.0601 -0.2218 -0.0444
18530W        W34424   0.771  10.252   5.248 -0.0110  0.1746 -0.1323
18531W        W34425  18.976   7.091  13.412 -0.0532  0.1042 -0.1099
18532W        W34426  19.103  14.599   1.654 -0.4485 -0.0314  0.0616
18533W        W34427  12.618  12.017   0.396  0.0643  0.2452 -0.1085
18534W        W34428   0.647  11.574   1.105  0.1045 -0.2101 -0.1164
18535W        W34429  17.511  18.259   0.597  0.0516 -0.0332 -0.4207
18536W        W34430   8.059  17.109  12.825  0.2599  0.5289 -0.1957
18537W        W34431  18.984  12.273  11.567 -0.1022  0.2631  0.1628
18538W        W34432   7.816  14.675  10.224 -0.2515 -0.0218 -0.3527
18539W        W34433  18.828   2.024  13.360  0.3056  0.1491  0.0838
18540W        W34434   1.462  12.664   1.137  0.1674  0.4103 -0.3021
18541W        W34435  15.427   8.272   3.089 -0.2196  0.3803 -0.0449
18542W        W34436  13.292  12.988   4.038  0.0743  0.1300  0.2232
18543W        W34437   0.969  11.179   1.299  0.0926 -0.1226 -0.1016
18544W        W34438   7.704   2.274  15.007  0.1499  0.2179 -0.0319
18545W        W34439   1.630  10.585  12.442  0.0807 -0.0480 -0.1662
18546W        W34440   4.616   2.270   1.727 -0.2334 -0.0752 -0.0381
18547W        W34441  19.147   6.579  10.495  0.1629 -0.3349 -0.2574
18548W        W34442   1.036   2.408   3.993  0.1647 -0.0402  0.1728
18549W        W34443  10.075   9.492   3.923 -0.0001 -0.2590  0.2451
18550W        W34444   2.649  18.927  14.206 -0.1720  0.4702 -0.0538
18551W        W34445   0.092  13.817   3.714  0.1052 -0.3115  0.2951
18552W        W34446   3.383  17.942  13.105  0.0510  0.0582 -0.0128
18553W        W34447  14.282   8.535  12.357  0.1188 -0.0601  0.3150
18554W        W34448   6.650  11.856   1.477 -0.0774 -0.1080 -0.0710
18555W        W34449  13.936  17.423  12.360  0.3374  0.1673 -0.2098
18556W        W34450   8.096  16.367   1.890 -0.1723 -0.0497 -0.0870
18557W        W34451   0.346   6.580   2.153 -0.0887  0.0300  0.3122
18558W        W34452  10.498   8.412  13.978 -0.1156 -0.0859 -0.0216
18559W        W34453   2.740   4.479   1.792  0.1419  0.0264 -0.1353
18560W        W34454   4.677  18.318  11.702 -0.0231 -0.0413 -0.0056
18561W        W34455   6.464   7.991   0.787 -0.3761 -0.0749  0.0163
18562W        W34456  16.587  17.545  12.887  0.0984  0.2005  0.0130
18563W        W34457   3.090   9.980  11.142 -0.0545  0.0725 -0.1944
18564W        W34458  10.605   4.490  15.112 -0.1535 -0.2414  0.4026
18565W        W34459   2.365   3.561   3.325 -0.1280  0.2420  0.1588
18566W        W34460   2.787  13.422  13.037  0.3038  0.0903  0.1673
18567W        W34461  18.425  11.581  11.448 -0.1166 -0.0098 -0.2228
18568W        W34462  14.763  10.055  14.812 -0.4042  0.0778 -0.0844
18569W        W34463  13.384   3.731  12.532  0.2787 -0.3598 -0.1432
18570W        W34464   5.154  13.565   5.782  0.0225 -0.1848  0.1709
18571W        W34465  17.889  11.148   4.045  0.2081  0.1402 -0.2151
18572W        W34466   8.468  17.049   4.557  0.2307 -0.1425 -0.0209
18573W        W34467   9.264   3.268  13.958  0.2273  0.1951  0.3398
18574W        W34468  10.479  16.889   2.567 -0.0969  0.0149  0.0681
18575W        W34469  12.791   7.196  12.941  0.1942  0.0529 -0.3705
18576W        W34470  17.018  15.615   0.988 -0.0771  0.2586 -0.1297
18577W        W34471  12.258   4.862  14.989  0.1032  0.1771 -0.2326
18578W        W34472  14.974   2.103  14.894 -0.1469  0.0379  0.1220
18579W        W34473   0.146   0.529   0.976  0.1512  0.0433  0.1159
18580W        W34474  13.338  15.652  12.330 -0.1948  0.1860  0.0749
18581W        W34475   5.571  17.166   2.153  0.2157  0.1871  0.0845
18582W        W34476  13.452   0.493   3.451  0.3740  0.0446  0.4055
18583W        W34477  18.331  11.520   2.839 -0.1079  0.1638 -0.1307
18584W        W34478   9.511   5.933   3.164  0.0296 -0.0511  0.0178
18585W        W34479  13.916   4.807   3.969 -0.2915 -0.2290  0.2275
18586W        W34480   0.956  16.334  10.822  0.2200  0.2876  0.1998
18587W        W34481  12.056   4.339  13.435  0.0887 -0.3134 -0.0294
18588W        W34482  18.257   2.125   2.635  0.3547 -0.1184  0.2362
18589W        W34483   1.677   1.241   5.110  0.3899  0.0603  0.1386
18590W        W34484   4.608   5.011  11.036 -0.1704 -0.1512  0.0884
18591W        W34485   6.553  18.657   4.455  0.1081 -0.0546 -0.0854
18592W        W34486   0.193  10.329   1.859 -0.0235 -0.1695  0.4404
18593W        W34487   1.813  13.448  11.323 -0.1166  0.2897 -0.1148
18594W        W34488   5.923  12.370   4.130  0.2323  0.2250  0.0380
18595W        W34489   6.437  12.674  11.030  0.0047 -0.3208  0.2872
18596W        W34490   8.230  12.857  11.128  0.0549 -0.0296  0.0922
18597W        W34491  17.893   8.312   4.545  0.0180  0.0510  0.1576
18598W        W34492  18.965   4.430  14.748  0.0675 -0.1577  0.0899
18599W        W34493   3.769  19.000   4.589  0.1279 -0.4222  0.1789
18600W        W34494  15.062   2.865  12.034 -0.2122  0.0534  0.1524
18601W        W34495   0.812  16.410   1.699  0.0261  0.0177  0.0040
18602W        W34496   3.165  10.450  12.006  0.2173  0.2641  0.1394
18603W        W34497  11.802   2.378   5.290  0.1792 -0.0934 -0.2541
18604W        W34498   8.028   4.038   1.149  0.0023 -0.2122 -0.3307
18605W        W34499   0.705   6.328   4.928  0.0494 -0.2307 -0.2040
18606W        W34500   7.210   9.730  10.559  0.0153  0.1393 -0.1204
18607W        W34501  15.039  11.051  11.497  0.4364 -0.2077  0.1457
18608W        W34502  14.065   0.406   4.440 -0.0546 -0.0520 -0.1191
18609W        W34503   5.191   1.535   5.407  0.1443 -0.1846  0.0387
18610W        W34504   3.792  16.204  13.724 -0.5182 -0.1373  0.0821
18611W        W34505  10.545  18.040  10.701 -0.0308 -0.0177 -0.0352
18612W        W34506   6.803  11.186  11.251  0.1831 -0.1908  0.3816
18613W        W34507  18.276   0.527   0.143  0.3282 -0.0289  0.0433
18614W        W34508   4.511  15.094  11.059  0.2181  0.0001 -0.1261
18615W        W34509  17.401  10.456   3.087  0.0855 -0.0232  0.0597
18616W        W34510   0.897  16.934  11.837 -0.1127  0.0398 -0.1427
18617W        W34511   1.713  13.824   3.061 -0.1032  0.0730 -0.0512
18618W        W34512  15.029   8.911  10.695 -0.2306  0.0336  0.2956
18619W        W34513  11.633   5.155  11.523 -0.0299 -0.3178  0.0014
18620W        W34514  18.179  16.107  13.883 -0.0620 -0.3285  0.1710
18621W        W34515  16.469  13.754   4.077 -0.0041 -0.0213 -0.1441
18622W        W34516   1.625  11.906   2.716  0.3720 -0.0262  0.2859
18623W        W34517  11.916   7.112  11.833  0.1491 -0.1290 -0.2155
18624W        W34518  17.052   5.345  14.712 -0.2724  0.0928 -0.1394
18625W        W34519   6.781  11.223  10.362  0.4505 -0.0738 -0.3445
18626W        W34520   7.358   5.708   4.150  0.1496 -0.2057  0.0074
18627W        W34521   7.826  16.453   3.438  0.1752 -0.3326  0.1597
18628W        W34522  11.367  14.680  12.259  0.3246  0.0287  0.1739
18629W        W34523  17.562   1.285   1.838  0.0138  0.1632 -0.3433
18630W        W34524   2.847  14.704   5.427  0.3259 -0.2452 -0.1602
18631W        W34525  16.609  13.056   2.643 -0.0085  0.0429  0.3035
18632W        W34526  16.915   3.406   4.354 -0.0569  0.0207  0.2017
18633W        W34527  18.809   8.733  11.999 -0.0699  0.0124  0.1009
18634W        W34528  11.860   2.782  12.042 -0.0293  0.2058 -0.1340
18635W        W34529   4.320   5.757   2.304 -0.0768 -0.0326  0.2947
18636W        W34530  14.613   6.189  10.837 -0.0223  0.4297  0.1137
18637W        W34531   9.819  12.577  11.676  0.2015  0.0323  0.3978
18638W        W34532   1.217   6.627   5.144 -0.0380  0.0854 -0.1884
18639W        W34533   1.321  16.254   2.851 -0.1394 -0.2336 -0.1216
18640W        W34534  10.665   9.151  11.665  0.0740  0.2500 -0.1259
18641W        W34535   0.317  18.938  12.595  0.2648 -0.1334  0.1520
18642W        W34536   8.649   4.432   0.034  0.5067 -0.1515 -0.1509
18643W        W34537   2.141  15.870  11.092  0.1878  0.2670 -0.0748
18644W        W34538  10.893  10.257  10.519 -0.1508  0.2449  0.2703
18645W        W34539  17.312   3.516   2.844 -0.3536 -0.2973 -0.0955
18646W        W34540  18.931   9.187   3.735  0.0645 -0.0010 -0.1302
18647W        W34541  18.647   4.025   1.632 -0.0928  0.2460  0.0990
18648W        W34542   2.213  10.336  13.114 -0.0832 -0.1393  0.2878
18649W        W34543  15.393   5.800  13.440 -0.1443 -0.0418  0.1177
18650W        W34544  14.713  14.574  12.993 -0.0047  0.0995 -0.0574
18651W        W34545  17.955   2.046  12.149  0.2373  0.1468 -0.1551
18652W        W34546  17.162   1.184   0.149 -0.0909  0.4199  0.3344
18653W        W34547   6.823  12.753   5.123  0.1585  0.2911 -0.0935
18654W        W34548   6.677   9.961  11.715 -0.3332  0.1477 -0.2168
18655W        W34549  18.339   3.618  14.359 -0.0327  0.1694 -0.0023
18656W        W34550  15.408  16.507  13.042 -0.1488 -0.0522  0.0475
18657W        W34551  12.387  12.540   4.770  0.0266  0.0745 -0.1316
18658W        W34552   3.083  14.267   0.714  0.0724 -0.0803 -0.0599
18659W        W34553  10.956  16.976   5.426 -0.2782 -0.1680  0.0116
18660W        W34554  12.201   9.979  12.793 -0.2053  0.0439  0.1004
18661W        W34555  13.116  16.156   3.611  0.1917 -0.1026  0.1806
18662W        W34556   2.448   0.940   5.785  0.3117 -0.0674 -0.0833
18663W        W34557   7.606  14.521  11.300  0.2296  0.1149  0.0878
18664W        W34558  16.641   8.516  10.019  0.2061  0.3389  0.0855
18665W        W34559  16.067   4.348   0.009  0.1616  0.2883 -0.0413
18666W        W34560  13.223  11.420  10.732 -0.0217  0.0843 -0.1364
18667W        W34561   8.137   8.605   2.604  0.0974 -0.6070  0.3252
18668W        W34562   6.007   4.536   1.327 -0.0723  0.3823  0.2824
18669W        W34563  11.690   0.165   4.164  0.0520 -0.2689  0.0306
18670W        W34564  16.884  18.053  14.992 -0.0853  0.0234 -0.1895
18671W        W34565  16.906   1.641   4.613  0.2651 -0.1995 -0.0324
18672W        W34566   1.838   0.056   0.903 -0.3747  0.2578  0.1485
18673W        W34567  13.941  15.967  14.770  0.0914 -0.3426 -0.3418
18674W        W34568  10.345  18.864   5.579  0.0872 -0.0941  0.0597
18675W        W34569   2.016   7.811  15.095  0.1344 -0.1599 -0.2046
18676W        W34570   7.654  12.841  11.877 -0.1706  0.0476 -0.0982
18677W        W34571  16.285  19.131  12.265 -0.0357  0.2271 -0.3605
18678W        W34572  13.948  16.845  11.718  0.0504 -0.0851 -0.1522
18679W        W34573  18.696  14.062   1.075  0.0553 -0.0132 -0.0141
18680W        W34574  18.958  10.944  11.063 -0.1895  0.2534  0.1240
18681W        W34575  11.668  13.363  10.757  0.0033 -0.1362  0.0451
18682W        W34576   9.903  14.502   4.919  0.3482 -0.1459 -0.4819
18683W        W34577   7.859  17.473   5.342 -0.0630  0.0884  0.4493
18684W        W34578   2.822  18.129   5.894  0.2718  0.1910 -0.1996
18685W        W34579  17.453  14.924   3.890  0.1427 -0.3842  0.1440
18686W        W34580  16.544  12.081  11.272  0.5047 -0.0248  0.2335
18687W        W34581  16.227  11.388   2.446  0.0541 -0.2632 -0.2494
18688W        W34582   6.254  16.490  13.357 -0.0737 -0.2545 -0.2581
18689W        W34583   8.233  12.735  13.240  0.3515 -0.0281 -0.2608
18690W        W34584  17.048   4.814  13.554  0.5074  0.2269 -0.1473
18691W        W34585  11.530  10.689  12.855 -0.1258 -0.3029 -0.4988
18692W        W34586  17.203   2.485   2.551 -0.0994  0.1916 -0.2400
18693W        W34587   4.072  13.143   0.442 -0.1372  0.1779 -0.0357
18694W        W34588   7.245   9.897   0.741  0.0504  0.0755 -0.1506
18695W        W34589   5.123  15.194   0.662  0.0216  0.1628 -0.2049
18696W        W34590   5.120  16.531  11.591  0.1377  0.1498  0.0386
18697W        W34591  12.045   7.399  11.146  0.1757  0.0760  0.1488
18698W        W34592  17.589   7.252  13.967 -0.0800 -0.2425 -0.4441
18699W        W34593  15.577   7.450  11.325 -0.1109  0.0341  0.0990
18700W        W34594   0.628   1.810  11.724  0.2591 -0.0672 -0.1176
18701W        W34595   4.662  17.060  12.208 -0.0450 -0.0813 -0.1002
18702W        W34596  18.159   6.795  11.759 -0.0626 -0.0763 -0.3617
18703W        W34597  12.192  11.927   5.623  0.3527  0.0613 -0.3086
18704W        W34598   4.000   5.227   4.037  0.1521  0.3459 -0.1402
18705W        W34599  12.759  16.666   3.363  0.0582  0.2498 -0.0678
18706W        W34600   1.587   8.113   5.590 -0.0359 -0.3125  0.1618
18707W        W34601  15.081   9.634  14.249  0.1237  0.0125 -0.0906
18708W        W34602   1.491   7.293  12.527  0.1211  0.2563  0.1582
18709W        W34603   9.395   5.803  11.341  0.0369  0.2721 -0.2376
18710W        W34604  10.129  18.141   2.930 -0.0502 -0.0358  0.2444
18711W        W34605   8.622  17.527  14.994 -0.1468  0.2489  0.1914
18712W        W34606   8.442   4.263  11.114  0.1608 -0.4490  0.1394
18713W        W34607   6.678  13.742   2.238 -0.0827  0.1803 -0.0844
18714W        W34608   7.616  16.353   1.669 -0.0029  0.1889  0.1163
18715W        W34609   5.298   4.853   4.891 -0.0754 -0.1149 -0.1984
18716W        W34610   3.462   7.484   4.612  0.2488  0.1630  0.0060
18717W        W34611  18.149  13.446  10.438 -0.0583 -0.2340  0.2573
18718W        W34612   0.504   7.519   1.686  0.3961 -0.0994  0.0423
18719W        W34613   6.254   5.360   0.624  0.0079 -0.0251 -0.3425
18720W        W34614   6.532   9.632   2.405 -0.1397 -0.5074  0.0625
18721W        W34615  18.578   6.263   0.632  0.0087 -0.1079  0.2300
18722W        W34616   0.729   2.491   3.146 -0.2407  0.2441 -0.0825
18723W        W34617  16.285  15.238   5.174 -0.1451  0.0717 -0.4114
18724W        W34618  11.156   3.253  14.101  0.2278  0.0624 -0.3081
18725W        W34619  18.436   1.747   0.389 -0.2398  0.5568  0.3367
18726W        W34620  10.027   9.332   3.470 -0.1689 -0.0546  0.3468
18727W        W34621  15.056   5.788  14.213 -0.4033  0.1807 -0.2103
18728W        W34622   8.915  19.137  11.082  0.2367  0.3818  0.1067
18729W        W34623   7.151   9.918  12.095  0.0084  0.2662  0.0564
18730W        W34624   5.426  14.050  11.379 -0.0050  0.4198  0.0538
18731W        W34625   7.762   8.809   1.375 -0.0970 -0.1404  0.1636
18732W        W34626   1.869  11.826  13.554 -0.0030 -0.0043 -0.0666
18733W        W34627  11.886   8.906   0.200 -0.4501  0.2774  0.0578
18734W        W34628  16.560   0.420   4.231  0.3174 -0.5241 -0.1124
18735W        W34629   4.063   1.720   5.549 -0.1910  0.0693  0.2363
18736W        W34630   1.277   0.217   0.308 -0.2811 -0.1931  0.0337
18737W        W34631  15.681  10.780  12.475 -0.1784  0.0111  0.0599
18738W        W34632   8.617  14.346   4.712 -0.1938  0.4457  0.3531
18739W        W34633  13.114  14.374   4.656  0.1070 -0.4585  0.1137
18740W        W34634  16.766  12.339  14.383  0.1208  0.1096 -0.2625
18741W        W34635   9.362  14.608   2.317  0.1273  0.2035  0.1708
18742W        W34636   7.261  13.643  14.198 -0.1049  0.1095  0.3432
18743W        W34637  10.188  13.142  14.576 -0.1398  0.1057  0.1871
18744W        W34638   2.924   6.816   1.783 -0.0866 -0.0219 -0.2383
18745W        W34639   3.489  14.229   4.457  0.0803  0.1504 -0.1368
18746W        W34640   9.301  18.831   2.775  0.3443 -0.2218 -0.1774
18747W        W34641   0.896   8.931  13.914  0.3645  0.0181  0.0393
18748W        W34642   7.322  16.129   3.907 -0.0365  0.1131 -0.0164
18749W        W34643   2.202   2.709  10.522  0.2406 -0.2289 -0.2644
18750W        W34644   4.308   2.993  14.642 -0.1298  0.0969  0.1666
18751W        W34645  18.706   8.738  12.901  0.0050 -0.0513 -0.0828
18752W        W34646   2.460  12.158  12.003  0.0238 -0.1818  0.2805
18753W        W34647   2.097   2.594   2.874  0.3889  0.2138  0.0121
18754W        W34648   7.598  12.983   4.012 -0.2893 -0.2518  0.0910
18755W        W34649  16.610  18.554  14.237 -0.1080  0.1400 -0.1223
18756W        W34650   6.681   2.503  14.963 -0.0657 -0.1437  0.1072
18757W        W34651  14.491  13.012   4.589  0.0435 -0.3577  0.0679
18758W        W34652   7.731   1.751  14.565 -0.2512 -0.1647  0.1274
18759W        W34653   8.046  16.897   9.513 -0.1123 -0.1066 -0.2308
18760W        W34654  13.493  14.397   0.036 -0.0566 -0.4617 -0.2771
18761W        W34655   6.743   2.478   0.293 -0.4063  0.1131 -0.0024
18762W        W34656  13.287   4.099  13.336  0.3343 -0.2795 -0.0264
18763W        W34657  10.790   4.913   0.580  0.0589 -0.1073 -0.4391
18764W        W34658  10.162  10.739  12.937  0.2620 -0.1068  0.1439
18765W        W34659  18.040   2.524   3.049 -0.1070 -0.0505  0.0888
18766W        W34660  18.197  13.032   3.393 -0.1744 -0.2941  0.1940
18767W        W34661   7.763  13.852  11.444  0.1604 -0.0874  0.1939
18768W        W34662  11.628  18.115  12.458 -0.3134  0.1002 -0.1661
18769W        W34663  14.392   2.768  11.346 -0.1741 -0.2295 -0.1757
18770W        W34664  11.245  11.145  13.756 -0.1435 -0.1614  0.0754
18771W        W34665   9.219   3.374   4.191 -0.0563  0.0951 -0.2577
18772W        W34666  10.174   1.781   1.868 -0.0081 -0.1912  0.0003
18773W        W34667   2.564  12.129  12.606 -0.1446  0.1703 -0.3148
18774W        W34668  15.138  18.866  12.593 -0.0564 -0.4553 -0.2931
18775W        W34669  11.470  12.524   4.707 -0.1008 -0.0948 -0.0474
18776W        W34670  18.699   9.838   8.878  0.0942 -0.0960  0.1803
18777W        W34671   5.000  15.274  14.071 -0.0043  0.0107  0.0554
18778W        W34672  16.128  10.149   3.963  0.3470  0.0036 -0.1940
18779W        W34673   4.440   9.619  11.622  0.0233  0.0800  0.1175
18780W        W34674  11.787   3.052  13.708  0.0802  0.2676  0.3755
18781W        W34675   4.918  16.897  12.655 -0.1530  0.0594  0.4763
18782W        W34676   7.832   7.534   3.354  0.0893  0.2445  0.2534
18783W        W34677  12.821  13.341  11.640  0.1779  0.2158 -0.0407
18784W        W34678  11.540  16.648  12.943  0.1574 -0.2323 -0.1451
18785W        W34679   7.766  18.375   1.836 -0.0360 -0.3238 -0.3813
18786W        W34680  14.165  11.056  12.372 -0.0469  0.1606 -0.1275
18787W        W34681   6.139   5.465  11.597  0.1063  0.0091  0.0442
18788W        W34682   3.143   2.438   2.965 -0.0081 -0.3093  0.0807
18789W        W34683   2.410  16.645   0.929 -0.2520  0.0167  0.1088
18790W        W34684  13.639  13.451  11.162  0.3078  0.0859  0.3873
18791W        W34685   4.884  12.333   4.189  0.2422  0.1333 -0.0169
18792W        W34686  13.490  16.473  14.817  0.0057  0.0148  0.0212
18793W        W34687  17.399   0.487   5.848 -0.2524  0.2355 -0.2784
18794W        W34688   3.721   7.514  10.980 -0.0938  0.2623 -0.1548
18795W        W34689   5.877  14.270  11.370  0.1564  0.0011  0.1754
18796W        W34690  12.232   1.565   5.855  0.0451 -0.1017  0.1167
18797W        W34691   4.372  14.443   3.875  0.1802 -0.2384  0.2840
18798W        W34692  14.455   8.445   0.742 -0.3409 -0.1667 -0.0292
18799W        W34693  12.780  16.154   4.881 -0.3514 -0.1277 -0.2963
18800W        W34694   3.556  13.599   4.166 -0.2180 -0.0676 -0.0233
18801W        W34695   2.596   9.530   2.309 -0.0339  0.4157 -0.0062
18802W        W34696   7.994  18.894   3.337 -0.1599 -0.0524  0.3959
18803W        W34697  18.897   1.486   5.741 -0.1456 -0.0422  0.3048
18804W        W34698   1.003   7.332  12.946  0.1352  0.0653 -0.2239
18805W        W34699  16.273  11.774  10.136  0.0706  0.0137 -0.0874
18806W        W34700   8.911   6.573   4.686  0.1636  0.1740 -0.1601
18807W        W34701   3.365  18.818   3.104 -0.0444 -0.0438  0.1514
18808W        W34702  10.458  16.004   0.633 -0.1489  0.0464 -0.1565
18809W        W34703  19.162  15.701   2.830 -0.0922 -0.1506  0.0942
18810W        W34704  11.457   1.346  13.692  0.2136  0.2064 -0.1515
18811W        W34705  14.600   8.150   1.963 -0.2099  0.1808 -0.2478
18812W        W34706   4.355   8.703   2.260 -0.1091  0.0503  0.0564
18813W        W34707  18.818  17.720  14.744 -0.0766 -0.1350 -0.1050
18814W        W34708   2.532   9.404   4.073  0.2728  0.1428 -0.0993
18815W        W34709  16.608   1.313   4.976  0.1484 -0.1660 -0.0886
18816W        W34710   9.647  18.932   2.384  0.2607 -0.0763  0.0459
18817W        W34711  13.649  18.686   0.780  0.0327 -0.1068  0.0212
18818W        W34712   5.250  19.132  10.650 -0.1834  0.0498  0.0057
18819W        W34713  12.474   7.104   4.163  0.3289  0.1799  0.1992
18820W        W34714   5.957  12.786  11.072 -0.0146  0.2598  0.3082
18821W        W34715  11.794   5.701   0.576  0.2356 -0.2348  0.4451
18822W        W34716   1.530  11.062   4.690  0.0200  0.2671 -0.0389
18823W        W34717   5.734  17.368  14.028 -0.2970 -0.1527  0.0220
18824W        W34718  18.752  10.235   0.360  0.2348  0.1177  0.0312
18825W        W34719  10.837   8.149  12.484 -0.2202 -0.2300 -0.0445
18826W        W34720   8.364  10.266   2.018 -0.3061  0.1058  0.0594
18827W        W34721   2.572  18.111   5.006  0.1115  0.2102  0.0370
18828W        W34722  14.518   4.190  14.221  0.2410  0.2044 -0.2810
18829W        W34723  12.481  18.912   4.708  0.0494  0.1528 -0.0102
18830W        W34724  10.163   6.652   4.624  0.1927  0.0117 -0.2660
18831W        W34725  15.020  10.024  10.329 -0.2925 -0.2167  0.1003
18832W        W34726   2.772   7.923  14.908 -0.1112  0.0186 -0.0342
18833W        W34727  10.938   1.842   3.838  0.3488 -0.2606  0.1550
18834W        W34728  18.242  17.990   5.499 -0.1910 -0.1804  0.2716
18835W        W34729   6.583  12.554  12.351 -0.0019 -0.2037 -0.0435
18836W        W34730   1.864  11.043  12.346  0.0239  0.0036  0.2311
18837W        W34731  17.398   3.321  14.121  0.0570  0.1411  0.0524
18838W        W34732   8.689   5.645  12.956 -0.1252  0.0440 -0.0762
18839W        W34733   9.823  18.257  11.415  0.0942 -0.0981  0.1715
18840W        W34734   3.467   0.546  12.996  0.5690 -0.0179  0.1292
18841W        W34735   6.630  15.291   1.331  0.2948  0.1279 -0.3682
18842W        W34736  18.720   9.765   0.317  0.0073  0.0941 -0.0351
18843W        W34737  18.061   7.039   9.756 -0.2460  0.1338 -0.3358
18844W        W34738   1.777   9.945  10.391  0.2140  0.2446  0.3120
18845W        W34739  14.242  10.122  13.908  0.1111  0.1117  0.2837
18846W        W34740  13.865   5.311   0.292 -0.1435 -0.1547 -0.0794
18847W        W34741   8.158   1.232   3.497 -0.1904  0.0889  0.2335
18848W        W34742  14.330   0.339  11.786 -0.2420  0.0603  0.1999
18849W        W34743  17.790   5.376   3.848  0.0276 -0.3198  0.0603
18850W        W34744   8.521   5.289  12.489 -0.0175  0.0382 -0.0435
18851W        W34745  14.244  16.323   0.906 -0.1614 -0.3566  0.3544
18852W        W34746  16.799  18.741  11.402 -0.0769  0.1532 -0.1809
18853W        W34747  17.134  17.689   4.532 -0.0385  0.1310 -0.1438
18854W        W34748  18.354   4.303   0.660  0.2066  0.1673  0.2367
18855W        W34749  18.646  18.319   5.448  0.4379 -0.0789 -0.4924
18856W        W34750  12.633   1.674   2.355 -0.3202 -0.0843  0.1940
18857W        W34751  18.846  17.883  13.276  0.0214 -0.1092  0.0309
18858W        W34752   0.218  13.532  10.445 -0.1124  0.2319  0.1743
18859W        W34753  19.011   1.949   0.890  0.1206  0.2285  0.0105
18860W        W34754   1.170  18.265  12.305 -0.1731 -0.2460  0.1514
18861W        W34755  12.796  15.835  14.008 -0.0886  0.0389  0.1679
18862W        W34756  11.869  17.122  12.438  0.4649 -0.1708  0.0154
18863W        W34757   2.573  17.526   3.743  0.2941  0.0333  0.0961
18864W        W34758  19.018  14.934  10.677 -0.0539 -0.0312  0.0397
18865W        W34759  11.691   6.411   5.405  0.1858 -0.1958  0.3084
18866W        W34760  13.666   9.850   1.517  0.0514 -0.0097  0.2293
18867W        W34761  11.722  13.874   1.829 -0.0488  0.0165  0.0323
18868W        W34762   1.772   7.902   5.016  0.2659  0.2256 -0.0938
18869W        W34763  13.612   0.835  12.720  0.4209 -0.0880 -0.2049
18870W        W34764   0.045   2.242  11.624 -0.1695 -0.1938 -0.0961
18871W        W34765  17.243  12.105  14.462 -0.1583 -0.0884  0.0682
18872W        W34766  12.942  13.597   2.111 -0.1880 -0.3266 -0.0222
18873W        W34767   1.064  16.083  12.416  0.0696  0.1600 -0.1348
18874W        W34768   8.808   9.701   4.558 -0.1665  0.3875  0.0255
18875W        W34769  11.664   3.028  14.933  0.0665 -0.0390 -0.0718
18876W        W34770   1.565  14.155  11.622  0.0845 -0.2127  0.0139
18877W        W34771  10.691   0.417   3.909 -0.1281  0.0210 -0.0416
18878W        W34772  13.035   9.158  14.928 -0.2095 -0.0916 -0.3244
18879W        W34773   7.677  16.159   1.184 -0.0866 -0.3558 -0.1945
18880W        W34774  18.049   9.425  13.437 -0.0952 -0.0364 -0.1139
18881W        W34775  10.646   3.765   2.376 -0.3004 -0.3667 -0.3113
18882W        W34776  15.144   7.289  11.483  0.1014 -0.0384 -0.1813
18883W        W34777  13.791   0.095  13.959 -0.0533  0.1087 -0.1846
18884W        W34778  18.231   0.339  14.567 -0.2803  0.0666 -0.2406
18885W        W34779   7.843  10.329  12.589  0.4115  0.1231  0.0099
18886W        W34780   9.989   0.809  14.033 -0.1445  0.0254  0.4845
18887W        W34781  19.014  13.694  15.043  0.1082  0.1369 -0.1953
18888W        W34782   4.982   8.946  10.329 -0.0043  0.0740  0.3206
18889W        W34783   8.683  16.600   0.152 -0.4843  0.0396  0.2770
18890W        W34784   1.521  12.427  11.068 -0.1598 -0.0525 -0.3275
18891W        W34785   0.653   6.201   0.534 -0.0872  0.1795  0.2043
18892W        W34786   4.720   8.251   4.427  0.0457 -0.0235  0.1043
18893W        W34787   8.633  14.002  14.192  0.2513 -0.1380  0.2378
18894W        W34788   7.971   2.682   3.446 -0.1504 -0.0304  0.1388
18895W        W34789   2.494   4.624  12.993  0.2112  0.0513  0.1857
18896W        W34790   7.057  12.257   1.120 -0.0658 -0.2499  0.2728
18897W        W34791  11.279  13.776  10.719  0.1141 -0.2630 -0.0787
18898W        W34792  15.212  16.022   3.235 -0.1972 -0.1467 -0.0531
18899W        W34793   5.042   9.038   1.563  0.0932  0.1062 -0.1520
18900W        W34794   8.965   0.503   2.326 -0.0814  0.1774 -0.0764
18901W        W34795   1.298   0.923   3.882  0.0803 -0.0204  0.1175
18902W        W34796   0.051   3.273  13.440 -0.0442 -0.0512  0.0795
18903W        W34797  10.920   9.035   3.277  0.1604  0.0778 -0.1084
18904W        W34798  11.671  13.861   4.854  0.2590 -0.0907 -0.1721
18905W        W34799   3.450   1.461   4.205 -0.1372  0.4752 -0.3286
18906W        W34800   6.767   3.554  12.995  0.1858 -0.3099 -0.2808
18907W        W34801   5.650   6.607   2.512  0.1504 -0.0299  0.0028
18908W        W34802  10.027   0.051  10.764 -0.2985 -0.1349 -0.1560
18909W        W34803  17.471   7.591  13.506  0.2806 -0.4116 -0.0127
18910W        W34804   0.462   2.526   5.381 -0.2873  0.0296  0.1045
18911W        W34805   1.684  16.348  14.627 -0.0688  0.1080  0.0154
18912W        W34806  18.684  16.387  12.397  0.0843  0.1886 -0.1620
18913W        W34807   2.498  13.423   4.938 -0.0693  0.1931  0.0666
18914W        W34808  14.484  10.251  11.947 -0.1620 -0.2419  0.0017
18915W        W34809   3.391   3.850  13.020  0.2231  0.0891 -0.2257
18916W        W34810   1.947  12.631   4.381  0.0634  0.2062 -0.1464
18917W        W34811   0.559  18.841  13.096  0.1294 -0.1919 -0.1433
18918W        W34812  11.658  11.775  12.771  0.2274 -0.2700 -0.0636
18919W        W34813  13.720  14.593   0.911 -0.1355 -0.0692  0.1702
18920W        W34814  13.067   3.188   4.105  0.3354 -0.0051 -0.4685
18921W        W34815   7.562   4.147  10.564 -0.2055 -0.1026  0.3640
18922W        W34816   8.564   4.797  11.513  0.4325  0.2640  0.1873
18923W        W34817   9.881  14.882   2.303 -0.1205 -0.2454  0.1645
18924W        W34818  16.059   5.418   2.258 -0.1811 -0.1880 -0.1236
18925W        W34819   4.562   8.537  13.713  0.5118  0.1240  0.2744
18926W        W34820   5.186   9.236  13.413 -0.2397 -0.1486 -0.0498
18927W        W34821   7.801   3.194   1.343 -0.3481  0.2289 -0.0631
18928W        W34822   8.257   4.240   2.671  0.0707  0.3422 -0.3041
18929W        W34823   4.192  16.848   4.439 -0.3682 -0.0569 -0.0321
18930W        W34824   3.134   7.850  14.545  0.1753  0.0251 -0.1907
18931W        W34825   0.451   6.643   4.498  0.0236 -0.0668 -0.0860
18932W        W34826   9.504   9.312   4.261 -0.2716 -0.0467  0.2403
18933W        W34827  17.516   4.637   4.107 -0.0196 -0.2506 -0.1791
18934W        W34828   8.227  12.314  14.535 -0.1183 -0.4038 -0.1242
18935W        W34829  16.446   5.779  12.481  0.2177  0.1396  0.0699
18936W        W34830  17.844  13.041   3.969  0.2974  0.1209 -0.0177
18937W        W34831  16.130  11.980   1.198 -0.0079 -0.1880 -0.1801
18938W        W34832   6.963  10.322  12.365  0.2202 -0.1794  0.0167
18939W        W34833  14.939   3.117  14.757 -0.1292  0.1173 -0.0404
18940W        W34834   7.055  17.531   2.909 -0.0936 -0.0383 -0.0856
18941W        W34835   8.941  18.152  15.040 -0.1156  0.0995  0.1089
18942W        W34836   6.945  12.838  12.616  0.1068 -0.0973  0.1844
18943W        W34837   4.828   9.529  14.953 -0.1150 -0.0346  0.0787
18944W        W34838   8.282  18.149   9.915  0.0145 -0.0981  0.1267
18945W        W34839   3.877  18.744  12.229 -0.0201 -0.2416 -0.1110
18946W        W34840  16.812   2.102   2.876  0.2642 -0.1153 -0.3312
18947W        W34841  11.149  19.132   1.323  0.0084  0.0626  0.2727
18948W        W34842   2.649  10.160  12.434 -0.1138 -0.0412  0.1564
18949W        W34843  11.168   9.392   1.754  0.0146  0.1697 -0.2295
18950W        W34844  13.607  15.531   1.803 -0.0090  0.0867  0.1323
18951W        W34845   9.265  11.938  11.851  0.0736  0.0738  0.2498
18952W        W34846   6.928  12.356  11.422 -0.1010  0.0422  0.2123
18953W        W34847  12.935   7.847   5.536 -0.0417 -0.3138 -0.0396
18954W        W34848   7.986  16.995   4.376 -0.1811 -0.0360  0.0649
18955W        W34849   0.123  14.505   9.801  0.1526 -0.1922 -0.1408
18956W        W34850  12.973  17.684  14.232 -0.5201  0.0186 -0.0180
18957W        W34851   1.596  14.489   3.202  0.0765 -0.0816  0.1324
18958W        W34852   9.783   0.525  14.552  0.1523 -0.0924 -0.2239
18959W        W34853  18.830  18.641   1.514 -0.1048 -0.0976 -0.1607
18960W        W34854  15.280   0.627  13.180  0.0392  0.0666  0.0599
18961W        W34855   6.789  17.887   2.387 -0.0800  0.2103  0.3514
18962W        W34856   4.884   5.344  12.099 -0.1264  0.0512  0.0876
18963W        W34857   6.523  19.022   5.183  0.0725  0.0829 -0.1512
18964W        W34858   7.868   0.559  12.885 -0.0323 -0.1350 -0.1935
18965W        W34859  16.913   9.318  12.019 -0.2696 -0.0780  0.0087
18966W        W34860  13.032  18.967   4.571 -0.3801 -0.3987 -0.2809
18967W        W34861   9.236   9.350  13.866  0.1047 -0.2240 -0.3012
18968W        W34862   8.872   2.533   3.708  0.4300 -0.2951  0.0866
18969W        W34863   6.029   4.306  14.938  0.0737  0.1503  0.2641
18970W        W34864   4.282   1.602  10.576 -0.0444  0.1423  0.3213
18971W        W34865  11.897  10.740  10.995  0.0954  0.0046  0.2672
18972W        W34866  13.106  10.469   2.199  0.0870 -0.0586 -0.2215
18973W        W34867  16.038  16.922   0.705 -0.1769  0.0131 -0.1374
18974W        W34868  13.830  10.385  13.774  0.1223 -0.0187  0.2286
18975W        W34869   4.371   2.581  14.940 -0.1130  0.0856 -0.2722
18976W        W34870  18.154   4.070   5.370  0.3096 -0.2540 -0.1395
18977W        W34871   5.035  11.534  10.488  0.0458 -0.0140  0.0623
18978W        W34872   0.058   2.694  12.328  0.0142  0.3429 -0.0116
18979W        W34873   6.180   5.719   5.648  0.0713  0.1810 -0.1594
18980W        W34874  13.017   4.686  11.868 -0.1280  0.0438  0.2134
18981W        W34875   0.471  15.419  12.526 -0.2728  0.3132  0.1685
18982W        W34876  12.162   4.945   1.607  0.2023  0.0496 -0.4507
18983W        W34877   7.733   6.247   4.829 -0.0102  0.4052  0.0656
18984W        W34878   7.574   9.939   3.293  0.3170 -0.2674 -0.0352
18985W        W34879  12.003   4.357  11.596 -0.0815  0.0160 -0.0381
18986W        W34880  11.412   1.008   5.430  0.1737 -0.3926 -0.1235
18987W        W34881  12.260   8.186  14.438  0.1858 -0.1996  0.0659
18988W        W34882   3.439  14.718   4.823  0.0016 -0.1787  0.2036
18989W        W34883   6.520   7.598  12.034 -0.0724  0.1075  0.0841
18990W        W34884  18.206  13.956   3.797 -0.3479 -0.0163 -0.1466
18991W        W34885   2.182   3.657   3.746  0.1256 -0.3307 -0.3371
18992W        W34886   1.306   0.241  10.923  0.2535 -0.1290  0.1907
18993W        W34887  11.799   7.927   4.179  0.1350  0.0365  0.0225
18994W        W34888  10.063   7.359  10.658 -0.1964  0.2274  0.0857
18995W        W34889   9.033   3.636   9.688 -0.0797  0.0027  0.0274
18996W        W34890   5.807  14.550   0.502  0.1593 -0.1344 -0.0538
18997W        W34891   9.416  17.695  10.596 -0.0360  0.1225 -0.0333
18998W        W34892  14.169  18.083  14.934  0.1247  0.2333  0.2929
18999W        W34893   8.815  13.955  10.331  0.0099  0.1283 -0.0958
19000W        W34894  18.188   0.577   2.516  0.1764  0.0494  0.0251
19001W        W34895  18.775   3.846   4.523 -0.3323  0.0962  0.4024
19002W        W34896  10.827  11.179   4.751 -0.0310 -0.2917  0.1816
19003W        W34897   4.053  13.573  13.719  0.2574 -0.1700  0.1248
19004W        W34898   9.964   2.366  14.093 -0.2181 -0.0287  0.0756
19005W        W34899   5.770  14.208  13.649 -0.1338 -0.0347 -0.2369
19006W        W34900   5.088   6.866  11.590  0.0056 -0.2544  0.0138
19007W        W34901  11.349   2.118  11.645 -0.0006  0.0922 -0.3082
19008W        W34902  16.787  16.982   4.640 -0.1007  0.2640 -0.0182
19009W        W34903  15.967   9.066  12.419  0.1186  0.0172  0.0339
19010W        W34904   8.543   1.870  14.405  0.0103 -0.3502  0.0927
19011W        W34905   7.259  12.680   3.803  0.1659  0.0942 -0.3458
19012W        W34906   4.626   5.619  12.741  0.0821  0.0493  0.5868
19013W        W34907  13.766   8.556   2.484  0.1085 -0.4196  0.3487
19014W        W34908   3.822   3.174   3.632 -0.0115  0.0880  0.1247
19015W        W34909  17.589  14.477   3.636  0.2860  0.0637  0.0741
19016W        W34910   0.020   9.391  11.056 -0.0812 -0.2203  0.1073
19017W        W34911   8.494  16.157  14.460 -0.0097 -0.4742  0.0139
19018W        W34912   9.809   4.724   3.381 -0.0049 -0.1282  0.1132
19019W        W34913  18.620  15.148  10.909 -0.0149 -0.1256  0.2907
19020W        W34914   7.767   4.007   2.589 -0.0526 -0.0189  0.3036
19021W        W34915   0.517   2.113  10.749 -0.0055 -0.3296  0.0903
19022W        W34916  17.957   1.037   4.196 -0.1611 -0.2385  0.3735
19023W        W34917  12.418  18.359  13.287  0.1502  0.3038 -0.0940
19024W        W34918   7.594   2.559  12.227 -0.2093 -0.1173  0.0689
19025W        W34919   9.371  14.425  13.287 -0.0670 -0.1551  0.1256
19026W        W34920   1.354   9.822   0.807  0.0048 -0.0463  0.1988
19027W        W34921  18.012  14.764  14.586 -0.0857 -0.1170  0.1737
19028W        W34922  18.158  12.059  12.058 -0.1360  0.3995  0.1271
19029W        W34923  10.952  14.058   3.938 -0.2010 -0.0880  0.2489
19030W        W34924   5.783   6.741   0.365  0.0516 -0.0527 -0.1783
19031W        W34925   3.739  15.436   3.455  0.0914  0.1357  0.0313
19032W        W34926   6.620   7.194  13.097 -0.1731 -0.0515  0.2382
19033W        W34927  16.913   5.531  14.265 -0.1046 -0.0653 -0.4859
19034W        W34928   0.222   8.559   1.960  0.1591 -0.1431 -0.2504
19035W        W34929  14.534   0.604   2.994  0.1659 -0.4135 -0.2649
19036W        W34930   9.486  12.466   3.917 -0.0970 -0.0778  0.0286
19037W        W34931   4.940  12.332   2.327 -0.4257  0.0775  0.0085
19038W        W34932   9.407   9.718  11.414 -0.2128 -0.0323 -0.0984
19039W        W34933  14.336  13.520  10.562  0.0642 -0.0164  0.0651
19040W        W34934   9.654  14.459   4.456  0.1553  0.2521  0.0077
19041W        W34935   4.077  15.363  11.000  0.4415 -0.1923 -0.4326
19042W        W34936  15.323  14.511   2.237  0.0244 -0.2388 -0.3869
19043W        W34937  12.989   9.303   2.985  0.3166  0.1323  0.2452
19044W        W34938  15.517  15.029  13.330 -0.0717  0.0511 -0.0350
19045W        W34939   8.163  16.451   0.848 -0.1823  0.3339 -0.0519
19046W        W34940   6.439  18.825   1.429 -0.1622 -0.1610  0.3844
19047W        W34941   8.205   7.243   0.562 -0.0547 -0.1161 -0.5326
19048W        W34942   7.307   4.877   1.470  0.0682  0.0870 -0.2534
19049W        W34943   4.101   0.754   0.492  0.3493  0.2677 -0.1534
19050W        W34944  13.384   9.573   2.263 -0.1664 -0.1516  0.1296
19051W        W34945   5.871  15.632   0.732  0.3363  0.0649 -0.0005
19052W        W34946   5.704  16.498   2.936  0.0602  0.2900 -0.0432
19053W        W34947   0.543   4.858  13.599 -0.2224 -0.1521  0.2115
19054W        W34948  18.797  13.175  13.794  0.1116 -0.2208 -0.0396
19055W        W34949   5.938   3.624  12.687 -0.0662 -0.1537 -0.0550
19056W        W34950  11.024  15.294   5.368  0.2063  0.2599 -0.0908
19057W        W34951   7.472   4.427  12.047 -0.0576 -0.0286  0.1505
19058W        W34952  16.500   0.229  13.176  0.2915  0.1298 -0.1493
19059W        W34953   3.318  15.268   4.767  0.0948 -0.1048  0.0177
19060W        W34954  17.034   3.900   2.996  0.1366  0.2095 -0.2122
19061W        W34955  15.289   9.177   4.679  0.0052 -0.2297 -0.1799
19062W        W34956   5.018  13.719   3.474  0.2189 -0.0102 -0.3257
19063W        W34957   4.750   4.645  13.248  0.1577 -0.3953 -0.1275
19064W        W34958  14.451  12.825  14.736 -0.1909 -0.6045  0.0923
19065W        W34959  17.889   5.393  11.516  0.1872 -0.1783  0.1118
19066W        W34960   9.783  11.116   2.533 -0.3521 -0.2726  0.3311
19067W        W34961  11.740   1.480   3.741  0.2428 -0.3975 -0.1960
19068W        W34962   4.400  12.623   1.183  0.0243 -0.1156 -0.1047
19069W        W34963  12.126   5.569   2.499  0.4869 -0.1663  0.1558
19070W        W34964  16.580  17.511   1.814  0.0714 -0.3156 -0.0002
19071W        W34965  12.484  11.745   0.897  0.1405  0.0599  0.0908
19072W        W34966   6.122  11.904   4.390  0.4191  0.1143 -0.2516
19073W        W34967   1.934   3.803   3.347  0.0319 -0.1140  0.0611
19074W        W34968  14.664   1.604   3.133 -0.1269  0.0473  0.0902
19075W        W34969   9.934   6.826  14.969  0.1670 -0.0009 -0.4911
19076W        W34970   0.595  11.101   3.154 -0.3649  0.6252 -0.0502
19077W        W34971   9.758  18.655  12.785 -0.1740 -0.3355  0.1646
19078W        W34972   2.251  18.092   0.749  0.4429  0.1752 -0.1918
19079W        W34973   6.157   7.524  10.997  0.1675  0.0268 -0.1930
19080W        W34974  15.207   9.835  12.816 -0.0965 -0.1326 -0.3253
19081W        W34975  13.435  10.730   0.953  0.2498 -0.2093 -0.2982
19082W        W34976  13.011  16.385  12.771  0.2179 -0.2407  0.2612
19083W        W34977  11.554  10.912   1.814 -0.3802 -0.1940  0.1015
19084W        W34978  12.365  12.201   5.199 -0.3296 -0.1722  0.0422
19085W        W34979   4.913  13.201  11.166  0.0683 -0.2060  0.2499
19086W        W34980  14.065  11.217   0.124 -0.1828 -0.2559 -0.3906
19087W        W34981   2.415   6.677   2.903  0.2061 -0.1814  0.1291
19088W        W34982  12.277  15.620  11.584  0.2547  0.0240 -0.0810
19089W        W34983   0.129   6.464   3.452 -0.2344  0.0047 -0.2306
19090W        W34984   1.949  16.045   4.559 -0.0480  0.0083 -0.1354
19091W        W34985   1.037  17.161   3.211  0.1852 -0.0505 -0.0525
19092W        W34986  15.160  13.840   2.961 -0.5549 -0.1196  0.0207
19093W        W34987  10.126  13.334  11.032 -0.0172  0.0658  0.0527
19094W        W34988  14.290   4.610  13.134  0.1547 -0.0071 -0.0734
19095W        W34989  12.509  16.423  13.313 -0.0413 -0.1347  0.0550
19096W        W34990  18.351   2.327  14.836  0.0366  0.1263 -0.1116
19097W        W34991  10.184  16.591   1.078 -0.0974  0.0743  0.0613
19098W        W34992   0.791  11.121  13.340 -0.0424 -0.2394 -0.2206
19099W        W34993  16.739  17.931  12.494 -0.0258  0.3451 -0.1745
19100W        W34994  14.223   7.894  11.772  0.1482  0.3569  0.2830
19101W        W34995   9.932   2.553  11.894  0.1047 -0.0360  0.2326
19102W        W34996   3.574  13.373  14.961 -0.0051  0.0179  0.1928
19103W        W34997   5.897  17.430   0.949  0.1112 -0.4546  0.3298
19104W        W34998  15.103   5.967   5.874  0.2862 -0.1884  0.0692
19105W        W34999  16.905   4.546   3.225 -0.1931  0.0349  0.1340
19106W        W35000   9.454   0.827  13.090 -0.1245  0.0030 -0.0455
19107W        W35001  16.222  14.855  10.448  0.0925  0.0096  0.1371
19108W        W35002  11.166   0.418   4.298 -0.3859  0.1985  0.2441
19109W        W35003   1.263   1.004   5.354  0.0062  0.1988  0.0851
19110W        W35004  12.949  17.996  11.037  0.0640  0.1667 -0.3009
19111W        W35005   9.726  18.310  13.838 -0.0761 -0.0153 -0.0038
19112W        W35006   6.879  17.760  13.042 -0.1333 -0.0812 -0.1494
19113W        W35007   1.681   0.216  13.672  0.3747 -0.3262 -0.0069
19114W        W35008  15.586  11.128  11.593  0.0034 -0.0869 -0.2802
19115W        W35009   2.724   5.550  13.854  0.2162  0.1694  0.2736
19116W        W35010   4.979   4.412  13.651 -0.3041  0.0805 -0.0207
19117W        W35011  12.514  19.097   3.754 -0.2060 -0.1699  0.1638
19118W        W35012  10.515  11.782  11.894 -0.0297 -0.0291 -0.2737
19119W        W35013   2.876   5.428   1.106  0.2520 -0.1963 -0.2830
19120W        W35014   3.926  11.071  13.992  0.1687 -0.2519 -0.3089
19121W        W35015   4.293   2.164  14.707  0.0947  0.2001 -0.1817
19122W        W35016   2.261  17.595   2.854  0.1835  0.2802  0.1530
19123W        W35017  12.653  10.691  11.601 -0.0917  0.1066 -0.0011
19124W        W35018  11.906   8.273  10.699  0.4098  0.2678 -0.4314
19125W        W35019   8.014   9.269   1.996 -0.0215  0.1959  0.3179
19126W        W35020  13.337  16.888  13.984  0.0821  0.0545 -0.2600
19127W        W35021  11.273  18.620  14.589  0.1273 -0.1316  0.4111
19128W        W35022  16.879   6.677  12.560 -0.0256 -0.0583  0.1604
19129W        W35023  10.721  15.664   5.018  0.5000 -0.0336 -0.2832
19130W        W35024  18.193   4.594  14.536 -0.1632 -0.1559  0.1259
19131W        W35025   6.023   7.468  12.565  0.1935  0.0357 -0.1918
19132W        W35026   1.483  12.318   3.361 -0.1998  0.4507 -0.1257
19133W        W35027  14.099  12.923   4.249 -0.1722  0.1627  0.0823
19134W        W35028   8.761  10.340   0.526  0.1316 -0.0042 -0.1173
19135W        W35029  18.328   8.327   9.672  0.3041 -0.2243  0.0193
19136W        W35030  18.858  14.836  14.584 -0.0409  0.0822 -0.0235
19137W        W35031  14.992  14.821   4.214  0.2763 -0.3583  0.1428
19138W        W35032  15.973  15.069   2.061 -0.2748 -0.0768  0.1040
19139W        W35033   2.633   1.522   3.761 -0.4155  0.3777  0.0924
19140W        W35034  15.239   5.998   3.397  0.0637 -0.1556 -0.1959
19141W        W35035   9.109   3.954   4.271  0.0220 -0.1252  0.1951
19142W        W35036  11.186   7.917  12.812 -0.2275  0.0245 -0.0737
19143W        W35037  10.980   8.492   4.135 -0.0634  0.5201  0.0275
19144W        W35038   0.928   0.970   0.980  0.1176  0.2541  0.4352
19145W        W35039  16.724   3.092   5.313 -0.0040 -0.1635 -0.0451
19146W        W35040  18.726  14.250  13.751  0.0859  0.3073  0.4226
19147W        W35041   3.809  12.961   2.629 -0.5159  0.1333  0.1950
19148W        W35042   5.395   0.516   0.388  0.1152  0.1761  0.1052
19149W        W35043   4.431   1.425   2.982  0.3500  0.0363  0.0031
19150W        W35044   6.753   9.235   4.289 -0.0915 -0.1262 -0.0279
19151W        W35045   1.402  13.199  13.410 -0.0374 -0.0505  0.0400
19152W        W35046  12.301  16.290   3.740 -0.2930 -0.0121 -0.2385
19153W        W35047   8.662   2.303  12.579  0.1517  0.1697  0.3761
19154W        W35048  14.494  16.870   0.240 -0.1165 -0.0304 -0.1813
19155W        W35049  16.959  18.835   2.509 -0.1105  0.2335 -0.2603
19156W        W35050  13.223  10.832   0.065 -0.1230  0.2015  0.0207
19157W        W35051   6.416  18.458  13.217  0.1108 -0.0403  0.0846
19158W        W35052   7.298   4.013   2.744 -0.6106 -0.1609 -0.4354
19159W        W35053   2.633   2.601  15.131 -0.1036 -0.3405  0.2257
19160W        W35054   2.858  18.911  11.618 -0.1065 -0.1238 -0.3828
19161W        W35055   0.087  17.152  10.141  0.0087  0.3238  0.0100
19162W        W35056  18.029  15.569   3.500 -0.2341 -0.4443  0.0913
19163W        W35057  11.860   6.693  12.136 -0.1246 -0.0568 -0.0463
19164W        W35058  13.817   3.894   5.546 -0.4355  0.0167 -0.2282
19165W        W35059  18.092  19.054   3.505  0.1602 -0.3590  0.0891
19166W        W35060   3.489   5.697   1.795 -0.2043  0.3650 -0.2155
19167W        W35061  14.355   1.131  13.438  0.0080 -0.0220 -0.4874
19168W        W35062  17.055  13.381   4.195 -0.0262  0.1210 -0.1466
19169W        W35063   5.206   0.113   1.253 -0.0327 -0.2607  0.1401
19170W        W35064   1.155  12.638   3.029  0.1225 -0.0338 -0.0170
19171W        W35065  10.634  11.530  12.808  0.1405  0.3270  0.3323
19172W        W35066  12.149  12.524   2.722  0.1318 -0.1453 -0.0080
19173W        W35067  12.027  18.610   2.574  0.2581  0.1018 -0.0479
19174W        W35068  13.298  16.348   1.314 -0.0049 -0.2739  0.3106
19175W        W35069  18.428  10.724  12.341 -0.1133 -0.0296  0.0941
19176W        W35070   2.852   4.152  10.920 -0.0461  0.2604  0.1982
19177W        W35071  17.049   9.649   5.693 -0.0857 -0.0989  0.0301
19178W        W35072   1.350   2.365  14.824  0.2161  0.3185  0.3598
19179W        W35073  16.247  13.818  12.239 -0.0666  0.1380 -0.1646
19180W        W35074  17.912   9.832   0.807 -0.0370 -0.2133  0.1093
19181W        W35075   4.477   9.056   3.404 -0.0475  0.0848 -0.0674
19182W        W35076   2.988  15.846  14.157 -0.4135 -0.0542 -0.3859
19183W        W35077   8.383  13.747   0.309  0.1168  0.2343  0.2353
19184W        W35078  17.037  13.324   2.665  0.0147 -0.2647  0.1432
19185W        W35079   4.109  12.092  11.196  0.3439 -0.1373 -0.0837
19186W        W35080   3.262  11.219   4.638 -0.0078  0.1156 -0.0951
19187W        W35081   8.301  13.205   2.937 -0.0871 -0.1429 -0.0572
19188W        W35082   8.192   7.947   0.807 -0.2845  0.1364 -0.1706
19189W        W35083  15.915  11.199   2.008 -0.0313  0.2537  0.0793
19190W        W35084  19.102  13.846   1.437 -0.1826  0.0686  0.0279
19191W        W35085  15.838   0.280   2.573 -0.0900  0.0137 -0.1961
19192W        W35086   8.595   1.397  12.128 -0.2556  0.1403 -0.1421
19193W        W35087  13.576  19.178   0.623 -0.1221 -0.3840  0.0142
19194W        W35088  12.458  15.534  10.888 -0.2584  0.0016  0.1435
19195W        W35089   3.554  11.682  11.173 -0.0585  0.6034  0.2292
19196W        W35090   8.971  11.901   1.114 -0.3483 -0.0529 -0.1803
19197W        W35091   8.560  14.097   1.421 -0.2966 -0.0276 -0.1379
19198W        W35092   9.564   5.314   2.008  0.2103  0.0861 -0.1172
19199W        W35093  12.393  13.683   1.168 -0.0016 -0.0153  0.0563
19200W        W35094   6.726   6.870   4.249  0.2584 -0.0605 -0.5544
19201W        W35095  16.145  18.728   4.129  0.0848 -0.1394  0.3700
19202W        W35096  16.063   8.474   4.779 -0.1109 -0.0339 -0.0891
19203W        W35097   6.585   8.186  12.157 -0.0801  0.4731 -0.1701
19204W        W35098  10.061   0.955  11.490 -0.1978 -0.0432  0.1274
19205W        W35099   6.262   7.117  13.404  0.1976 -0.3642  0.1084
19206W        W35100   5.059  13.179  13.344 -0.1295 -0.1354 -0.0140
19207W        W35101  10.150  12.471  13.159 -0.1339  0.1819 -0.0718
19208W        W35102  18.061   3.062   5.295  0.0870  0.0139 -0.3469
19209W        W35103   6.148  14.466  10.545 -0.1537  0.0405 -0.3244
19210W        W35104  10.890   8.471   1.814 -0.1363  0.3384  0.0679
19211W        W35105  11.176  11.694  13.754  0.2152 -0.0389 -0.1075
19212W        W35106   2.431   6.565   0.537 -0.2055 -0.0622  0.2068
19213W        W35107   7.163   5.718   1.845 -0.1576  0.3448  0.2483
19214W        W35108  14.404  14.401   0.433 -0.4651 -0.1173 -0.0656
19215W        W35109  15.366  13.741   1.675 -0.1777  0.1482  0.1139
19216W        W35110  15.003   9.212  11.378 -0.0842  0.0340 -0.1380
19217W        W35111  10.667  15.551  10.611 -0.0904  0.3614  0.0303
19218W        W35112   9.344  11.397   1.762  0.2073 -0.5475 -0.1106
19219W        W35113  11.951  12.496   4.982 -0.0899 -0.1981  0.2464
19220W        W35114   6.389  12.383   1.125  0.0450 -0.1382  0.1175
19221W        W35115   0.206  17.452  11.992 -0.2746  0.2245 -0.0573
19222W        W35116   0.164   0.213   4.941  0.0483  0.2972 -0.0549
19223W        W35117  17.559   0.163   1.035 -0.2415  0.1689  0.0369
19224W        W35118   8.749   3.644   4.503 -0.1054 -0.0883  0.1293
19225W        W35119   8.535   6.883   3.272 -0.1784 -0.1339 -0.1606
19226W        W35120  12.729  12.915  11.379  0.3216 -0.0932  0.3282
19227W        W35121  11.466  18.877   4.174  0.1112  0.0021  0.3487
19228W        W35122   1.047  17.361   4.884 -0.5399  0.2209  0.2649
19229W        W35123   3.119   1.646   2.292 -0.2261 -0.1644  0.0691
19230W        W35124   2.711  10.304  14.198  0.0740 -0.0316 -0.3331
19231W        W35125  13.880  16.156   2.694  0.1054 -0.0102 -0.1967
19232W        W35126  14.802   0.383   3.668  0.2044 -0.0594 -0.1087
19233W        W35127   5.005   1.936   2.110 -0.1186  0.0091  0.0401
19234W        W35128  12.459   0.474   2.298  0.1059  0.3037  0.1550
19235W        W35129  13.440   9.297   5.412  0.1505  0.1799  0.0071
19236W        W35130   9.725   1.755  13.050  0.4104 -0.2021  0.4208
19237W        W35131   8.213  16.715   2.532 -0.1906 -0.0584  0.0616
19238W        W35132  16.104   5.861  13.012  0.1053 -0.3170 -0.0528
19239W        W35133   4.045  17.499  11.561  0.1129 -0.0376  0.1097
19240W        W35134  17.703   7.830   3.092  0.2908  0.1430 -0.0103
19241W        W35135   2.611   1.565  12.845 -0.2643 -0.2473  0.1049
19242W        W35136   2.618   2.493  12.246 -0.3376 -0.0557 -0.0376
19243W        W35137   4.619   0.193  11.344 -0.3384  0.4204 -0.0033
19244W        W35138   6.564   0.651  13.284  0.0075 -0.0435  0.1129
19245W        W35139   2.351   5.147  13.945  0.3039  0.2477 -0.0096
19246W        W35140  17.443   0.526  11.267 -0.2046  0.1135 -0.0950
19247W        W35141   0.207  18.004  13.966 -0.0060  0.2341  0.0912
19248W        W35142  14.276  12.522  14.376 -0.1255  0.0524  0.1117
19249W        W35143   0.503   5.811   0.951 -0.2411 -0.0510 -0.1586
19250W        W35144   1.692  14.592  13.867  0.2484 -0.0241  0.1489
19251W        W35145  17.716   0.320  13.822  0.1705 -0.0584  0.3402
19252W        W35146   3.308   0.062   2.820  0.0798 -0.0665  0.1898
19253W        W35147  12.630   6.997  13.937 -0.1498 -0.4101  0.2143
19254W        W35148  14.329   7.435   4.169 -0.1187  0.2195 -0.3335
19255W        W35149   5.848  14.608  10.122 -0.0289 -0.1602 -0.1064
19256W        W35150  18.832  15.677  13.018  0.1604  0.0416  0.0983
19257W        W35151  12.724   4.014   0.867 -0.3658 -0.0776 -0.1970
19258W        W35152  17.378  16.623   3.189  0.1803  0.1160 -0.1185
19259W        W35153   6.576   5.882  14.339 -0.0782  0.1771  0.1937
19260W        W35154  18.016   1.930  10.501  0.1175  0.3435  0.0370
19261W        W35155  11.378   3.634  13.333 -0.1619 -0.3357 -0.1191
19262W        W35156  12.484   8.660  10.293 -0.1662  0.2575 -0.0572
19263W        W35157   2.291   7.706   4.029 -0.0423  0.5562  0.4022
19264W        W35158   7.120   6.283   1.254 -0.3681  0.0967 -0.0371
19265W        W35159   3.202   5.788   2.336 -0.4134  0.0449  0.0652
19266W        W35160  13.159   3.704  12.076 -0.2260 -0.2820 -0.1135
19267W        W35161   5.366  15.277   2.114  0.1368  0.0464 -0.2240
19268W        W35162  19.182  15.581   0.180  0.2399  0.2139  0.3651
19269W        W35163   7.811   0.839  10.813  0.0010 -0.2278  0.0303
19270W        W35164  18.753  11.641   4.430 -0.2509  0.0657  0.1350
19271W        W35165   6.376   5.082   3.028 -0.1904  0.1190 -0.0432
19272W        W35166  11.722   1.426  10.545 -0.1236 -0.2856  0.0560
19273W        W35167   7.525  16.102   2.651  0.0645 -0.0649  0.1114
19274W        W35168   2.720   5.140  12.459 -0.3078 -0.1350 -0.1317
19275W        W35169   2.973   8.949   9.435 -0.0755  0.1212  0.2896
19276W        W35170   4.317  15.673   3.866  0.0648  0.2609 -0.0774
19277W        W35171   5.288   7.958  14.446 -0.2519  0.2820 -0.0746
19278W        W35172  18.746  10.420  11.396 -0.0889 -0.1239 -0.1559
19279W        W35173  12.514   8.838   2.263  0.1996 -0.1240  0.1363
19280W        W35174   0.861   9.395  12.163  0.1625 -0.0862  0.1402
19281W        W35175   8.166  13.626  11.717  0.1675 -0.2754  0.2992
19282W        W35176  18.531  15.412   2.099  0.0002  0.4912  0.1549
19283W        W35177   5.268  14.166   4.051 -0.1601  0.0659  0.0369
19284W        W35178  12.724  15.207   0.109 -0.2301 -0.1191  0.3466
19285W        W35179  13.800  11.956   2.858 -0.1272 -0.0118 -0.0467
19286W        W35180  16.272  15.281  10.655  0.1589 -0.5779  0.2634
19287W        W35181  10.850   5.818   3.036 -0.0903  0.1989 -0.4050
19288W        W35182  12.847  13.144   2.362 -0.2547  0.0023 -0.0367
19289W        W35183   3.826  12.377  11.774  0.2306 -0.3755 -0.4193
19290W        W35184  11.784  18.205  10.380  0.1288 -0.2961 -0.0186
19291W        W35185  15.975  13.900   9.644  0.3567 -0.2438  0.4385
19292W        W35186  17.813  13.972   9.790 -0.0459  0.1137  0.0116
19293W        W35187   1.991   0.316  11.320 -0.0749 -0.0690 -0.1148
19294W        W35188   1.280   4.942   0.199  0.2402 -0.1187 -0.3391
19295W        W35189   0.673   2.328  11.616  0.2244 -0.1913 -0.0939
19296W        W35190   5.803   8.999  14.483  0.2944 -0.0761 -0.2358
19297W        W35191   0.963   6.231  14.886  0.2762 -0.0466  0.2675
19298W        W35192   1.716  11.710   3.229  0.1559  0.3300  0.1163
19299W        W35193   7.149  15.740   4.187  0.2115  0.2706  0.2053
19300W        W35194  10.140   5.671  10.960  0.0575 -0.3012  0.1491
19301W        W35195   7.095   0.003  13.307 -0.2908  0.2173  0.1190
19302W        W35196  18.376   0.015   4.326  0.0346  0.1570 -0.0028
19303W        W35197  12.924   8.979   0.308 -0.2569  0.1129  0.1406
19304W        W35198   9.561   6.900  13.542 -0.1353 -0.1763  0.4227
19305W        W35199   3.154  13.289   4.183 -0.1405  0.0834 -0.1025
19306W        W35200   1.912  11.509   5.460  0.3554  0.0366 -0.1764
19307W        W35201   0.299   5.636  11.993 -0.1139 -0.2275  0.2978
19308W        W35202  17.853  14.688   3.057  0.1680 -0.2288  0.0071
19309W        W35203  12.980   1.250   9.846 -0.0110 -0.0367 -0.3737
19310W        W35204   1.790  14.919  11.058 -0.0612 -0.1024  0.0863
19311W        W35205  12.696   3.041  13.908 -0.0582  0.2048 -0.4696
19312W        W35206  13.660  15.559  11.793  0.0801  0.1409 -0.1098
19313W        W35207  15.699  11.474  12.004  0.1526 -0.1259  0.1604
19314W        W35208   5.816   3.643   5.278 -0.2164 -0.0820  0.3532
19315W        W35209   5.281  12.394   2.783 -0.1590  0.1037  0.0210
19316W        W35210   8.350  17.801   5.097  0.1181  0.2022  0.0839
19317W        W35211   6.180  15.287   3.631 -0.1077  0.2250 -0.1494
19318W        W35212  17.254   7.242   1.428  0.3712  0.2203  0.0376
19319W        W35213  12.315  17.862   3.662 -0.0190 -0.0372  0.0039
19320W        W35214   5.455   5.404  14.294 -0.1963  0.3477 -0.0407
19321W        W35215  16.612   9.428  12.945 -0.1795 -0.1528  0.2293
19322W        W35216  15.729  13.406   1.484 -0.1116  0.2299  0.0616
19323W        W35217  15.126   7.697  13.552  0.0051 -0.1658  0.1967
19324W        W35218   3.554  18.678   0.125  0.4309 -0.3583 -0.2816
19325W        W35219  10.918   9.413   1.190 -0.1353  0.1096  0.1676
19326W        W35220   6.796   2.485  12.894  0.0545 -0.2908  0.1660
19327W        W35221  12.177   4.318   0.929  0.0046 -0.0185  0.0455
19328W        W35222   1.574  10.028   9.508 -0.1122  0.1232 -0.2010
19329W        W35223   3.641  18.929   1.405 -0.1297  0.1056 -0.3255
19330W        W35224  16.757   2.650  11.693 -0.1960 -0.2672 -0.0616
19331W        W35225  17.825  14.774  14.083 -0.3168  0.0388 -0.1031
19332W        W35226   2.018  17.716  11.432 -0.0061  0.0554 -0.1422
19333W        W35227  15.676  15.314  11.113  0.0793  0.1243 -0.0913
19334W        W35228  15.193  13.864  12.515 -0.0661  0.0227 -0.1785
19335W        W35229  11.095   7.277   1.447 -0.0038 -0.0047 -0.2307
19336W        W35230   3.021  16.874  10.936 -0.5077  0.0238 -0.2040
19337W        W35231  19.135  15.899   2.119 -0.1393  0.0348  0.0140
19338W        W35232  14.207  11.961   2.577  0.1309  0.3796  0.3575
19339W        W35233   5.886  13.539  14.100 -0.2589  0.1223 -0.1747
19340W        W35234   4.403  18.931  12.092  0.1323  0.0282  0.3814
19341W        W35235   3.509  10.940   4.398 -0.0420  0.0724  0.0516
19342W        W35236   9.230  14.679  13.726 -0.2410  0.1704  0.1017
19343W        W35237  17.977   9.575  13.920 -0.0446  0.2832  0.1985
19344W        W35238  13.445  11.777  11.077 -0.0421 -0.1972  0.0904
19345W        W35239   2.407  13.835   0.267  0.1246 -0.2719  0.4657
19346W        W35240  17.527   9.283  12.089 -0.1264  0.0115  0.2255
19347W        W35241   1.742   6.685   4.188  0.0525 -0.1667 -0.0943
19348W        W35242  12.484   0.341  14.780  0.0571 -0.0212  0.0879
19349W        W35243   3.372   9.873   0.004  0.4100 -0.1586 -0.4065
19350W        W35244  17.032  10.301   9.790 -0.0138 -0.3557 -0.0610
19351W        W35245   9.641   7.933   1.758 -0.1970  0.2615 -0.2037
19352W        W35246   1.183   0.151   3.201 -0.1069 -0.3563 -0.0131
19353W        W35247   6.265  17.788   1.706 -0.0060 -0.0142  0.1094
19354W        W35248  10.861   3.331   1.362 -0.1258 -0.1676 -0.0190
19355W        W35249  10.665   0.537  10.307 -0.1285  0.2187  0.3020
19356W        W35250  14.406  17.720   4.834  0.3895 -0.2892 -0.1524
19357W        W35251   4.187   5.586  14.839  0.0503  0.2381 -0.1616
19358W        W35252   7.982  11.222   4.572  0.0755 -0.0201 -0.0024
19359W        W35253   1.377   3.471  10.557 -0.2949  0.0315 -0.2502
19360W        W35254  14.465   8.469   1.386 -0.1797  0.0006 -0.0911
19361W        W35255   1.693   0.627  14.514  0.0198 -0.1812  0.2456
19362W        W35256   6.417   1.795   3.018  0.1197 -0.0626  0.2019
19363W        W35257   2.418  17.811  12.739  0.0161 -0.0112 -0.0095
19364W        W35258   2.916  11.049  14.766 -0.0218  0.3670 -0.0779
19365W        W35259  19.022  16.176   5.440  0.1311 -0.0639 -0.0008
19366W        W35260  16.233  13.116   3.046  0.1955  0.1824  0.0005
19367W        W35261   8.375   3.634  13.923  0.0023 -0.0154 -0.0753
19368W        W35262   2.909  11.160   1.119 -0.0209 -0.1515 -0.1070
19369W        W35263   0.286   0.587  14.771 -0.1017  0.2974 -0.2399
19370W        W35264  10.911   3.734   0.503  0.0642 -0.1172  0.1371
19371W        W35265  12.636  11.471   2.501 -0.1218  0.0151 -0.3427
19372W        W35266  13.500  13.765   0.377 -0.1796  0.1940  0.0543
19373W        W35267   3.041   1.482   3.322 -0.3363 -0.1639  0.1696
19374W        W35268   0.397  12.166   3.332 -0.0307 -0.0970  0.1584
19375W        W35269  10.333   7.259   1.327  0.2683 -0.2767 -0.2763
19376W        W35270  18.726   2.183   1.271  0.2027  0.4535 -0.3184
19377W        W35271   7.242   2.364   1.093  0.1969  0.1516  0.1858
19378W        W35272  17.649  15.298  11.055  0.2182  0.1094  0.0437
19379W        W35273   3.872  14.540   3.181  0.0512 -0.0178  0.1659
19380W        W35274  17.026  14.205  11.910  0.3011  0.0947 -0.0610
19381W        W35275  10.784  10.722  11.548  0.5151  0.2553 -0.0440
19382W        W35276   8.669   2.793   2.692  0.0220 -0.0484  0.1587
19383W        W35277  18.051   3.661  12.212 -0.0066  0.1130  0.1666
19384W        W35278   3.925  17.253   4.328  0.1167  0.1515  0.0990
19385W        W35279   7.545  15.290  11.524  0.0253 -0.2284  0.2228
19386W        W35280   1.288  10.205   4.215 -0.0587  0.0405  0.1826
19387W        W35281  13.933  18.635  13.063  0.1489  0.3421 -0.2672
19388W        W35282   6.702   9.647   3.363 -0.1931  0.2160  0.1131
19389W        W35283   7.485   5.719  12.318 -0.2279 -0.0403  0.1838
19390W        W35284  13.340  10.390   3.457  0.5591  0.0744  0.0631
19391W        W35285  16.046  15.263   3.736 -0.0915 -0.0371  0.1047
19392W        W35286   9.290  16.671  14.245 -0.2929 -0.2304 -0.2844
19393W        W35287   4.532   0.008   1.543  0.1214  0.2316 -0.0927
19394W        W35288   2.207  10.659   0.524  0.1731  0.0313 -0.1237
19395W        W35289  12.459  17.607  12.014 -0.4743  0.0645 -0.2330
19396W        W35290   5.146   7.183   2.685  0.3516  0.1509  0.0939
19397W        W35291  17.537   1.462  15.177  0.1938  0.3307 -0.3065
19398W        W35292   0.100  18.219   3.646  0.1642 -0.1259  0.0452
19399W        W35293   6.968  15.663  14.586  0.0214  0.4216 -0.0338
19400W        W35294   9.143  10.445   1.462  0.2364  0.0107 -0.0674
19401W        W35295  15.545   2.639  13.065 -0.1161  0.1180  0.6425
19402W        W35296  13.070  15.768   0.034 -0.1685  0.2056  0.1647
19403W        W35297   7.672   7.856  13.828  0.0811  0.1443 -0.1959
19404W        W35298  13.597  10.817   3.362 -0.0445 -0.2371  0.0239
19405W        W35299  14.150   0.182  11.172 -0.3104  0.5780 -0.0141
19406W        W35300   0.776   0.411  14.691  0.1934  0.0158 -0.0934
19407W        W35301   1.933   8.376   0.685 -0.3438 -0.2252 -0.2210
19408W        W35302  18.121   8.833   1.210  0.2919  0.1122  0.1961
19409W        W35303   5.155   3.934  14.845 -0.1986  0.1640 -0.0899
19410W        W35304  14.422  15.618   2.156 -0.0223  0.0462  0.0071
19411W        W35305  11.212   7.313   4.077  0.0615  0.1356 -0.1543
19412W        W35306   1.579  11.570   1.319 -0.1171  0.2358 -0.0366
19413W        W35307  14.241  13.782   1.105  0.0995 -0.2570 -0.3097
19414W        W35308   9.836   0.540   0.129 -0.0832  0.2569  0.0407
19415W        W35309  10.496   2.040   3.981 -0.0231 -0.1172 -0.0148
19416W        W35310  13.664   4.323  14.607 -0.1663  0.1594  0.0322
19417W        W35311  11.295   5.306  14.216 -0.2903  0.1032  0.2024
19418W        W35312  14.112   4.619   3.431 -0.0882  0.1570  0.0666
19419W        W35313   5.563  10.915   3.852  0.1830  0.4347 -0.0778
19420W        W35314   9.008  15.908   2.305 -0.1314 -0.3109  0.2533
19421W        W35315  15.298   6.566   9.858 -0.0522  0.1046  0.1003
19422W        W35316  17.288  18.666  11.494 -0.1898 -0.1059 -0.0745
19423W        W35317  18.449   9.695  14.145  0.1809  0.0023  0.1134
19424W        W35318  18.292   6.316   4.359  0.1115  0.4003  0.3386
19425W        W35319   6.040  11.507  14.583  0.3216  0.0520 -0.2773
19426W        W35320   8.813   7.054   2.300  0.0396  0.0069  0.1791
19427W        W35321   1.912   8.320  10.405 -0.2831  0.0730  0.2014
19428W        W35322  16.473  18.915   2.693 -0.1608 -0.2035 -0.3882
19429W        W35323   8.184  12.202   2.207  0.0264  0.1726 -0.1255
19430W        W35324   3.010  10.764   1.474  0.0726  0.0546 -0.0233
19431W        W35325  17.110   9.957  15.171 -0.2033 -0.0006 -0.1723
19432W        W35326  11.453  13.312   0.958  0.0223 -0.3541  0.2049
19433W        W35327   6.229  18.124   3.645  0.0816  0.0575  0.2013
19434W        W35328   4.892  11.694  10.970 -0.0958  0.1212 -0.0022
19435W        W35329  10.780  19.031  13.286 -0.2788 -0.1261 -0.3076
19436W        W35330  18.803   0.047  14.509 -0.0212  0.0217  0.2208
19437W        W35331   1.832  13.805  14.567 -0.0062 -0.0535 -0.0153
19438W        W35332   9.830   1.920   2.868 -0.0096 -0.1214  0.2990
19439W        W35333   6.602  13.107   4.177  0.5077 -0.0005  0.0829
19440W        W35334  10.353  18.393  10.018  0.0705 -0.3110  0.2326
19441W        W35335  18.220  12.931  10.440 -0.2400 -0.0791  0.1102
19442W        W35336  17.095   9.913   1.942  0.1148  0.1368  0.1980
19443W        W35337   4.103  10.998  13.160  0.0103 -0.3445 -0.0083
19444W        W35338   4.763  12.600   2.677  0.2960 -0.1343 -0.0049
19445W        W35339   7.970   6.215  14.577  0.0438 -0.1681 -0.1210
19446W        W35340  18.636   3.645  11.741 -0.2496  0.2808  0.0458
19447W        W35341   0.081  14.265  11.224  0.3936 -0.0866  0.0136
19448W        W35342  14.500   8.913   3.125  0.1149  0.0407  0.0363
19449W        W35343  16.864  12.182  13.915  0.2107 -0.3275 -0.2406
19450W        W35344  13.376  18.337   2.887  0.4031 -0.1806  0.0677
19451W        W35345   4.302   8.794   0.426 -0.1408  0.0750 -0.1873
19452W        W35346   0.620  18.959  12.143  0.0547 -0.2956 -0.1978
19453W        W35347   3.607  18.775  14.379 -0.1077  0.0887 -0.0936
19454W        W35348  11.243   1.394   4.491  0.3467 -0.1747  0.1213
19455W        W35349   1.454   8.272  13.927  0.0737  0.0954 -0.1363
19456W        W35350   9.782   8.218  15.180  0.1036  0.0133 -0.2613
19457W        W35351   9.856  10.477  14.235 -0.1242 -0.3803  0.0596
19458W        W35352   8.641   3.956  12.988  0.1075 -0.1142  0.0185
19459W        W35353  17.173   9.679  12.186  0.3483  0.0130 -0.0135
19460W        W35354  16.373  15.344  12.293  0.0291  0.1272 -0.1655
19461W        W35355   3.606   9.080  13.521  0.0353 -0.2753  0.4331
19462W        W35356  16.656  14.199  10.163 -0.0230 -0.0315 -0.1708
19463W        W35357  19.138   4.301   1.116  0.1340 -0.1315 -0.0658
19464W        W35358  10.335   7.747   3.049  0.0480 -0.2168  0.0204
19465W        W35359  15.426   4.398   0.095 -0.2092 -0.0041  0.1813
19466W        W35360   3.798  14.525   2.670 -0.1593 -0.0423 -0.1165
19467W        W35361  12.016   7.536   1.343  0.1198 -0.1248  0.0585
19468W        W35362  10.758  17.968  12.054  0.0545  0.0898  0.3782
19469W        W35363  18.428   2.865  14.887 -0.3299  0.0035 -0.0153
19470W        W35364   1.792  11.434  13.205 -0.3266 -0.2359  0.4590
19471W        W35365  13.841  14.072  13.576  0.0052  0.0540  0.1401
19472W        W35366   7.938   1.324   4.597 -0.2330 -0.1950 -0.1098
19473W        W35367   7.410  12.838  13.362  0.1508 -0.1208 -0.1358
19474W        W35368   5.977   4.070   0.473  0.3103  0.2594 -0.1308
19475W        W35369  16.987   4.447   0.116  0.2274  0.1035  0.0919
19476W        W35370  16.823   9.866   4.735 -0.1988 -0.4042  0.1354
19477W        W35371  11.715   7.806  12.841  0.0047 -0.3511 -0.3662
19478W        W35372   2.300   3.410   0.384  0.0874 -0.3497 -0.0763
19479W        W35373   1.517   6.980   2.691 -0.0673  0.1986  0.0073
19480W        W35374  12.734  12.097  11.879  0.2006  0.1950  0.0310
19481W        W35375  13.225  15.617  10.577 -0.2153 -0.3082  0.3337
19482W        W35376   1.570   1.893   2.092 -0.1860  0.4883  0.0514
19483W        W35377   1.985  18.896  13.808 -0.0276 -0.0105 -0.1020
19484W        W35378  17.860   3.684  13.331 -0.2211  0.1097  0.0541
19485W        W35379  13.800  15.356   1.347  0.0365  0.2047 -0.2098
19486W        W35380   9.129  15.151  12.168 -0.1283  0.1265 -0.2815
19487W        W35381  12.906  18.953   5.057 -0.2123  0.0048 -0.0813
19488W        W35382   3.318  11.100   2.910  0.1550  0.1049  0.1958
19489W        W35383   2.070  11.819   3.788  0.2935 -0.0808  0.5482
19490W        W35384   5.667   0.105   0.306  0.4199  0.0521 -0.0512
19491W        W35385  10.866   5.700  11.154  0.0887  0.0812  0.1185
19492W        W35386  15.153  18.404   0.011 -0.1187 -0.1573  0.2402
19493W        W35387   7.142  17.702   2.034 -0.0868  0.3351  0.1949
19494W        W35388   5.447  15.564  14.111 -0.0034  0.3671  0.1390
19495W        W35389  18.139  11.391   2.388  0.1730  0.0895 -0.3245
19496W        W35390   5.519  12.315   5.140 -0.1028  0.2400  0.0588
19497W        W35391   2.625  18.124  12.372  0.0941 -0.2498 -0.2230
19498W        W35392   2.053  10.999   1.024  0.3218 -0.2566 -0.2631
19499W        W35393  18.009   7.181  12.162 -0.0964  0.3271 -0.0561
19500W        W35394   1.204  14.564  13.823 -0.0475  0.0577 -0.0955
19501W        W35395   7.146  18.533   1.032 -0.2186 -0.0005 -0.0224
19502W        W35396  13.531  17.898  14.291  0.1714 -0.2886  0.0430
19503W        W35397  14.241   1.494  12.111 -0.2577 -0.5088  0.1577
19504W        W35398   8.941  16.718  12.970  0.4014 -0.1042  0.1306
19505W        W35399   3.682  12.153   2.884  0.2362  0.1558 -0.2827
19506W        W35400   6.519   6.602   4.666 -0.1099  0.0949 -0.1061
19507W        W35401   0.861  10.790   2.813  0.3428  0.0666 -0.4544
19508W        W35402  17.007  14.678   5.001  0.0166 -0.1569 -0.0142
19509W        W35403   5.984  12.858  12.741 -0.0258  0.2047 -0.2813
19510W        W35404  15.751  13.895   3.783  0.1258 -0.0797  0.0295
19511W        W35405  12.853  18.549   4.748 -0.1338 -0.0815  0.1775
19512W        W35406   6.762   0.845  13.727 -0.3419 -0.1772  0.0955
19513W        W35407   5.939   8.825   3.835  0.2254  0.1096  0.0647
19514W        W35408   5.756   0.473   2.408 -0.0409 -0.2892 -0.1735
19515W        W35409  18.365   0.386  12.097 -0.5074 -0.0045 -0.0518
19516W        W35410   7.442   1.779  11.793  0.0012  0.0431 -0.0982
19517W        W35411   9.583  18.386   2.510  0.1923  0.0135 -0.1927
19518W        W35412   3.253  17.955   4.082  0.0301 -0.1347  0.1498
19519W        W35413   6.712   7.127  14.446 -0.4691 -0.2728 -0.4964
19520W        W35414  12.775  10.723  14.947  0.1416 -0.2045  0.3927
19521W        W35415  18.216   2.200  14.357  0.2875  0.0717 -0.0479
19522W        W35416   2.553  15.629   3.518  0.3814  0.1844 -0.2632
19523W        W35417   3.827   8.888   0.683  0.1621  0.2868  0.0297
19524W        W35418   2.035  12.824   1.888 -0.0713  0.2385 -0.2132
19525W        W35419   6.144   4.720   4.250  0.2864 -0.0491  0.3532
19526W        W35420   8.252  17.357  10.893 -0.1364  0.0267  0.0041
19527W        W35421   6.693  14.836   3.769 -0.3056  0.0144  0.3533
19528W        W35422   1.764   6.896   0.001 -0.0023  0.1855 -0.0232
19529W        W35423  11.371  10.939  13.269 -0.1038 -0.2176 -0.0156
19530W        W35424  11.748  15.549   1.511 -0.0499 -0.0350  0.1408
19531W        W35425   6.594  13.277   5.040  0.2073 -0.1144  0.0022
19532W        W35426   4.039   3.545   2.446  0.0050 -0.3361  0.0273
19533W        W35427   8.276  16.814   2.041  0.1990 -0.1386 -0.0142
19534W        W35428   4.166  10.203  11.624  0.0131 -0.1351 -0.1922
19535W        W35429   0.392  12.410  10.333  0.2397  0.0206 -0.1596
19536W        W35430  10.565   3.724   6.211  0.1070 -0.2246 -0.2557
19537W        W35431  16.950  18.479   4.296 -0.1866 -0.0323 -0.0986
19538W        W35432  13.470   5.827   2.242  0.2401  0.1415 -0.1022
19539W        W35433  11.212  12.420   2.633  0.1711  0.0783 -0.0256
19540W        W35434   5.010   1.680   1.201 -0.1753  0.2071 -0.0771
19541W        W35435  14.553  16.933   5.677 -0.0177 -0.2799  0.0044
19542W        W35436   2.111   3.598   4.838  0.0547  0.0399  0.0425
19543W        W35437  13.991   3.041  15.156  0.1132 -0.0609  0.1770
19544W        W35438   5.409  16.046   4.639  0.3824  0.1215 -0.1585
19545W        W35439  11.271  11.497   4.001 -0.3647 -0.1221 -0.0039
19546W        W35440   4.860   3.945   1.708 -0.0098  0.0439  0.0483
19547W        W35441   8.449  18.418   4.041  0.1231 -0.3441  0.1284
19548W        W35442  12.492   9.847  13.307  0.0460 -0.0755  0.0980
19549W        W35443   4.999   3.076   2.471 -0.1332  0.0363  0.0259
19550W        W35444   8.696   9.020  14.284  0.3737 -0.0303 -0.1889
19551W        W35445  18.646   3.360  12.848 -0.0053  0.0450  0.2270
19552W        W35446   3.341  10.658  13.228  0.3104 -0.0131  0.1772
19553W        W35447  13.943   9.022   3.784  0.1886 -0.3208  0.1149
19554W        W35448  16.611  13.557   3.511  0.3045  0.1578  0.2152
19555W        W35449   4.919   8.133   3.045  0.0586 -0.1369 -0.0952
19556W        W35450  14.215   1.804   0.077  0.0696 -0.3428  0.1875
19557W        W35451  10.807  16.056   1.784 -0.1394 -0.0634  0.0664
19558W        W35452   7.694  11.025   3.970  0.0418  0.0371  0.0155
19559W        W35453   5.616  13.942   4.883  0.2279 -0.1524  0.2197
19560W        W35454  15.021  10.394  11.020  0.2617  0.1348 -0.1469
19561W        W35455   0.605  16.680  10.939  0.0986  0.3998  0.1108
19562W        W35456   8.414   8.209   0.415  0.0171  0.2192 -0.0361
19563W        W35457  12.921  12.287   4.890  0.2686 -0.1105 -0.1802
19564W        W35458   1.877   9.128  12.010  0.0570  0.1451 -0.0317
19565W        W35459  10.530   7.042  13.788 -0.1677 -0.0764 -0.2008
19566W        W35460  15.816  17.243   4.255 -0.1442  0.0490  0.1076
19567W        W35461   6.393   6.685   1.887 -0.0814 -0.0434  0.5249
19568W        W35462  16.893  16.554  14.491  0.0739 -0.3939  0.4170
19569W        W35463  12.342   7.351  14.182  0.0769  0.0998 -0.0010
19570W        W35464   3.833   0.468  10.302  0.1622  0.1786  0.1691
19571W        W35465   9.108  13.422  12.988 -0.0311  0.2507  0.0434
19572W        W35466   2.670  17.679   4.753  0.3205  0.1265  0.1268
19573W        W35467  15.221  12.165   3.545 -0.2673 -0.0807 -0.1079
19574W        W35468   2.177   4.311   1.780  0.1629  0.1039  0.1074
19575W        W35469  10.084  12.971   3.107  0.1938 -0.0524 -0.2292
19576W        W35470   2.912   8.264  12.691 -0.0384  0.1242 -0.1032
19577W        W35471  12.401   4.079  12.051  0.1448 -0.1117 -0.0486
19578W        W35472  12.627  16.200  10.088 -0.0206  0.1394  0.0730
19579W        W35473   8.214  12.773  12.136 -0.2133 -0.3236 -0.1577
19580W        W35474   0.934  18.346  14.851 -0.3468  0.1361  0.0111
19581W        W35475  11.653   5.731  12.372  0.2451 -0.2270 -0.0549
19582W        W35476   5.621   1.748  14.309  0.2418 -0.1969 -0.1495
19583W        W35477   8.620  12.992  12.284  0.0914  0.3266 -0.2409
19584W        W35478  10.268   3.432  11.624 -0.2843 -0.0949  0.0233
19585W        W35479   7.879  16.381   2.941  0.2908 -0.0103 -0.2548
19586W        W35480   6.190   9.456  10.518 -0.0859  0.2311  0.3553
19587W        W35481   7.722  15.706  15.136 -0.0383  0.1874  0.1280
19588W        W35482  15.901  16.669  13.131  0.1037 -0.0848  0.1546
19589W        W35483  14.501   3.024   1.268  0.2193  0.1946 -0.0676
19590W        W35484   1.135  13.135   3.348 -0.0167  0.4811 -0.2096
19591W        W35485  18.508  16.190   2.671  0.1827  0.2188 -0.0469
19592W        W35486   3.444   5.091   3.019  0.0665  0.2509  0.0656
19593W        W35487  12.909   1.943   5.442  0.1316  0.3682  0.0632
19594W        W35488   9.012   4.490   6.129 -0.0286  0.0937 -0.4273
19595W        W35489  12.837   4.035  11.892  0.2830  0.0323  0.0385
19596W        W35490  10.019  11.098  10.498 -0.0184  0.0268 -0.4073
19597W        W35491  15.386   5.820   4.732  0.0883 -0.2470 -0.0214
19598W        W35492  10.373   5.539  12.952 -0.3376 -0.0474 -0.2460
19599W        W35493   0.078   2.728  10.996 -0.0942 -0.0083 -0.2636
19600W        W35494  15.877   8.085   0.439  0.1693 -0.2047 -0.0369
19601W        W35495  13.700  15.835   4.095 -0.0120 -0.2226 -0.0419
19602W        W35496  14.516  12.743   2.873 -0.2157  0.1340 -0.2746
19603W        W35497  16.380   6.820   2.267  0.3191  0.1016  0.0622
19604W        W35498  10.216   3.155  11.207 -0.3760  0.3209 -0.4336
19605W        W35499  17.182  14.223   2.329  0.5267 -0.3850 -0.2794
19606W        W35500   3.290   1.913   0.435 -0.0195 -0.2096  0.0810
19607W        W35501  10.139  12.451  12.110 -0.1976 -0.0243  0.3267
19608W        W35502  13.195  18.675  14.001  0.0775 -0.1212  0.2856
19609W        W35503   3.553   8.784   1.095 -0.1461 -0.1211 -0.1031
19610W        W35504   1.902  18.817   3.757  0.3686  0.4483  0.1374
19611W        W35505  15.705   7.092   1.579  0.2126 -0.2914  0.1071
19612W        W35506   0.136  12.931  11.773 -0.1300  0.2094 -0.4639
19613W        W35507  15.815   1.863  12.409 -0.3839  0.1904 -0.1863
19614W        W35508  18.138   5.484  12.919  0.0207  0.0708 -0.1671
19615W        W35509   5.452  10.591   4.180 -0.2472  0.1270 -0.1079
19616W        W35510  13.215  16.018   1.677 -0.0422  0.1063  0.0910
19617W        W35511   9.206  14.995  14.553  0.3053 -0.2105 -0.1349
19618W        W35512   8.521  16.510   3.676  0.1459 -0.1489 -0.0722
19619W        W35513  18.261   7.611   0.473  0.0404 -0.1028 -0.1276
19620W        W35514   8.308   0.225   4.313 -0.2189  0.0223  0.2551
19621W        W35515  16.869   4.794  11.166  0.1119  0.0871 -0.2710
19622W        W35516  12.206  10.237   3.059  0.0142  0.3852  0.0671
19623W        W35517   5.451   5.333   3.231  0.1206 -0.3085 -0.1703
19624W        W35518  16.462  12.211   2.541 -0.1471  0.3673 -0.2495
19625W        W35519  17.563  17.938   3.837  0.2735  0.2557  0.2601
19626W        W35520   9.994  15.312   3.307  0.2244  0.2068  0.0275
19627W        W35521  16.712   0.730  13.779  0.2761  0.0340  0.3706
19628W        W35522  18.059  16.507  11.993  0.1688 -0.0026 -0.1747
19629W        W35523  13.646  11.289   0.434 -0.0724  0.3371 -0.1004
19630W        W35524   6.390  12.604  14.358 -0.0010 -0.1573 -0.3729
19631W        W35525  10.896   4.404   5.380 -0.0592 -0.1881  0.3171
19632W        W35526   4.628   7.238   4.098  0.0988  0.0188 -0.0969
19633W        W35527   0.368   8.038  12.617  0.3741  0.1931 -0.0768
19634W        W35528   0.702   8.090  13.567  0.3696 -0.2166  0.1040
19635W        W35529  14.475  15.754   3.618  0.0073 -0.2933  0.0643
19636W        W35530  18.085  12.046  12.628 -0.0763  0.0321 -0.0475
19637W        W35531  16.465   4.700   2.994 -0.1946 -0.2664 -0.1158
19638W        W35532  16.909   4.717   1.703 -0.0157  0.3129 -0.3033
19639W        W35533  14.739  13.598   3.013 -0.0611 -0.1617 -0.0458
19640W        W35534  11.625   5.672  10.024 -0.2683 -0.2414 -0.2391
19641W        W35535   2.470  17.981   3.673 -0.3806  0.0753  0.0591
19642W        W35536   7.858  19.022   2.450  0.1568  0.1446  0.0520
19643W        W35537   5.016  18.641   3.900  0.2496 -0.0736  0.3213
19644W        W35538   7.977   1.707   3.220 -0.2893 -0.5158 -0.2817
19645W        W35539  12.432  18.984   1.411  0.3150  0.1267 -0.1622
19646W        W35540   9.078  18.949   1.049  0.1044  0.0253  0.0128
19647W        W35541   9.122   5.421   2.308 -0.0390  0.0253  0.2797
19648W        W35542   5.756   7.969   5.029  0.1276  0.2028  0.2854
19649W        W35543   9.672   7.307  12.085  0.0476  0.0332  0.3040
19650W        W35544   6.877   1.280   2.613  0.1433  0.3175  0.0585
19651W        W35545   4.876  10.990  13.830  0.1916 -0.0527  0.2017
19652W        W35546   4.790  13.633   0.400 -0.0656  0.3147  0.1082
19653W        W35547   2.346  12.037  10.803 -0.1742 -0.1587 -0.1753
19654W        W35548  16.311   8.626  11.524 -0.1471  0.0569  0.1457
19655W        W35549   2.358   6.595  12.884 -0.1283 -0.1634  0.0135
19656W        W35550   9.396   8.235   9.335  0.0067 -0.2400 -0.0719
19657W        W35551   3.084  14.848   3.928 -0.0823  0.0308 -0.0281
19658W        W35552   7.057   6.158   9.657 -0.2324 -0.1437  0.0159
19659W        W35553   1.433   6.143  12.412 -0.1368 -0.0502 -0.2118
19660W        W35554   0.489   5.741  13.918  0.3933  0.3501  0.2168
19661W        W35555  15.437  18.242  14.670 -0.1562  0.0335 -0.1383
19662W        W35556   8.618   9.038   4.242  0.2101 -0.0039 -0.1818
19663W        W35557   2.267   1.859   0.507 -0.2459 -0.3004  0.0879
19664W        W35558   9.925  10.004  14.068  0.0932  0.0806 -0.1798
19665W        W35559   0.777   3.318  14.834 -0.3836 -0.0171  0.2092
19666W        W35560  15.535   6.309   1.158 -0.0716 -0.0172 -0.0752
19667W        W35561   1.224  15.717   1.525 -0.2106 -0.0551 -0.0752
19668W        W35562   2.662   7.681  13.405  0.2064  0.1232 -0.2240
19669W        W35563   9.559   4.292   1.682 -0.1765 -0.1519  0.1087
19670W        W35564   7.257  15.680  14.104  0.2161 -0.1487 -0.1312
19671W        W35565   9.936   2.521  15.188 -0.4756 -0.2873  0.1620
19672W        W35566   5.280   3.079  12.876 -0.2773  0.0962  0.1346
19673W        W35567  16.330   6.610   1.707  0.0748  0.0692  0.0133
19674W        W35568  13.260   4.296   2.621 -0.1798 -0.1613 -0.2285
19675W        W35569  13.155   9.636   5.101 -0.3263  0.0347  0.4305
19676W        W35570  11.882   7.365   4.274 -0.0833  0.1749 -0.1147
19677W        W35571  13.503  13.919  10.880 -0.0648 -0.2413  0.2280
19678W        W35572   7.110   9.286   1.777 -0.0905 -0.0028  0.1156
19679W        W35573  13.012   1.438   2.613  0.2683  0.2515  0.2956
19680W        W35574  10.264  15.380  11.465 -0.0522  0.2762  0.1698
19681W        W35575  11.211  13.983  13.434 -0.1165 -0.1633 -0.1061
19682W        W35576   2.598  14.801   3.886  0.0541  0.2025  0.1399
19683W        W35577   1.754   9.476   2.152 -0.2353 -0.1381 -0.1718
19684W        W35578   2.787   6.285  11.493  0.0448  0.3775 -0.0244
19685W        W35579  15.067   1.932   0.577  0.0976  0.0318 -0.1628
19686W        W35580  15.658   1.732   4.005  0.1785  0.2112 -0.0435
19687W        W35581  18.096   0.785  13.523 -0.2562 -0.0223 -0.1143
19688W        W35582   8.270  16.232  10.677 -0.0262 -0.0766 -0.2528
19689W        W35583  15.387   1.630  10.993 -0.0200 -0.0585 -0.0620
19690W        W35584   4.680  14.160   2.589 -0.0093 -0.0442  0.1706
19691W        W35585   3.110  12.548   5.721 -0.2224  0.2010 -0.1660
19692W        W35586  14.390  17.261   5.059 -0.1957  0.0909  0.2932
19693W        W35587  10.060   8.989   1.589 -0.0713 -0.0592 -0.1703
19694W        W35588   9.406   9.106   2.283  0.2550  0.0407 -0.3996
19695W        W35589   0.531  11.410   5.052  0.4282 -0.3238 -0.1105
19696W        W35590  13.528   6.104   3.680 -0.0827 -0.5039  0.2298
19697W        W35591  16.242  13.375  14.752 -0.0963  0.2156  0.0900
19698W        W35592   8.312  11.802  10.288 -0.1896 -0.1124  0.2221
19699W        W35593  16.212  14.208  13.168  0.1315 -0.0183 -0.1618
19700W        W35594  17.346  12.658   0.029 -0.1483 -0.2941  0.0702
19701W        W35595   7.479   2.222  14.011  0.4236 -0.0583  0.0941
19702W        W35596   1.009   7.118  13.493 -0.0185  0.3349  0.1519
19703W        W35597   6.470  10.135   2.461  0.1414  0.1839 -0.0327
19704W        W35598   7.814  14.454  13.179  0.1841 -0.0248 -0.1323
19705W        W35599   9.960   2.720   0.956  0.3523 -0.2437  0.2065
19706W        W35600   4.956   9.109  14.782 -0.0441 -0.1111 -0.1156
19707W        W35601   0.630   0.745   0.036 -0.0524 -0.0299 -0.1722
19708W        W35602  15.741  10.532  13.319  0.2071 -0.0954 -0.0888
19709W        W35603  10.772   4.492  13.267 -0.1540 -0.1163 -0.0007
19710W        W35604   5.200  18.564  10.339 -0.4303  0.1790  0.2660
19711W        W35605   0.115   8.043   3.332 -0.1718  0.0761  0.2503
19712W        W35606  16.439  10.928  12.147  0.0992  0.0774 -0.2264
19713W        W35607  16.694   1.286   5.866 -0.2656 -0.1011  0.2257
19714W        W35608   8.943  10.501   5.252  0.0427  0.0513  0.1726
19715W        W35609   1.655  10.725   2.178 -0.0611 -0.3399  0.0986
19716W        W35610   1.935   1.290   1.364 -0.4588 -0.1162 -0.1130
19717W        W35611  12.215   3.144  13.419 -0.1243  0.0708 -0.2093
19718W        W35612  15.167  11.805   3.886 -0.2272  0.0489 -0.0876
19719W        W35613  12.751  15.576  11.425 -0.2494 -0.2136 -0.1378
19720W        W35614  15.673   9.600   4.454 -0.0305 -0.1162  0.1178
19721W        W35615   7.082  14.689  14.587  0.3794  0.1365  0.0370
19722W        W35616   3.255   1.000   2.482  0.0835  0.1671 -0.0107
19723W        W35617  11.255   9.089  10.864 -0.0317  0.0404 -0.2101
19724W        W35618  10.963  16.206  12.288  0.0220  0.0129  0.0412
19725W        W35619  16.048  17.798   1.078 -0.1528 -0.0034 -0.0549
19726W        W35620   2.671   8.360  10.792 -0.0936  0.0461 -0.1039
19727W        W35621  16.281   2.666  13.752 -0.0510 -0.1503  0.1917
19728W        W35622  12.401  18.456   4.492 -0.1313 -0.2749 -0.3858
19729W        W35623  17.389  14.884  13.314 -0.2929  0.2269  0.1843
19730W        W35624  14.804  16.026  15.160 -0.3566 -0.0732  0.2988
19731W        W35625  15.833   4.929  10.974 -0.1024 -0.0211 -0.3040
19732W        W35626  14.363  16.964   9.818 -0.0681 -0.2270 -0.2676
19733W        W35627  13.424   0.442   2.965  0.1851 -0.1411 -0.0563
19734W        W35628   5.722   6.989   3.482  0.1211  0.0334  0.3636
19735W        W35629   1.548  18.530   0.967 -0.3090  0.0011 -0.0240
19736W        W35630  15.446  13.326  10.962 -0.1571  0.2962 -0.0038
19737W        W35631  11.609  16.061  14.472 -0.0631  0.0908  0.0385
19738W        W35632   7.030  14.709   3.365  0.0269  0.0921  0.2402
19739W        W35633   5.505   1.582   0.968  0.0709  0.2036 -0.0889
19740W        W35634   2.998  17.851   5.520 -0.0563  0.2101 -0.1954
19741W        W35635   4.528  16.220   4.362  0.0997  0.1524 -0.3384
19742W        W35636  17.760   2.951  13.986 -0.0004 -0.0252 -0.1892
19743W        W35637  13.792  13.477  11.665 -0.0440 -0.0110 -0.0570
19744W        W35638   9.793  11.033   9.377  0.1564 -0.2330  0.3572
19745W        W35639   3.165  18.723   2.617  0.1140 -0.0463 -0.3055
19746W        W35640   5.416   1.202  14.215 -0.3989  0.2252 -0.0998
19747W        W35641   4.802   8.309  13.215  0.3195  0.0127  0.0258
19748W        W35642   0.146  13.533  12.396  0.5005 -0.1317  0.2366
19749W        W35643  18.094  17.037   4.768  0.0748  0.3227 -0.1213
19750W        W35644   5.996   1.578   0.818  0.0987 -0.0534  0.2129
19751W        W35645   9.154  14.904  10.589 -0.0915 -0.1430  0.2905
19752W        W35646  15.316   5.036  12.421  0.1099 -0.0974  0.1390
19753W        W35647   5.807   6.173   3.593 -0.2901  0.2296 -0.0682
19754W        W35648  14.539  12.695   0.894  0.2483  0.5125  0.3614
19755W        W35649   2.493   5.076  10.641  0.0046  0.4851  0.2498
19756W        W35650   8.097  15.644  10.660  0.3896 -0.3710  0.1158
19757W        W35651   6.012  12.849   4.309  0.0684 -0.2439 -0.0777
19758W        W35652   4.190  15.877   2.100 -0.0618  0.1609 -0.0582
19759W        W35653   6.873   3.100   0.984  0.2924 -0.3990 -0.0534
19760W        W35654  10.980   2.387   1.198  0.0084 -0.3444  0.1797
19761W        W35655  17.110  19.004  11.182  0.1909  0.2121  0.0043
19762W        W35656  18.811   4.640   0.644  0.2835  0.1748  0.2914
19763W        W35657  19.114  13.831  14.610 -0.2215  0.0788 -0.0298
19764W        W35658   4.301   2.088   3.088  0.1971  0.2248  0.2526
19765W        W35659   0.813   2.231   5.252  0.0612  0.1804  0.1625
19766W        W35660  13.882   1.126  14.971  0.0168  0.0802 -0.0295
19767W        W35661   6.237   9.910  10.893 -0.1167 -0.0298 -0.1073
19768W        W35662   3.410  10.017   3.304  0.0846  0.5370 -0.3342
19769W        W35663   4.214  18.507  11.905 -0.1453  0.1703  0.2234
19770W        W35664  18.187  18.236  12.307 -0.0290  0.1468  0.3297
19771W        W35665  17.310   1.149   2.968  0.0832  0.4176  0.1230
19772W        W35666  17.099   1.305   2.033 -0.2321 -0.2514 -0.0858
19773W        W35667   0.693  11.732  14.762 -0.1945 -0.3458  0.1982
19774W        W35668  18.729   2.378  13.736 -0.0351 -0.1912  0.0029
19775W        W35669   0.413   5.490  14.992  0.3473 -0.1525  0.1382
19776W        W35670   2.847  17.491   2.429  0.1302  0.3258  0.2633
19777W        W35671   9.683   9.912   0.571  0.0486  0.1470  0.0054
19778W        W35672  15.413   0.037   4.280  0.0514 -0.0265  0.0018
19779W        W35673  15.549   6.171   5.104  0.1278  0.5500  0.3448
19780W        W35674  12.686  11.504  14.299 -0.0369  0.4392  0.1113
19781W        W35675   2.483  13.121   2.743 -0.0650 -0.0820 -0.0792
19782W        W35676  13.699   1.603  12.442 -0.0785 -0.0538  0.5754
19783W        W35677  16.429   0.819  10.244  0.0085  0.2408 -0.1348
19784W        W35678  16.173  12.360  10.304  0.1232  0.1790  0.1897
19785W        W35679  11.335   4.563   1.231  0.1347 -0.3074  0.1442
19786W        W35680   1.797   2.360   5.651 -0.3511 -0.1496  0.2797
19787W        W35681   6.668   9.521   0.681 -0.2950 -0.0715  0.2322
19788W        W35682   0.589  15.393   0.003  0.1801  0.0699 -0.0719
19789W        W35683   0.591   0.136   5.867  0.1644 -0.0457 -0.0867
19790W        W35684  15.766  18.814   3.332  0.0622 -0.0738  0.2959
19791W        W35685   0.665   4.512  12.818  0.0088  0.2003  0.1933
19792W        W35686   6.926  17.341  10.622 -0.3394  0.1144  0.2733
19793W        W35687  10.808  11.207   2.954 -0.3323 -0.2561  0.2109
19794W        W35688   0.112  12.789  10.896 -0.0361  0.0918 -0.1449
19795W        W35689  11.763   1.556  14.133  0.0149 -0.2872  0.3791
19796W        W35690  13.231   4.094  11.075 -0.0174 -0.1084  0.2409
19797W        W35691   7.247   6.370  10.383 -0.3393  0.0861 -0.1261
19798W        W35692  17.022  15.297   2.558 -0.0392 -0.1984  0.0874
19799W        W35693   6.784  10.838   0.221  0.0616 -0.0549  0.1586
19800W        W35694  12.817  15.822   4.521 -0.0389  0.3270 -0.1622
19801W        W35695  11.900   1.561   4.752  0.2115  0.0369 -0.5397
19802W        W35696   7.858   2.607  10.641  0.0058  0.2608  0.2952
19803W        W35697   9.834  11.953   2.395 -0.1814 -0.2444  0.1906
19804W        W35698   8.320  19.062  10.959  0.0178  0.0221 -0.3050
19805W        W35699   1.275  15.167  10.940  0.1550  0.2538  0.2623
19806W        W35700  12.648   3.131  11.380  0.0476  0.0369  0.0075
19807W        W35701  15.876   3.107  10.910  0.0060 -0.1714  0.0769
19808W        W35702   7.500   5.526   5.763 -0.1991  0.0489  0.0860
19809W        W35703  17.775   5.322  12.421  0.5321 -0.4176  0.2366
19810W        W35704  19.004  15.883   3.512 -0.2778  0.1903  0.1008
19811W        W35705  12.784   6.849  11.314  0.2273  0.0465  0.2681
19812W        W35706   9.898  12.028  13.921 -0.1231 -0.0699 -0.0366
19813W        W35707  15.887   6.327   4.728  0.0142 -0.2500  0.3439
19814W        W35708   5.170  11.243  14.178  0.0134  0.0333 -0.1894
19815W        W35709   2.714   1.109   0.360 -0.2003  0.3298  0.2331
19816W        W35710  15.189  17.154   2.071 -0.0927  0.1473 -0.2773
19817W        W35711   5.849  19.119  13.890  0.1086 -0.4188  0.0409
19818W        W35712  14.025   9.465  12.744 -0.2194 -0.0492  0.1206
19819W        W35713   1.584  17.654  10.835  0.2478  0.2769  0.1827
19820W        W35714  17.931   7.018   0.525 -0.2814  0.1840 -0.2143
19821W        W35715  13.566  13.247   2.916  0.0602  0.0653  0.3402
19822W        W35716  13.747   8.752  10.415  0.2930  0.2076  0.0816
19823W        W35717   6.110  18.396   4.346  0.1653 -0.3562 -0.1882
19824W        W35718  17.761  15.319   3.797 -0.4196  0.0332 -0.2514
19825W        W35719   6.693  18.374  14.807 -0.0813  0.3181  0.1467
19826W        W35720   2.250   4.971  12.168  0.1658  0.0424  0.1272
19827W        W35721  15.222  17.405  14.864  0.1255 -0.3296 -0.0849
19828W        W35722   3.702  17.076   3.388  0.3326  0.0403 -0.0513
19829W        W35723   6.044  10.108  14.245  0.3386 -0.0351  0.0857
19830W        W35724   7.212   2.146   2.040  0.5244 -0.1086 -0.1604
19831W        W35725  15.585  18.361  13.353 -0.1273  0.0418  0.3308
19832W        W35726   8.573   8.789  10.778  0.0804 -0.3147 -0.1131
19833W        W35727   8.856   7.584  10.769  0.4075  0.1582 -0.2313
19834W        W35728  18.882   6.566   5.031 -0.0016 -0.1895 -0.1031
19835W        W35729  11.135   5.009   0.987  0.3549  0.0618 -0.4579
19836W        W35730  17.283  17.197  13.865 -0.2970  0.0594  0.2307
19837W        W35731   7.661  12.204  10.815 -0.1319  0.2704 -0.2097
19838W        W35732  11.362   2.157   3.595  0.2703  0.2374  0.0518
19839W        W35733  17.762  10.687   9.657 -0.0090 -0.0779  0.0703
19840W        W35734   0.934   5.190   0.623 -0.0684  0.1028  0.1916
19841W        W35735   8.987   6.055  13.004  0.0543  0.2721  0.2762
19842W        W35736   7.343  16.264   3.115 -0.2236  0.0486 -0.1104
19843W        W35737   6.215  14.198   1.989  0.1572 -0.2595  0.1993
19844W        W35738  16.191   4.386   4.366 -0.2749  0.1178 -0.1515
19845W        W35739  17.966   0.706   3.013 -0.0125 -0.1556  0.1335
19846W        W35740  13.363   3.795   0.831  0.3192 -0.0790  0.2324
19847W        W35741  18.264  10.139  11.455 -0.1132 -0.1462 -0.2666
19848W        W35742  10.934   0.847   1.468  0.2078  0.2276 -0.1474
19849W        W35743   5.455   1.462  10.340 -0.1228 -0.3952  0.0876
19850W        W35744  15.460   0.868   4.299 -0.0197  0.2160  0.0899
19851W        W35745   1.177  16.858   2.120  0.1969  0.0258  0.0348
19852W        W35746  11.636   6.648  13.263 -0.1962 -0.3178 -0.1924
19853W        W35747   3.728   3.493   1.789 -0.1499  0.0977 -0.3175
19854W        W35748   4.858   2.643   2.247 -0.0602  0.2240  0.0138
19855W        W35749  10.077  14.166   3.972 -0.2045 -0.0722 -0.1121
19856W        W35750  15.745  16.079  14.848 -0.3240 -0.1212 -0.3412
19857W        W35751   6.334   0.577   1.580  0.1343 -0.0192 -0.1140
19858W        W35752  13.742   1.664   0.125  0.2049  0.3885 -0.1204
19859W        W35753   9.015  13.520  10.695  0.1316 -0.0164  0.1337
19860W        W35754   8.529   5.484   4.865  0.1994 -0.0013 -0.1727
19861W        W35755   0.028  16.644   3.036 -0.0949  0.3388 -0.0035
19862W        W35756   3.323   5.850   4.141  0.2751 -0.2884 -0.0961
19863W        W35757  12.119  10.124   4.652 -0.4556 -0.1572 -0.0163
19864W        W35758  17.852  18.803   1.798  0.2348  0.0361  0.0636
19865W        W35759  17.738  11.935   2.995  0.3647  0.1153 -0.1816
19866W        W35760   8.792   0.582   4.622 -0.2976  0.1407  0.3646
19867W        W35761   9.017   0.350  13.523  0.2037 -0.1797 -0.1705
19868W        W35762   9.615   2.125  12.535  0.2314 -0.1700  0.1769
19869W        W35763  10.075   8.960  10.330 -0.0754 -0.2246 -0.0180
19870W        W35764  16.113   1.355   5.010 -0.4681 -0.0588  0.1487
19871W        W35765  15.436   6.191   2.931  0.0575 -0.2013 -0.2704
19872W        W35766   4.841   8.483  14.138 -0.4476 -0.1296  0.0511
19873W        W35767   3.729  16.468   3.318 -0.1541 -0.3242 -0.0710
19874W        W35768  15.203   5.835   2.222 -0.1609  0.0591 -0.0749
19875W        W35769  16.208   0.207   1.132  0.0222 -0.0008  0.0832
19876W        W35770  16.657  13.442  13.342  0.1436 -0.0928  0.3409
19877W        W35771  17.880   5.990  10.532 -0.1232  0.1012  0.1652
19878W        W35772  18.920   6.859   4.181  0.0367 -0.1620 -0.3100
19879W        W35773  12.270  17.688  13.188 -0.3499  0.1757  0.0754
19880W        W35774   5.101   5.920  11.340 -0.0285 -0.2143  0.0231
19881W        W35775   1.973  11.378   4.086 -0.0778  0.0952  0.2949
19882W        W35776  14.026  12.471  11.005  0.2022  0.2208  0.0263
19883W        W35777   2.127  17.147  11.399  0.0651  0.1120  0.0633
19884W        W35778  12.501  17.539  13.704  0.2284 -0.1418  0.0944
19885W        W35779   9.898   6.934   1.187 -0.3090  0.1375 -0.1683
19886W        W35780  14.377  14.961  10.845  0.1343 -0.4507  0.2506
19887W        W35781  13.450  16.514  13.469 -0.1738 -0.0142  0.3572
19888W        W35782   3.809  17.103   0.756  0.1105 -0.3490 -0.0257
19889W        W35783  11.859   4.548   5.424  0.0646 -0.0108 -0.1071
19890W        W35784   6.946  15.941  12.913 -0.0524  0.2577  0.0500
19891W        W35785   0.453   7.502  14.827  0.3907 -0.1218  0.0326
19892W        W35786  16.407  10.627   4.665 -0.0813 -0.1016 -0.0519
19893W        W35787  11.255   5.721   3.985  0.3818  0.0078  0.1220
19894W        W35788  16.361   7.757   2.043  0.0508 -0.0267  0.2672
19895W        W35789   8.247   8.208  13.214 -0.0528  0.0210 -0.1151
19896W        W35790  13.671  10.760   1.504  0.3593  0.3428 -0.1924
19897W        W35791   1.406  15.365   3.200 -0.0787 -0.1475  0.0076
19898W        W35792   5.820  11.758  14.093 -0.1394  0.1613  0.1658
19899W        W35793   2.403   1.614   1.432 -0.1074  0.0548 -0.0707
19900W        W35794  15.884  17.792   4.380  0.0826 -0.1635  0.3303
19901W        W35795  18.467  16.488  15.156  0.1867 -0.5006 -0.0436
19902W        W35796   3.000   7.550   2.900 -0.2982 -0.0936  0.0469
19903W        W35797   2.223   7.664   4.946  0.3065  0.0936 -0.1584
19904W        W35798   5.170   1.550   3.491 -0.2850  0.4108  0.2719
19905W        W35799  11.690   3.489   0.241  0.0954 -0.2555 -0.4626
19906W        W35800  16.387   6.711  13.513 -0.1609  0.1290  0.0360
19907W        W35801  11.378   7.806  11.865  0.0051 -0.0745 -0.2945
19908W        W35802  15.863   2.719   2.367 -0.2778  0.0463 -0.2289
19909W        W35803   2.328   3.000   3.823 -0.2007 -0.3610  0.1340
19910W        W35804   3.717  18.984  13.656 -0.0310  0.4200  0.2533
19911W        W35805  15.414   1.193   0.765 -0.3870  0.1446  0.2783
19912W        W35806   3.854   2.890  11.344 -0.1474 -0.2433 -0.2646
19913W        W35807  14.329   6.702  13.500  0.1627 -0.2126 -0.4293
19914W        W35808   2.706  15.361  11.313  0.0307  0.0050 -0.1368
19915W        W35809  15.348   2.543   3.923 -0.0055  0.1033  0.0567
19916W        W35810  10.520   8.379  12.191  0.3119 -0.0051 -0.2596
19917W        W35811   1.508   2.402  12.370  0.3087  0.0402 -0.1167
19918W        W35812   0.919   6.123  13.620 -0.0874 -0.0510 -0.1553
19919W        W35813   3.256  11.697   4.916 -0.0035 -0.2047  0.3432
19920W        W35814   9.725  10.237   1.055  0.4516 -0.2187 -0.0714
19921W        W35815  18.879   9.597   1.638 -0.1900 -0.2150 -0.3044
19922W        W35816  18.158   7.421   3.718  0.1236  0.1721 -0.0406
19923W        W35817  17.096  12.044  11.706 -0.0304 -0.1098 -0.3204
19924W        W35818   6.582   2.457   3.806 -0.2604 -0.2339  0.2803
19925W        W35819   5.600   2.004  12.818  0.2587  0.1292 -0.0987
19926W        W35820   9.035  17.138  14.200  0.0088 -0.3041 -0.1397
19927W        W35821  17.030   7.471   0.968 -0.0305  0.1169 -0.0794
19928W        W35822   3.427   6.533   0.082  0.0342  0.2640  0.1346
19929W        W35823  15.860  12.873  13.297  0.1433  0.1531  0.0427
19930W        W35824  16.329   0.635   0.409  0.0394  0.1905 -0.0188
19931W        W35825  18.208  12.199   3.980 -0.1101 -0.3450  0.2644
19932W        W35826   4.662  10.439   0.155  0.3148  0.0465 -0.1347
19933W        W35827   0.825   6.218   5.789  0.2468 -0.3452  0.0907
19934W        W35828   9.313  18.343  14.567  0.3822 -0.2247 -0.2615
19935W        W35829  15.621   1.762   2.804 -0.1646  0.1347 -0.1933
19936W        W35830   6.733  10.543  11.004 -0.1667  0.1054 -0.0580
19937W        W35831  17.506  12.598  14.644  0.0493  0.1339  0.2050
19938W        W35832  11.821   0.148  14.177 -0.0223 -0.0589 -0.0896
19939W        W35833  11.859  14.660   1.080 -0.1450 -0.0086  0.5146
19940W        W35834   1.308   8.026   2.823 -0.1240  0.2476 -0.0662
19941W        W35835   3.148  13.730  13.186 -0.2424 -0.1236 -0.2486
19942W        W35836   9.334  13.483  12.345  0.0855 -0.0614 -0.1924
19943W        W35837   9.769  13.620   0.841 -0.1424 -0.1268  0.0382
19944W        W35838   9.457  12.074   1.244  0.2253  0.0616  0.0966
19945W        W35839   6.969   0.668   0.435  0.0243 -0.3062 -0.1806
19946W        W35840   9.924   8.792  13.140  0.2984 -0.0523 -0.0125
19947W        W35841   0.742   0.948  13.665 -0.0887 -0.2782 -0.3486
19948W        W35842  14.581  13.322  14.730 -0.0762 -0.0624  0.4594
19949W        W35843   9.920  11.097   4.663 -0.0565  0.2867  0.2355
19950W        W35844   3.576   2.430   4.315  0.2427  0.0060  0.0278
19951W        W35845  17.324  10.793  11.108  0.1302  0.2443  0.0254
19952W        W35846   9.018  17.335  13.090 -0.1617 -0.0583 -0.0196
19953W        W35847  10.978   2.211  13.149  0.2947  0.0295  0.1333
19954W        W35848   9.668   0.278  14.991 -0.0476 -0.2254  0.0215
19955W        W35849   7.844   7.041  10.389 -0.0110  0.1348  0.0741
19956W        W35850   1.291   7.235  11.137  0.0535  0.0379  0.4721
19957W        W35851  15.181   1.972   2.417 -0.2990 -0.1251  0.0954
19958W        W35852  16.580   9.406   4.205  0.1807 -0.4627 -0.2259
19959W        W35853  12.939  17.558   2.447 -0.0461 -0.2877  0.1726
19960W        W35854  13.009   6.593   2.909 -0.0553 -0.2447 -0.0913
19961W        W35855   3.836  13.806  12.866 -0.3543  0.0731  0.1736
19962W        W35856  19.130   4.579  13.669  0.1656  0.1995 -0.1851
19963W        W35857  10.873   8.014  11.992  0.0373 -0.0792 -0.2367
19964W        W35858  16.394   4.889  12.029 -0.1615  0.1095 -0.1228
19965W        W35859   0.554  11.513  13.188  0.2063  0.2134 -0.1802
19966W        W35860  14.648   4.642   4.869  0.3051 -0.2169 -0.1910
19967W        W35861  19.102  11.189   2.602  0.1785  0.3592  0.1509
19968W        W35862  16.717  17.101  13.345  0.0178  0.1304  0.2986
19969W        W35863  11.520  15.113   1.645 -0.0758 -0.0447 -0.1854
19970W        W35864   4.919  14.727  11.037  0.2365 -0.3559  0.0616
19971W        W35865  17.276   8.962  11.739 -0.1745  0.1373  0.2090
19972W        W35866   1.541   0.670  11.094 -0.1413 -0.2702 -0.3874
19973W        W35867   5.299  16.859   1.364 -0.0392  0.0426 -0.1719
19974W        W35868  18.899   5.707  13.214  0.1865 -0.1136 -0.1477
19975W        W35869  16.221   8.863   2.877 -0.1990  0.0324  0.0607
19976W        W35870   3.904  18.448   1.518  0.1717  0.2746  0.1752
19977W        W35871  16.961  10.460   3.817 -0.0767 -0.1824 -0.1801
19978W        W35872  15.653  11.513   4.231  0.0471  0.0801 -0.0123
19979W        W35873   2.358   5.228   2.101  0.0015  0.0906 -0.0261
19980W        W35874  11.947  19.138  13.035  0.0425  0.4116  0.0372
19981W        W35875  18.776   0.980  12.273 -0.0569  0.1510 -0.3500
19982W        W35876  13.452  12.348  14.945 -0.4917 -0.0916  0.0720
19983W        W35877  12.667   6.694   4.615  0.1341 -0.0974 -0.3228
19984W        W35878   7.583  15.480   1.368  0.4291  0.3578 -0.1360
19985W        W35879   2.291  19.006   0.755 -0.1161  0.1807 -0.0959
19986W        W35880  16.482  18.276  14.576  0.2759 -0.2939 -0.2543
19987W        W35881   2.909   5.030  14.878 -0.0850  0.2820  0.1985
19988W        W35882   1.885   8.517  13.403  0.0433 -0.1212 -0.0076
19989W        W35883   4.869  14.467   3.825  0.0453  0.0902 -0.2606
19990W        W35884   3.327   6.804  14.391  0.2197 -0.0789 -0.0129
19991W        W35885   3.427   3.495   1.277  0.0439 -0.0196 -0.0729
19992W        W35886  15.757   9.303  10.488  0.2436 -0.0334  0.4096
19993W        W35887  12.453  16.610  14.387  0.0621  0.1103  0.1496
19994W        W35888  11.053   4.299   3.132 -0.5322 -0.0812 -0.1502
19995W        W35889  13.422   3.086  12.600  0.1221  0.0187 -0.0742
19996W        W35890   5.110   8.909  14.313 -0.1002 -0.0796 -0.0913
19997W        W35891  11.438  14.090  12.612 -0.2307 -0.2770 -0.2326
19998W        W35892   2.968  18.103   4.532 -0.0750 -0.1869 -0.0434
19999W        W35893  11.324  10.310  10.123 -0.0153 -0.2663  0.1232
20000W        W35894   2.806   0.426   3.698  0.1121  0.0467  0.1370
20001W        W35895  12.743   9.853  11.982 -0.2261 -0.3316 -0.0688
20002W        W35896   9.243   7.403   4.720  0.1265  0.1471  0.1795
20003W        W35897   7.243   1.926  11.135 -0.1475  0.1696 -0.2040
20004W        W35898   8.714  16.619   4.488 -0.0662  0.0301  0.3075
20005W        W35899  10.540   1.331  14.537 -0.0740 -0.3201  0.3908
20006W        W35900  12.188   2.527   3.053 -0.1165  0.0653 -0.0135
20007W        W35901   4.217  15.145   5.014 -0.0278  0.5385  0.2809
20008W        W35902  13.717   7.606   2.756  0.0067  0.0434 -0.0596
20009W        W35903  14.141  11.614   3.616 -0.3008 -0.3164 -0.0856
20010W        W35904   1.002   2.767  12.739  0.0298 -0.0775  0.3894
20011W        W35905  16.231  14.821   3.941  0.1289 -0.0333  0.1206
20012W        W35906   6.774  17.701  14.200  0.1560 -0.3064 -0.0846
20013W        W35907   4.025   2.080   2.075  0.1768 -0.0651 -0.1362
20014W        W35908   7.532  11.605  10.714  0.1669 -0.0956 -0.2473
20015W        W35909  16.565  14.959  11.461  0.0476  0.4194 -0.0563
20016W        W35910  13.406   7.541   3.239 -0.0741  0.2837 -0.1652
20017W        W35911  10.632  16.776  11.705 -0.2075  0.1116 -0.1848
20018W        W35912   5.045  17.713   2.875 -0.0496  0.2642 -0.5220
20019W        W35913  11.108  18.624   1.498  0.1309 -0.3794 -0.0913
20020W        W35914   3.527  16.174   4.477 -0.2659 -0.2464  0.1133
20021W        W35915  10.035  17.995  15.029 -0.2457  0.1732  0.0586
20022W        W35916   5.100   6.765  11.053 -0.3193 -0.1713 -0.5911
20023W        W35917   2.950  12.191  14.003 -0.2083 -0.0627 -0.3303
20024W        W35918  11.346   0.081  13.219  0.0486  0.0327  0.1012
20025W        W35919   7.803   7.857   4.817 -0.2347  0.0462  0.1097
20026W        W35920   6.313   2.898   3.560  0.3104  0.0020  0.0163
20027W        W35921  13.398  16.058   9.827 -0.2840 -0.2327 -0.2292
20028W        W35922  18.589  11.557  10.932 -0.1536 -0.2746 -0.0809
20029W        W35923   6.769   4.056   1.312 -0.1538 -0.1857 -0.0797
20030W        W35924  12.455   1.271   0.353 -0.2960  0.0346 -0.1410
20031W        W35925  13.965  11.996   0.594  0.0120  0.0947  0.0960
20032W        W35926   5.956  16.763  14.783  0.2311 -0.1303  0.0695
20033W        W35927  10.309  12.414   4.159  0.3333 -0.2150 -0.1140
20034W        W35928  15.874   4.173  13.206 -0.0721  0.3468 -0.0306
20035W        W35929  15.000   0.416  11.723 -0.0176  0.1769  0.0804
20036W        W35930  15.462   5.664   6.171  0.1899 -0.1569  0.0853
20037W        W35931  17.460  10.897   3.888  0.0086 -0.1443 -0.1672
20038W        W35932   1.152   7.840   2.250  0.0435 -0.3948  0.0024
20039W        W35933   9.052  16.134   0.192 -0.1737  0.2803 -0.2244
20040W        W35934   2.183  16.158   6.152  0.2291 -0.0134 -0.1227
20041W        W35935   0.406   8.150   4.750  0.0366 -0.3513 -0.0493
20042W        W35936  18.162  14.826   4.471 -0.1913  0.0321  0.2506
20043W        W35937   0.544   5.206  12.603 -0.0570 -0.1840  0.3725
20044W        W35938   8.356  14.937  11.851 -0.1506 -0.1196 -0.1199
20045W        W35939  13.564   6.493   3.274 -0.2405 -0.0567 -0.0027
20046W        W35940   8.694  16.303   2.067  0.2712 -0.1142 -0.1503
20047W        W35941   3.451   1.329   5.486 -0.3108 -0.0662  0.0441
20048W        W35942   4.249  18.452  11.363  0.0029 -0.1184  0.1473
20049W        W35943  12.163  16.480   3.306  0.2203  0.1712  0.2280
20050W        W35944  14.088  17.602  12.776  0.2097  0.0503  0.0567
20051W        W35945   0.431   2.722  11.412  0.1765 -0.1918  0.2705
20052W        W35946  11.046   1.369  14.730  0.0168 -0.3046  0.0405
20053W        W35947   3.219  18.746   1.061  0.2450  0.3548  0.0064
20054W        W35948  14.337   0.108   2.837  0.0970  0.1554  0.0618
20055W        W35949   8.114   2.277   1.122 -0.0020  0.3310 -0.3952
20056W        W35950   7.949   7.539   0.948 -0.4501 -0.3138 -0.3056
20057W        W35951   0.793  16.073   2.345  0.3304 -0.2294  0.1447
20058W        W35952  14.214   2.010  10.165  0.2757  0.2599 -0.1416
20059W        W35953   8.097   0.361  13.875 -0.2614 -0.1022  0.2465
20060W        W35954   1.205   5.437   0.310  0.0952 -0.3386 -0.0699
20061W        W35955   5.660  11.472   1.234  0.3587 -0.4338 -0.0875
20062W        W35956  18.461  13.239  10.725 -0.0459 -0.0744  0.0724
20063W        W35957  13.430   4.652   9.997 -0.0095  0.6290 -0.0115
20064W        W35958  10.385   3.550   3.008  0.0007 -0.0577  0.0355
20065W        W35959  15.153   3.564   4.199  0.0449 -0.0263  0.0999
20066W        W35960   7.694   1.979   0.280  0.4198  0.2906 -0.1780
20067W        W35961   2.076  10.725  14.571  0.1728  0.0380 -0.4144
20068W        W35962   4.215  17.878   0.490  0.0943 -0.0605 -0.3863
20069W        W35963   8.544  17.425   4.089 -0.0381 -0.1350 -0.3232
20070W        W35964  19.090   1.876   2.231  0.2647  0.0981 -0.3747
20071W        W35965   9.158   4.296  14.453  0.0963  0.0520  0.0739
20072W        W35966  16.398  16.571  14.429  0.4497 -0.0178 -0.1241
20073W        W35967   3.249   7.108  11.791  0.3245  0.0059 -0.0250
20074W        W35968   5.515  10.447  11.997 -0.0566 -0.1066  0.3715
20075W        W35969   7.253  11.033   1.684  0.0625  0.0219 -0.1093
20076W        W35970   6.743   0.815   3.468  0.0226 -0.1926  0.3627
20077W        W35971  13.555  18.034  14.785 -0.3018 -0.2732  0.1391
20078W        W35972  11.431   3.661   3.133 -0.2298 -0.0481  0.1322
20079W        W35973   0.353  12.110  12.335 -0.0377 -0.0445  0.1293
20080W        W35974   6.836  11.003  11.924 -0.1488 -0.0517  0.2264
20081W        W35975   7.690  13.253   0.514 -0.2903  0.1163  0.0499
20082W        W35976  12.806  11.900  13.430 -0.2135 -0.1615 -0.0312
20083W        W35977  18.147  18.883   3.050  0.0617 -0.0683  0.1070
20084W        W35978   9.485   0.213   2.486  0.0170  0.0359  0.2939
20085W        W35979  11.426  15.555  14.918 -0.0731 -0.2126 -0.1117
20086W        W35980  14.305  18.439   5.973  0.2521 -0.0765  0.0181
20087W        W35981   2.277   2.024  12.974  0.1437 -0.0909 -0.1178
20088W        W35982  13.940   2.598   1.991 -0.2352  0.1492  0.1482
20089W        W35983   2.998   2.713  10.865  0.0084  0.0102 -0.0068
20090W        W35984  19.051   8.219   2.109 -0.1252  0.0585  0.0941
20091W        W35985  11.950   3.492   4.356  0.0150 -0.0144  0.1196
20092W        W35986  13.301  17.064  10.980  0.0384 -0.1483  0.2548
20093W        W35987   6.238   2.593   5.194  0.0754  0.0275 -0.0094
20094W        W35988  17.643   9.605   1.866  0.0881  0.0450 -0.0411
20095W        W35989   2.708   6.343   3.592  0.0086 -0.0814 -0.2938
20096W        W35990   6.937   9.223   3.402 -0.3620  0.2083  0.1764
20097W        W35991  18.808   1.255  12.993  0.2463 -0.0227 -0.0292
20098W        W35992  12.290  13.772   1.655 -0.0027 -0.0549 -0.0147
20099W        W35993   8.762   0.690  10.518 -0.1320  0.0163 -0.0744
20100W        W35994   7.368  12.963   0.250  0.1412  0.1057 -0.0249
20101W        W35995   6.853   4.988   3.231  0.0776  0.2482  0.3698
20102W        W35996   9.720  10.707  13.080 -0.0653  0.1015  0.1793
20103W        W35997  14.964   2.520   9.883  0.2775  0.4068  0.2080
20104W        W35998  16.027   1.024   0.248 -0.0158 -0.0013  0.2923
20105W        W35999   8.300  13.647  13.277 -0.2487  0.0775 -0.3050
20106W        W36000  11.761   1.927  10.476 -0.1951  0.2041  0.4527
20107W        W36001  18.572  11.190  12.273 -0.0315 -0.1964  0.0506
20108W        W36002  11.008   6.790   4.667 -0.1579  0.1325 -0.1485
20109W        W36003   6.923   5.134   2.320 -0.1144  0.1363 -0.1767
20110W        W36004  17.372   3.102   1.613 -0.3603 -0.0422  0.2302
20111W        W36005   3.321  12.281  10.774 -0.3974 -0.1166 -0.0754
20112W        W36006   3.855  13.626   3.738 -0.0135 -0.1413  0.1057
20113W        W36007   9.497   4.596  10.838 -0.2218 -0.0142  0.0786
20114W        W36008   3.299   7.539   2.312  0.0659  0.1398 -0.0702
20115W        W36009   9.901  18.483  14.345 -0.0374  0.0240  0.0742
20116W        W36010   7.813  16.852  14.222 -0.2550  0.2457  0.1803
20117W        W36011  13.461  12.148   3.684 -0.0357 -0.0964  0.4113
20118W        W36012  17.191   8.699  15.156  0.2264  0.4072 -0.5270
20119W        W36013  14.357   3.409   0.267 -0.1555 -0.1437 -0.2483
20120W        W36014   0.639   8.925   1.407 -0.3432  0.0525 -0.0733
20121W        W36015  15.392   5.240   6.016  0.0169 -0.0080 -0.1202
20122W        W36016   8.762  18.136   2.877  0.2485  0.2453 -0.0874
20123W        W36017   5.693   5.583  10.663 -0.0560  0.0770 -0.2409
20124W        W36018   4.286  12.734   3.542 -0.1695  0.0367  0.0336
20125W        W36019   8.346  17.950  12.777  0.0742  0.0301  0.3039
20126W        W36020   9.078   9.190   3.189 -0.5536 -0.2141  0.2297
20127W        W36021   1.542  12.874  14.966  0.0189 -0.1327 -0.0065
20128W        W36022   0.386   1.058  13.938 -0.2301  0.1807  0.0112
20129W        W36023   6.303  15.558  12.222  0.3030 -0.1557 -0.3696
20130W        W36024  13.247   0.217  12.827 -0.1857  0.2212 -0.1643
20131W        W36025   3.799  11.029   2.805  0.0991  0.1000  0.4905
20132W        W36026   6.901   1.556   1.637 -0.6300 -0.0091 -0.0854
20133W        W36027   0.751  12.270  12.633  0.0013  0.0930  0.1101
20134W        W36028   9.828   3.560   2.196  0.0888  0.1776 -0.0534
20135W        W36029   4.826   0.339   3.638  0.0585 -0.0978  0.1766
20136W        W36030  13.877   4.157   4.515  0.1330 -0.3708  0.3604
20137W        W36031  13.030  19.081   2.922  0.1219  0.0325  0.3023
20138W        W36032   6.513   0.773   2.079 -0.0999 -0.1227  0.0278
20139W        W36033  12.919   6.575   1.483  0.1936  0.2794  0.3678
20140W        W36034   0.179   1.015   2.897  0.0278  0.1261 -0.1460
20141W        W36035   3.721  13.753   1.635  0.1355  0.4119 -0.0163
20142W        W36036  17.839   4.340  14.853  0.0100 -0.1172  0.2230
20143W        W36037   1.623   6.884  14.153  0.0934 -0.3025  0.0005
20144W        W36038  16.214  18.834   3.614  0.0410  0.2235 -0.0775
20145W        W36039   9.024   9.240   4.500 -0.0278 -0.0879 -0.0635
20146W        W36040  10.147   2.050  14.486 -0.1585 -0.0184 -0.0739
20147W        W36041   6.324  14.526  14.996  0.1118 -0.0711  0.2028
20148W        W36042  17.243   7.945   0.100 -0.1824  0.0294 -0.0666
20149W        W36043   0.338   6.263  11.876 -0.0853 -0.0455  0.0154
20150W        W36044  16.290   3.435   5.352  0.2331 -0.0851 -0.0482
20151W        W36045  12.833   4.798  15.006 -0.0385 -0.0230  0.0203
20152W        W36046   0.898   3.316   4.533  0.2261 -0.0148 -0.2099
20153W        W36047  13.284   4.062  10.255  0.1442 -0.0582 -0.2787
20154W        W36048   0.937  12.599   2.537 -0.1341 -0.1833 -0.1197
20155W        W36049   5.627   6.091   2.626  0.0074  0.0812 -0.0800
20156W        W36050  14.625  13.323   1.585 -0.1884 -0.1831  0.2351
20157W        W36051   1.650   8.052  12.418 -0.3536 -0.3063  0.0778
20158W        W36052   5.826   3.535  13.733  0.0269  0.3542  0.1785
20159W        W36053   9.749  11.193  12.247  0.0048  0.0048 -0.0924
20160W        W36054   1.957   9.428  13.527 -0.4980 -0.0100 -0.0438
20161W        W36055   0.963  13.283  12.600 -0.0536 -0.2751  0.0479
20162W        W36056  16.473   6.223   5.616  0.1387  0.1224 -0.0830
20163W        W36057   3.265  17.026   2.599  0.0349 -0.3127  0.3305
20164W        W36058  17.346   4.640   5.883 -0.0106 -0.0446  0.0345
20165W        W36059   8.774  17.642   0.828  0.1657  0.0236  0.0980
20166W        W36060  16.364  12.897  13.483  0.4103 -0.1103  0.0985
20167W        W36061   4.573  13.546  14.935  0.2376  0.2440 -0.0658
20168W        W36062  13.795  14.158   2.746 -0.1561 -0.4216  0.1431
20169W        W36063  12.712   4.326   4.194  0.0795 -0.0077  0.4723
20170W        W36064   1.692  13.939   3.621  0.2310  0.0091 -0.2539
20171W        W36065  16.946  12.345   0.675  0.0802  0.2942 -0.0425
20172W        W36066  15.871  13.026   4.501  0.2070 -0.1294 -0.1740
20173W        W36067  12.011  18.411   1.917 -0.1921  0.1495  0.3678
20174W        W36068  16.192   3.669   5.870  0.0251  0.1335 -0.0580
20175W        W36069  17.820  14.192   4.016 -0.0444 -0.3764 -0.0307
20176W        W36070  13.461   5.499  11.616 -0.1119 -0.0740  0.2170
20177W        W36071  11.444  13.214   2.192 -0.1350  0.0997 -0.0928
20178W        W36072  14.475   5.940   3.875 -0.2506  0.3244 -0.1562
20179W        W36073   1.413   2.496  13.075  0.2400 -0.1491 -0.0923
20180W        W36074  18.535   4.381  13.237  0.1450  0.0049 -0.3853
20181W        W36075   5.642  10.323   1.675  0.0639  0.1575  0.0547
20182W        W36076   9.173  11.368  14.081 -0.1031 -0.0082 -0.1124
20183W        W36077   3.330   2.444   4.815  0.3259 -0.0852 -0.0968
20184W        W36078  13.491  13.799  15.084  0.0908  0.1084  0.0099
20185W        W36079   9.363   9.143  15.016  0.0547  0.2081  0.2106
20186W        W36080   5.261  18.822   2.568 -0.2137 -0.0147 -0.3380
20187W        W36081   7.838  14.671  15.132 -0.1974  0.4141 -0.2350
20188W        W36082   4.949   5.622   5.426 -0.0610  0.2558 -0.0017
20189W        W36083  16.947  13.243  11.715 -0.0024 -0.2508  0.1747
20190W        W36084   2.426   4.582  12.523 -0.2551  0.2099  0.0441
20191W        W36085  15.970  13.510   9.247 -0.1093 -0.3518  0.1206
20192W        W36086   9.557  11.635  11.543 -0.0050  0.0957 -0.0115
20193W        W36087  11.442   3.980   0.066 -0.1595  0.0961  0.0386
20194W        W36088  14.562  10.766   3.156  0.4634 -0.0128  0.0717
20195W        W36089  13.150   8.523   2.209 -0.0218 -0.0451  0.0677
20196W        W36090  11.596  18.330   0.735 -0.0232 -0.0891 -0.2587
20197W        W36091   2.754   7.146   1.009 -0.1562  0.0761 -0.0456
20198W        W36092   7.616   3.940  14.478 -0.1337  0.2717  0.3453
20199W        W36093   4.170   3.328   4.763 -0.1969  0.4749 -0.3013
20200W        W36094  15.709  18.045   0.754 -0.2196 -0.0581  0.0005
20201W        W36095   9.900  11.274  11.520  0.2914 -0.1339  0.2764
20202W        W36096   1.111   4.201  11.201  0.0160  0.2390 -0.2636
20203W        W36097   8.073  13.120  14.613 -0.2051  0.2978  0.1055
20204W        W36098   8.017   2.192   3.499  0.0424  0.0581  0.0669
20205W        W36099   7.288   8.708   1.560  0.1486 -0.1797  0.0599
20206W        W36100   9.221   7.334   3.441 -0.1690  0.0480 -0.1869
20207W        W36101  16.261  12.961   0.754  0.0841 -0.1457 -0.2082
20208W        W36102   6.203  10.720  12.651  0.0016 -0.3104 -0.0695
20209W        W36103   9.555  17.495   2.823  0.1611 -0.1287 -0.2718
20210W        W36104   2.644   1.997  12.142  0.2873  0.0605 -0.1299
20211W        W36105  11.602  17.790  10.664  0.3627  0.1261  0.3307
20212W        W36106  12.653  14.379   1.861  0.1202  0.0828  0.1374
20213W        W36107  14.895   3.478  11.966  0.0004  0.1713  0.0534
20214W        W36108  10.177  14.264  14.464  0.1850  0.3345 -0.1589
20215W        W36109   9.005   2.574   4.569 -0.2326  0.2095  0.2472
20216W        W36110  11.266   3.814  11.864 -0.1476  0.2275 -0.1101
20217W        W36111   5.850  12.896  15.119  0.0766  0.2519  0.0561
20218W        W36112   3.297  14.410   3.921  0.0745 -0.2618 -0.1170
20219W        W36113  17.813  17.895   5.242  0.3004  0.2168  0.0732
20220W        W36114   4.886  16.337  11.162  0.1227 -0.1255  0.0701
20221W        W36115   4.635   6.309   4.255  0.1438  0.1560 -0.1573
20222W        W36116   7.714  17.434   2.288 -0.1916 -0.1159  0.1364
20223W        W36117   1.971  15.537   2.994  0.1226 -0.1597  0.1948
20224W        W36118   3.380   4.391  14.524  0.2196 -0.0658 -0.0718
20225W        W36119  10.607  13.428  14.510  0.0803  0.1115 -0.0752
20226W        W36120   1.205  14.473   1.809  0.1768 -0.0322 -0.0460
20227W        W36121  15.204   5.364   4.382 -0.5232  0.2746  0.0482
20228W        W36122  12.141  14.255  12.030 -0.1950 -0.1068  0.0278
20229W        W36123  14.448   5.373   1.215 -0.1911  0.1004 -0.0316
20230W        W36124  18.466  11.574   3.326 -0.1375  0.2168  0.2798
20231W        W36125  17.203   4.899  14.473 -0.1371 -0.3832  0.0675
20232W        W36126  16.645   4.711   1.252  0.2404 -0.0227 -0.1298
20233W        W36127   6.285  16.443  11.736  0.0278  0.1612 -0.2074
20234W        W36128   3.671  12.056  13.765  0.1118  0.0274  0.2590
20235W        W36129  14.942   4.519   4.516 -0.0121  0.4194  0.1887
20236W        W36130  17.974  11.246   0.687 -0.3101  0.0428 -0.2528
20237W        W36131  17.240  18.048   2.954  0.1403  0.1584  0.3359
20238W        W36132   6.646   4.850   4.167 -0.1384 -0.1317  0.1213
20239W        W36133  15.151   4.674   1.426  0.0994 -0.2231  0.0937
20240W        W36134  16.607   0.648  14.869  0.2109 -0.0446  0.1839
20241W        W36135   4.086  11.100   1.943 -0.3631  0.0664 -0.0994
20242W        W36136  12.295   3.484   3.353 -0.1221 -0.3631 -0.3132
20243W        W36137  13.789   7.227  14.763  0.1032 -0.4446  0.0474
20244W        W36138  17.818   9.732   3.169  0.0138  0.2407  0.2771
20245W        W36139   8.143   7.363   9.281  0.1220  0.2346  0.0628
20246W        W36140  17.932   7.724  13.878  0.1626 -0.1031 -0.0737
20247W        W36141   7.379  10.302  14.931 -0.1260 -0.3114  0.0926
20248W        W36142   8.546   3.957  15.037  0.0926 -0.3031  0.1571
20249W        W36143   5.656  17.419  10.701  0.0291  0.1361 -0.4554
20250W        W36144  18.749   7.761  11.901  0.0371 -0.0008  0.1421
20251W        W36145  10.312  17.329  13.436 -0.1195  0.1493  0.0236
20252W        W36146  10.291  18.370  11.136 -0.2879  0.2221 -0.0535
20253W        W36147   9.059   6.108  11.745 -0.3305 -0.1442 -0.1022
20254W        W36148   5.069  13.226   4.375  0.1122  0.0672  0.2254
20255W        W36149   6.633   0.806   1.173  0.3210 -0.0982  0.1352
20256W        W36150   9.139   8.875   2.720  0.2913 -0.1226  0.5108
20257W        W36151   2.041   4.647   0.803 -0.1294  0.0113  0.0917
20258W        W36152   0.356   7.247   4.706 -0.1591  0.0070 -0.0861
20259W        W36153  18.097   4.187   2.957 -0.0541 -0.0445  0.0863
20260W        W36154  12.780  14.815   2.107  0.1565  0.1399 -0.2313
20261W        W36155  18.059   4.392   2.177  0.1169 -0.4029  0.1347
20262W        W36156  15.996   2.646   1.376  0.3310 -0.4480 -0.3050
20263W        W36157  16.937   1.548  11.508  0.2537  0.0476  0.0048
20264W        W36158  15.565   9.442  12.698  0.2775 -0.1463  0.0951
20265W        W36159   3.545   6.106  12.158 -0.3277  0.1131  0.4334
20266W        W36160  13.812   7.529  14.078 -0.0873 -0.0589  0.0913
20267W        W36161  14.779  12.088  10.824  0.2832 -0.1811 -0.0645
20268W        W36162  12.079  13.827   2.219  0.1547  0.4249 -0.1078
20269W        W36163  17.127   8.350   0.366  0.0844  0.0545 -0.1140
20270W        W36164   4.511   6.705   1.968  0.2134 -0.2031 -0.0700
20271W        W36165  14.812   2.684  13.080 -0.0889 -0.4096  0.1386
20272W        W36166  15.918   8.648   2.488  0.0257 -0.2032 -0.0138
20273W        W36167  15.001  15.935  11.019  0.1274  0.0646 -0.0548
20274W        W36168  15.092  19.028  14.322  0.2701 -0.2026  0.2239
20275W        W36169   8.105  17.256  12.216 -0.2438  0.1725 -0.1806
20276W        W36170   9.734  12.789   1.964 -0.4087 -0.4176 -0.3805
20277W        W36171  14.490   4.428   3.921 -0.3279 -0.2527  0.1514
20278W        W36172   2.138   0.816   1.535  0.1070 -0.0622 -0.0424
20279W        W36173   8.590   2.424   0.341  0.1469 -0.4264 -0.2688
20280W        W36174   0.962   8.013  12.672  0.1151  0.1509 -0.4233
20281W        W36175   3.091  15.634   4.354 -0.0463  0.1699  0.1763
20282W        W36176   2.204   5.603   2.527 -0.1409  0.0459  0.4359
20283W        W36177   1.395  11.104  12.474 -0.0556  0.0291  0.0974
20284W        W36178  17.394   2.732  12.953 -0.1511  0.1629 -0.2225
20285W        W36179   7.620   4.657   5.310 -0.1161 -0.1343 -0.1054
20286W        W36180   9.256  16.442   2.215 -0.1337 -0.0647  0.1304
20287W        W36181  17.334  10.678   0.108 -0.1798 -0.1501  0.1059
20288W        W36182   8.107  19.068   0.311 -0.1572  0.1456 -0.0786
20289W        W36183   6.815   3.104   4.413 -0.2440 -0.0647  0.0561
20290W        W36184  14.362  11.168   3.868  0.2697  0.1239 -0.0723
20291W        W36185  13.271  13.022  11.557 -0.0819 -0.0025  0.0627
20292W        W36186  18.078  18.711  12.010 -0.2325 -0.1021 -0.1440
20293W        W36187   8.373   5.411  14.574 -0.0539  0.2911  0.1176
20294W        W36188   7.252  12.303  11.847 -0.2259 -0.1005  0.0828
20295W        W36189  18.387   8.988  12.051 -0.0765 -0.0265 -0.3019
20296W        W36190  11.949   1.224   2.919 -0.3334 -0.1804 -0.0285
20297W        W36191   2.156  14.373  14.634 -0.2822  0.1056  0.0368
20298W        W36192  12.504   5.822   1.489  0.2304 -0.0070 -0.1343
20299W        W36193   4.293   2.255  13.249 -0.0812  0.1792 -0.0584
20300W        W36194  10.694  15.969   3.861  0.0175 -0.0825 -0.0463
20301W        W36195  13.006   2.667   3.459 -0.1503  0.1718 -0.0715
20302W        W36196   3.637   1.709  13.460  0.2917  0.2199  0.3002
20303W        W36197  11.552   1.287   0.368  0.0251  0.2828 -0.1164
20304W        W36198  14.992  11.194   5.644 -0.2329  0.2719  0.2042
20305W        W36199   4.926   6.965  13.834 -0.0637 -0.3287  0.3154
20306W        W36200   2.319   9.585   4.556  0.0368  0.4716  0.0731
20307W        W36201   0.160   1.375   1.211 -0.0883 -0.1414 -0.0767
20308W        W36202  16.200   9.165  13.791 -0.2056 -0.0364  0.0424
20309W        W36203   6.204  10.718  11.334 -0.0189  0.1030  0.2153
20310W        W36204  16.660   3.090   0.203  0.0595 -0.2418 -0.0763
20311W        W36205  13.258   7.355  11.682 -0.1851  0.0867  0.1400
20312W        W36206   5.040  14.522  12.899 -0.1816 -0.4612 -0.0966
20313W        W36207   9.996   9.378  10.905 -0.1079 -0.0595 -0.1302
20314W        W36208   1.935   2.227   0.219 -0.0788 -0.0137 -0.2163
20315W        W36209   7.734  18.086  12.855 -0.0172  0.2679  0.2222
20316W        W36210   5.725  16.061   2.058  0.1334  0.1095 -0.2981
20317W        W36211   4.765  13.290   3.724  0.2247  0.0069 -0.1698
20318W        W36212   3.052   5.363   1.600 -0.3846  0.2740  0.2247
20319W        W36213   1.665   9.506   1.430 -0.1375  0.3390 -0.0121
20320W        W36214  12.196  12.191  11.086 -0.0034 -0.2883 -0.1791
20321W        W36215   3.617  10.158  11.391 -0.5005 -0.1168  0.0958
20322W        W36216   0.472  15.798  14.095  0.4247 -0.2020 -0.0075
20323W        W36217   0.158   8.494   9.576  0.3163  0.3768 -0.0358
20324W        W36218   3.438  10.085  13.231  0.1612 -0.4623 -0.1047
20325W        W36219   6.873   4.940   3.727 -0.2993  0.1455  0.4022
20326W        W36220  11.950  18.690  11.973 -0.1591 -0.1060 -0.0069
20327W        W36221  10.711  15.024  12.832 -0.1212  0.0381 -0.0164
20328W        W36222  12.824   1.119   5.242  0.1230 -0.0254 -0.0227
20329W        W36223   5.742   6.424  12.960 -0.0289 -0.1773 -0.5044
20330W        W36224  12.541   2.956   0.298  0.4017 -0.1669  0.0779
20331W        W36225   8.833  17.515  13.615 -0.0131 -0.3895  0.0201
20332W        W36226  10.296  18.021   4.823  0.2528 -0.2693 -0.0163
20333W        W36227   4.744   6.741  15.078 -0.2364  0.2966  0.1708
20334W        W36228   8.371   6.949  10.916  0.2846  0.1999  0.0890
20335W        W36229  18.223   5.088  13.626 -0.0051 -0.2233 -0.0727
20336W        W36230  18.741  13.834   3.744  0.1981  0.0083 -0.0613
20337W        W36231  12.799  16.618   0.522 -0.1276 -0.1309 -0.3944
20338W        W36232  16.578   3.534  13.805  0.0498 -0.0272 -0.0113
20339W        W36233   9.450   1.010  13.784  0.1045  0.0435 -0.2539
20340W        W36234   1.011   7.958  14.160  0.1434 -0.1277 -0.4748
20341W        W36235   1.617  15.884  11.286 -0.1947 -0.1009  0.1569
20342W        W36236   8.046   4.079  14.640 -0.3735  0.0058 -0.1944
20343W        W36237  10.609   4.356  14.129  0.3779  0.0341 -0.1723
20344W        W36238   7.963   2.752   1.529  0.1623  0.1141  0.1650
20345W        W36239  16.968   1.163   4.568  0.0397 -0.1789  0.0683
20346W        W36240  15.548  10.241  14.239 -0.1599 -0.0073 -0.0688
20347W        W36241  18.263  13.795   1.752  0.0645  0.0814  0.2703
20348W        W36242   4.011   2.511   3.502  0.1365 -0.1807  0.1093
20349W        W36243  14.582   5.565  14.241 -0.2518  0.1026  0.0025
20350W        W36244   4.406  16.694  12.367 -0.1347  0.3435  0.0604
20351W        W36245  14.725  12.580  15.049  0.0991  0.1242 -0.0269
20352W        W36246  16.804   2.059   1.172  0.1396 -0.2324  0.0321
20353W        W36247   9.566   6.324  12.109 -0.1414 -0.0585  0.0834
20354W        W36248   1.336   3.724  12.826 -0.2214 -0.2840 -0.1235
20355W        W36249   0.885  14.672   3.180  0.2096 -0.1681  0.3716
20356W        W36250  12.248   6.959   2.443  0.1026 -0.0187 -0.1156
20357W        W36251   5.250   7.907  12.760 -0.0531  0.2663 -0.3833
20358W        W36252   7.625   5.793  13.280 -0.2748  0.0583  0.0034
20359W        W36253   2.897  13.976  13.969 -0.1030  0.1309  0.1449
20360W        W36254   3.802  11.462   1.688 -0.2261 -0.3357 -0.2198
20361W        W36255  18.689  15.501   0.790  0.1415  0.0172  0.0413
20362W        W36256   2.637   8.990   1.666  0.3996  0.2119  0.3510
20363W        W36257   1.514  15.390  12.027 -0.0920  0.0860  0.0301
20364W        W36258  13.677  18.239   4.240  0.2138 -0.2260  0.2174
20365W        W36259   2.260  17.509  13.138  0.0103  0.2803  0.0953
20366W        W36260   8.864  15.344  14.430  0.2596  0.0043  0.0689
20367W        W36261   0.011   8.631  14.145 -0.3521  0.1779 -0.0827
20368W        W36262  12.239  11.732   3.395  0.1740 -0.0859 -0.1317
20369W        W36263  15.544   7.170   4.731  0.3018  0.2338  0.4113
20370W        W36264   9.460   3.350  13.264 -0.5000  0.0686  0.0654
20371W        W36265  13.019  15.274  12.334  0.1443  0.0032 -0.5911
20372W        W36266  12.537   5.024  12.021 -0.2066  0.0605  0.1365
20373W        W36267   5.304   8.892   1.997 -0.0643 -0.0969 -0.3611
20374W        W36268  14.827  13.894   2.571 -0.1642 -0.0741  0.1107
20375W        W36269  10.612   7.207  13.277 -0.0812 -0.3958 -0.3175
20376W        W36270   1.571  12.503  13.629  0.0663  0.2814  0.1068
20377W        W36271  16.956   5.652   2.802  0.0011  0.3050  0.0335
20378W        W36272  15.347   1.403   2.599 -0.2272 -0.1536  0.0590
20379W        W36273   8.495  16.199   2.563 -0.2744 -0.0647 -0.1984
20380W        W36274   1.386   9.256   2.960 -0.1751  0.0277  0.2706
20381W        W36275  10.417   9.567   2.153 -0.1754 -0.4666  0.1118
20382W        W36276   9.275   2.626  13.259  0.0213 -0.2632 -0.4608
20383W        W36277   1.477   2.744   9.976  0.1640 -0.1476  0.3102
20384W        W36278  17.678  10.176  13.732 -0.0878  0.1219 -0.2817
20385W        W36279   7.977  11.338  12.489  0.2325 -0.3634 -0.2612
20386W        W36280   9.456  13.340   2.417 -0.2252  0.0619 -0.1753
20387W        W36281   3.849  17.010   2.309 -0.1782  0.0369  0.0195
20388W        W36282  17.262   2.018   0.222 -0.1967  0.0545 -0.1732
20389W        W36283   3.520  16.701  11.804 -0.2658  0.1732  0.0120
20390W        W36284   6.883   9.236   2.372  0.0500 -0.0162  0.2999
20391W        W36285  12.248   8.464  12.239 -0.3672  0.1655  0.1554
20392W        W36286   4.420  18.947  11.202  0.1055 -0.0844  0.0387
20393W        W36287  13.420   9.703   3.503 -0.1306 -0.1275  0.2318
20394W        W36288   7.738   7.721  11.944 -0.4091 -0.1611 -0.2179
20395W        W36289  13.540   8.028   2.537 -0.1800 -0.2087 -0.0743
20396W        W36290   4.774   8.999   2.386  0.0646  0.1857  0.3297
20397W        W36291  13.015  14.164   2.149  0.0330 -0.0630 -0.2099
20398W        W36292  17.882  14.440   2.238  0.1460  0.0881  0.1390
20399W        W36293   8.080   9.122   2.701  0.1425  0.2699 -0.3220
20400W        W36294   0.257   8.089   0.975  0.2613  0.1288  0.1834
20401W        W36295   4.294   1.146  13.262 -0.1705 -0.0834  0.1005
20402W        W36296  11.234  17.819  13.396  0.0043 -0.0065  0.0818
20403W        W36297   9.374  11.621  14.495 -0.5541 -0.0940  0.2133
20404W        W36298   9.597   7.818   3.293  0.4065  0.0185  0.1162
20405W        W36299   1.272  12.650   0.186 -0.0343 -0.0587  0.1260
20406W        W36300  12.579   1.135  14.589  0.2555  0.2443 -0.1471
20407W        W36301   4.144  10.388   0.167  0.0206  0.0010  0.0083
20408W        W36302   2.805   7.674  10.258 -0.0808  0.1689 -0.1695
20409W        W36303   3.387  12.011  14.264  0.0314  0.1979  0.2748
20410W        W36304  15.475  14.198  10.327  0.3281  0.0812 -0.2779
20411W        W36305   1.031   8.913  14.773 -0.3109 -0.1875 -0.0612
20412W        W36306   7.065  12.792   4.653  0.2969  0.0693 -0.0631
20413W        W36307   2.401   8.054   1.064  0.0784  0.0580  0.1956
20414W        W36308   2.341  18.689   2.048 -0.0235 -0.0228  0.0728
20415W        W36309   6.436  15.227   4.751  0.2763  0.1359  0.1538
20416W        W36310  16.911   2.157  15.025 -0.1008 -0.0565  0.5352
20417W        W36311   0.331  18.694   4.416 -0.6167  0.0141 -0.0454
20418W        W36312  17.558   6.411  12.134  0.0186 -0.0602 -0.0488
20419W        W36313   4.111  18.052  10.518  0.2134 -0.1246  0.4053
20420W        W36314  12.822  16.393   4.449  0.0489 -0.1423 -0.1321
20421W        W36315  10.119  16.077   0.987 -0.1419 -0.2471  0.1419
20422W        W36316   7.950  16.543   3.946 -0.0003 -0.1701  0.0822
20423W        W36317   4.221   4.865  12.814 -0.0489 -0.0174  0.0012
20424W        W36318   6.009   1.852   2.098 -0.0800 -0.0513 -0.2083
20425W        W36319  12.503  19.179   3.179 -0.2382  0.1576  0.1405
20426W        W36320   8.648   0.164   3.879 -0.0611  0.1586 -0.2731
20427W        W36321   4.753  18.716  13.542 -0.0120 -0.0132 -0.2187
20428W        W36322   5.811  15.304   3.074  0.0829  0.1323 -0.0583
20429W        W36323   4.012  11.986   0.960 -0.2724  0.2342 -0.3016
20430W        W36324   5.061   3.565   4.449  0.2089 -0.2014  0.3560
20431W        W36325  14.393  10.715  10.834 -0.2531 -0.1938 -0.2678
20432W        W36326  14.938   8.048  14.394 -0.1559 -0.3124 -0.1599
20433W        W36327   7.378  12.638  12.856 -0.2505 -0.2653  0.2390
20434W        W36328   7.556   6.303  13.184 -0.0993 -0.0015  0.3042
20435W        W36329  13.039  14.600   0.151  0.5112  0.1164  0.3865
20436W        W36330   5.504   5.210  11.979  0.0705 -0.0795 -0.1992
20437W        W36331   8.545   9.450  14.726 -0.0198 -0.1483  0.3071
20438W        W36332  10.844  17.149  12.755  0.1928  0.0017  0.0116
20439W        W36333   0.272  12.433   2.571  0.0702 -0.1476 -0.1835
20440W        W36334   3.063   3.753   1.563  0.0367  0.1286 -0.4064
20441W        W36335  17.721   6.639   9.886  0.1323  0.3930  0.1475
20442W        W36336  13.063   2.211   3.591  0.0653 -0.0983  0.5294
20443W        W36337   5.915  13.908   3.473 -0.2460  0.0336 -0.0197
20444W        W36338   9.783  13.255  13.745  0.3513  0.3156  0.3595
20445W        W36339  17.962   6.163   9.989 -0.2939 -0.0752 -0.1946
20446W        W36340  16.403   2.384  11.388 -0.1565  0.1483  0.0987
20447W        W36341  11.178  12.859  14.290 -0.1177  0.1160  0.2370
20448W        W36342  10.263  19.039   3.658 -0.0631  0.2289 -0.0017
20449W        W36343  17.445   1.499  12.721  0.0246 -0.0530  0.1509
20450W        W36344  14.867   8.661   1.675 -0.0726  0.1635 -0.3335
20451W        W36345   7.442   8.569   4.082 -0.3294 -0.1754 -0.0944
20452W        W36346   2.596   5.538   1.647  0.1203  0.1417  0.0082
20453W        W36347  11.682  10.021  13.160  0.0074 -0.2227  0.0181
20454W        W36348   6.075  13.427   3.523  0.1010 -0.0747 -0.2727
20455W        W36349   4.544   6.120   1.788 -0.3472 -0.0181 -0.0230
20456W        W36350  17.689   6.353   5.519 -0.0875 -0.0659  0.0394
20457W        W36351   6.569   6.658  13.035  0.1357 -0.0702 -0.0005
20458W        W36352  10.693   6.256  11.796 -0.1464 -0.0110 -0.2306
20459W        W36353  12.717   8.211   4.724 -0.2040  0.0280  0.3193
20460W        W36354   3.504   4.219   1.954 -0.2708 -0.0077  0.1871
20461W        W36355  17.878  18.758   4.537  0.2050 -0.3680  0.3968
20462W        W36356   0.808  12.531   5.824 -0.0628  0.0060 -0.1018
20463W        W36357  15.382   1.246  12.036 -0.1984 -0.1460  0.2084
20464W        W36358   6.574   0.707   2.587  0.1849  0.0000  0.0202
20465W        W36359   2.199   8.166   3.405  0.1008  0.2410 -0.0376
20466W        W36360  12.523  12.872  10.662  0.2952 -0.2022  0.1964
20467W        W36361   8.087   6.433   2.532 -0.0783 -0.0586 -0.0644
20468W        W36362  16.163  15.008  11.975 -0.3047  0.2594  0.0519
20469W        W36363  12.216   0.539  14.392  0.1889 -0.2425  0.0100
20470W        W36364  19.110   9.187   2.083 -0.0926  0.0470  0.2535
20471W        W36365  10.171  10.486  11.295 -0.2214  0.0678 -0.0916
20472W        W36366  13.151   5.023   3.291  0.2088  0.2009 -0.0163
20473W        W36367  16.619   5.921   0.505  0.3205 -0.0755 -0.1752
20474W        W36368  10.570  17.684   4.034 -0.1961 -0.1031 -0.0078
20475W        W36369   6.078  10.650   1.575 -0.2044 -0.2360 -0.0425
20476W        W36370   3.249  10.119   2.209 -0.0128  0.1114 -0.0757
20477W        W36371  11.298  16.801   1.389  0.1642  0.1274 -0.0744
20478W        W36372  17.701  14.149   3.109  0.1584  0.0144  0.0407
20479W        W36373   4.882  17.715  14.809 -0.0282 -0.1460 -0.2729
20480W        W36374  13.293   7.289   4.658 -0.1194 -0.0307  0.0299
20481W        W36375   4.211   5.320  13.992  0.0174 -0.0676 -0.4811
20482W        W36376  12.177  16.906  12.762 -0.1244  0.1574  0.1201
20483W        W36377  18.893   0.095  10.758  0.1450 -0.0211  0.0275
20484W        W36378   1.247   9.396   2.458  0.2298  0.0537  0.0512
20485W        W36379  18.495  11.083   0.916 -0.2113 -0.1438 -0.0954
20486W        W36380  14.953  12.203  14.043  0.1719 -0.2648 -0.0620
20487W        W36381   5.890  14.185  12.266  0.0987  0.1592 -0.2658
20488W        W36382  18.972   0.568  14.634 -0.4803 -0.1531  0.3565
20489W        W36383   4.599  14.326  12.422 -0.0421 -0.0260  0.0146
20490W        W36384  15.810  10.677  14.706 -0.2168  0.0471 -0.1465
20491W        W36385  14.408   0.056   3.542 -0.1733 -0.1053  0.1523
20492W        W36386  12.402  15.592   0.716  0.0440 -0.2063  0.4211
20493W        W36387   8.967  19.045  14.170 -0.0414 -0.2632  0.0584
20494W        W36388  12.432  11.422   1.568 -0.1677 -0.1445 -0.2956
20495W        W36389   4.363   9.925   0.145  0.2767  0.0251 -0.1265
20496W        W36390  18.247  14.778   0.670 -0.0254 -0.1109  0.0428
20497W        W36391  15.046  10.264  12.913  0.0724  0.1164  0.0388
20498W        W36392  11.091   9.650  11.387  0.2422 -0.2638 -0.1273
20499W        W36393  16.393  16.281  10.914  0.1200 -0.2635 -0.1877
20500W        W36394  14.230   0.928  14.574 -0.1884 -0.1764  0.0661
20501W        W36395   2.847   1.414  14.425 -0.0024 -0.1594  0.0728
20502W        W36396  14.573   2.838   3.227 -0.1135 -0.1743 -0.0174
20503W        W36397  17.067  11.704  12.982 -0.2192 -0.0272  0.1928
20504W        W36398  10.162   6.851  10.585  0.3281 -0.0217  0.2945
20505W        W36399  13.148  14.070  12.356  0.1031 -0.2868 -0.0958
20506W        W36400  12.269  16.954   4.674 -0.0457  0.1154 -0.0717
20507W        W36401  15.926  11.026  12.006 -0.2089 -0.0153 -0.1355
20508W        W36402   2.627   1.483  13.945 -0.3694 -0.1660 -0.0221
20509W        W36403   4.322  13.991   0.694 -0.1273  0.2509 -0.0163
20510W        W36404  12.287   9.386   4.641 -0.0269  0.1156 -0.1456
20511W        W36405  18.949   1.936   5.300 -0.0436 -0.1582 -0.1535
20512W        W36406   6.801   2.234   0.951  0.0984  0.3170  0.0903
20513W        W36407  11.121  16.381   2.050 -0.3046  0.3100 -0.5302
20514W        W36408  11.056   3.888  11.389  0.0559 -0.0050  0.0783
20515W        W36409   5.306   7.136   3.199  0.1314  0.0072  0.0561
20516W        W36410   9.658   2.655   4.574  0.3094 -0.0626  0.2946
20517W        W36411  16.580  15.003   4.858 -0.0009 -0.0746  0.2690
20518W        W36412   7.435  17.036  13.800  0.2016  0.0239  0.1314
20519W        W36413  12.549  18.255   0.760 -0.1313  0.2631  0.0199
20520W        W36414   3.004  11.729   3.947 -0.3364  0.2706  0.0073
20521W        W36415  15.529  17.495   0.794  0.0823 -0.0472  0.0184
20522W        W36416  14.135  15.458   4.680 -0.2651 -0.2395  0.0764
20523W        W36417  10.452   9.931  14.059 -0.3847 -0.0272 -0.2174
20524W        W36418   5.820  12.368  11.430 -0.3379  0.1223 -0.1730
20525W        W36419   5.960   4.389   1.873 -0.0554 -0.0075  0.1990
20526W        W36420  14.657   9.841  13.912 -0.0456  0.0671  0.0437
20527W        W36421   6.351  14.976  12.328  0.1074  0.1767 -0.0024
20528W        W36422  12.504   2.525   2.619  0.0571  0.0007  0.1459
20529W        W36423   2.130   0.089  15.120 -0.1379 -0.0297 -0.1399
20530W        W36424  18.336   4.579  11.290 -0.1884  0.2986 -0.2074
20531W        W36425  12.299   7.498   2.289 -0.3285  0.1150 -0.1966
20532W        W36426   6.859  14.069  13.138 -0.0014 -0.0906  0.1166
20533W        W36427   4.091   9.902  10.593  0.4233  0.0004 -0.1236
20534W        W36428   3.401  18.770  12.694 -0.2355  0.0016  0.0411
20535W        W36429  12.730   8.296  14.721  0.2136 -0.0984  0.1509
20536W        W36430  15.919  17.215   1.077 -0.2149  0.1688 -0.0431
20537W        W36431  10.494   7.322   3.371  0.0664 -0.0605  0.1425
20538W        W36432   3.857  12.181  14.667  0.3707 -0.0837 -0.0349
20539W        W36433   3.175   3.873   9.443  0.1218 -0.1794  0.1311
20540W        W36434  17.769  16.271   5.157 -0.3897 -0.2849  0.1835
20541W        W36435  17.618  16.941  14.995  0.0925 -0.0409  0.1145
20542W        W36436   3.033  13.072   1.987 -0.2118 -0.2247  0.0714
20543W        W36437  16.536  15.647   0.305  0.0097  0.0047 -0.2404
20544W        W36438   6.451  13.963  10.554  0.1279 -0.0028 -0.1447
20545W        W36439   4.110   9.841   0.981  0.3160 -0.3428 -0.2322
20546W        W36440  18.523   0.396  14.213 -0.3656 -0.2978 -0.0821
20547W        W36441   5.211  16.136   4.170  0.3478  0.2691 -0.1057
20548W        W36442   6.285   6.840  12.158  0.0124  0.3748 -0.0667
20549W        W36443  17.247  18.592  12.400  0.0773 -0.1091  0.0798
20550W        W36444  13.933  17.949  12.356  0.2681 -0.3582 -0.3731
20551W        W36445  17.846   4.953   5.832 -0.0278  0.2242  0.3433
20552W        W36446   5.789  13.524   1.641 -0.0792 -0.0220  0.2010
20553W        W36447  10.735  17.332   2.495  0.0161 -0.1407 -0.1031
20554W        W36448   9.624   1.095   2.071 -0.2268 -0.4886  0.2455
20555W        W36449   5.341  16.843   0.285 -0.0426 -0.1451  0.1191
20556W        W36450   3.341  15.885   1.800 -0.0321 -0.1888 -0.0937
20557W        W36451  12.384   9.627   1.233 -0.1129 -0.2627 -0.1379
20558W        W36452  18.509  15.254  13.739 -0.0515  0.3026 -0.1973
20559W        W36453   4.836   7.742   4.140 -0.1061  0.2042  0.1075
20560W        W36454  14.649  10.906   4.174 -0.1042 -0.0224 -0.3467
20561W        W36455   6.634  14.389  14.620 -0.0473  0.0006  0.2523
20562W        W36456   8.647   1.494   2.852 -0.3016 -0.4017 -0.1142
20563W        W36457   6.437   0.074  10.568 -0.3137  0.3576  0.1759
20564W        W36458  17.306   4.763  11.508  0.0197  0.0930 -0.4670
20565W        W36459   5.544  12.501  10.987 -0.6156  0.1251  0.0695
20566W        W36460   7.721   8.790  10.823  0.0897  0.1984 -0.3117
20567W        W36461   0.601  13.924   3.918  0.0179  0.0151  0.1967
20568W        W36462   3.673  17.548   5.106  0.0784 -0.0022 -0.1679
20569W        W36463   9.219   3.120   2.787  0.3727 -0.1251 -0.0735
20570W        W36464   7.921  14.850   1.796 -0.2664  0.2196  0.1884
20571W        W36465  10.682  16.247  14.553  0.0630  0.0749  0.1305
20572W        W36466  18.908  11.372  11.304 -0.2856 -0.1562  0.0381
20573W        W36467  15.901   3.066   9.596  0.3092 -0.0279 -0.0377
20574W        W36468  17.027  13.682   3.775 -0.2949 -0.0418  0.2660
20575W        W36469  12.018  18.554  14.702  0.0696  0.1696 -0.1433
20576W        W36470   4.813   9.232  12.896  0.1895  0.0141  0.1718
20577W        W36471   6.158   0.460   2.070 -0.0599  0.0659 -0.2390
20578W        W36472   4.429  13.019  10.773 -0.3859  0.0585  0.2500
20579W        W36473   4.091   9.323   5.113 -0.1279  0.4754  0.0134
20580W        W36474  17.763   3.353  12.526  0.1628  0.0554  0.0720
20581W        W36475  11.476   7.727   0.634  0.2687  0.1981  0.0708
20582W        W36476  11.130  14.209   0.775 -0.0220 -0.0248 -0.0165
20583W        W36477  17.589  12.166   9.399 -0.0263 -0.0499 -0.2811
20584W        W36478   9.049   1.958   2.024  0.0320  0.2890 -0.1123
20585W        W36479   6.930   3.250   2.710 -0.1560 -0.0094 -0.0279
20586W        W36480   9.273   8.474  12.401 -0.4593 -0.2400  0.0197
20587W        W36481  10.457  14.739   0.393  0.2957  0.0177 -0.1607
20588W        W36482  12.127   5.402   9.956 -0.3284  0.3188  0.1987
20589W        W36483  15.083   9.483  13.709  0.0058 -0.0937 -0.1314
20590W        W36484  15.536   6.001   0.597 -0.2565 -0.1875 -0.2451
20591W        W36485  13.656   8.135   3.509 -0.2638 -0.4912  0.2445
20592W        W36486  19.115   3.428  12.989 -0.1076  0.3510  0.2184
20593W        W36487  12.384   3.912  14.094 -0.1658  0.2681 -0.0833
20594W        W36488   2.543  11.619  12.707 -0.0058 -0.0927  0.3119
20595W        W36489   8.514   6.607  15.166 -0.0006  0.1316 -0.0854
20596W        W36490  13.626  17.349  11.611 -0.1970  0.1627 -0.0021
20597W        W36491   2.238  17.756   5.075  0.4315  0.0492 -0.0841
20598W        W36492  15.017   0.941  12.892 -0.1674  0.0793 -0.3036
20599W        W36493  14.165   1.862   5.410 -0.1169  0.5621  0.2782
20600W        W36494   1.519   5.293  10.929  0.1099 -0.1407 -0.4852
20601W        W36495  12.657  13.569   0.624  0.3235  0.0575  0.3414
20602W        W36496  12.285  16.161   2.940 -0.2738 -0.0457 -0.1858
20603W        W36497  18.668   0.500  14.997  0.1954  0.3609  0.2388
20604W        W36498  16.133   9.617   3.134  0.0683  0.2399 -0.2078
20605W        W36499  15.957  16.290  13.991  0.1569  0.0229  0.0318
20606W        W36500   6.999   3.266  11.207 -0.0256  0.0836  0.3665
20607W        W36501  18.413  16.695   2.667  0.0579  0.0454 -0.4874
20608W        W36502  12.488  17.125  11.731  0.1941  0.1463 -0.2446
20609W        W36503  10.785  11.365  13.880 -0.3083  0.0035 -0.1027
20610W        W36504   3.698   7.542   2.778 -0.1216 -0.2207  0.1522
20611W        W36505  16.790   6.970   4.088 -0.1483 -0.0361  0.0632
20612W        W36506   2.872  17.540   4.122 -0.0103  0.0124  0.0237
20613W        W36507  11.401   4.088   3.399 -0.4843  0.2123 -0.1294
20614W        W36508  14.065  14.831  11.316  0.1053 -0.1744  0.1598
20615W        W36509   5.009   5.482   1.812  0.0181  0.3621 -0.1329
20616W        W36510  13.871   2.959   2.964 -0.5147 -0.3762  0.0844
20617W        W36511   3.932   9.940   0.446  0.2645  0.2601  0.0931
20618W        W36512   1.851   2.952   3.117 -0.1686 -0.0346  0.3468
20619W        W36513   5.538   6.342  13.398  0.2045 -0.2494  0.2118
20620W        W36514  11.176  12.307   1.998 -0.0712 -0.1829  0.0074
20621W        W36515   6.894  12.182  12.251  0.0498  0.0618 -0.1146
20622W        W36516  18.308  12.705   1.159  0.2547 -0.0893  0.0538
20623W        W36517  15.735   3.067   0.196 -0.3237 -0.1628 -0.0169
20624W        W36518  18.504   7.390  14.831 -0.0952  0.0918  0.2866
20625W        W36519   2.074   4.227  12.336  0.0239  0.0511  0.2495
20626W        W36520   3.861  17.296   3.841  0.1153 -0.3630 -0.2547
20627W        W36521  13.150  16.104  14.775 -0.1685  0.2405 -0.1348
20628W        W36522  18.250  14.862  10.829  0.0351  0.2275 -0.0519
20629W        W36523  18.163  15.629  14.751 -0.1674  0.0553  0.2300
20630W        W36524   5.601   9.458   2.669 -0.1100  0.1296  0.1980
20631W        W36525   1.630   7.576   0.462 -0.1344 -0.1857 -0.0427
20632W        W36526   1.195   2.312   3.467 -0.0445  0.1034 -0.1929
20633W        W36527  10.873   2.947   0.321 -0.2247  0.2478  0.0265
20634W        W36528  18.516   3.623   4.895 -0.2201  0.0711 -0.0043
20635W        W36529  13.249   1.562  15.191 -0.2032  0.1004 -0.1760
20636W        W36530   1.625   8.433  15.042 -0.4168  0.2217 -0.0447
20637W        W36531  11.499   1.208  11.177  0.2546  0.0755 -0.3756
20638W        W36532   4.231  12.818   0.723 -0.2740  0.1066 -0.1950
20639W        W36533   3.683   0.967   1.373 -0.4523  0.3412 -0.2960
20640W        W36534   4.600   9.006   6.154 -0.0244  0.2473  0.3030
20641W        W36535  13.873   0.927   2.196  0.1713 -0.1307  0.1105
20642W        W36536  15.809   4.892   5.900 -0.0250  0.0932  0.1106
20643W        W36537  15.253   9.977  13.934  0.4423 -0.2989  0.0158
20644W        W36538   5.482   3.519  12.885  0.0227  0.2030 -0.2929
20645W        W36539  19.109  12.192   3.661  0.0785  0.2231  0.3460
20646W        W36540   9.501   6.893   1.554  0.0263 -0.1028  0.1272
20647W        W36541  15.334  13.474   2.646  0.1670  0.0344 -0.0906
20648W        W36542   0.414  16.635  12.398 -0.2552  0.2117 -0.0562
20649W        W36543   9.750   1.677  12.259 -0.2676  0.2370  0.2379
20650W        W36544   8.998   8.159  10.814 -0.3162 -0.1429 -0.2898
20651W        W36545   7.308  10.817   3.710 -0.1057  0.3109 -0.1472
20652W        W36546  17.563   6.571  15.173 -0.4161 -0.3598  0.3799
20653W        W36547  14.725   4.124  12.511 -0.0803  0.0401  0.2418
20654W        W36548  10.576  10.754  14.493  0.1185  0.2954 -0.1333
20655W        W36549  10.108   6.345  14.843  0.2625 -0.1140  0.0992
20656W        W36550  14.215   9.411   3.179  0.1752 -0.2655 -0.2557
20657W        W36551  13.877   6.993   5.827 -0.1818 -0.0119 -0.4282
20658W        W36552  14.364   9.662  14.873 -0.0127 -0.0309 -0.2004
20659W        W36553  17.960   7.502  11.047 -0.1237  0.0502  0.2589
20660W        W36554  15.228   4.550  14.822 -0.0754 -0.0367  0.3026
20661W        W36555  13.657  14.203   0.530  0.0609  0.0369 -0.2190
20662W        W36556  15.457  13.872   3.347 -0.2001  0.0462  0.2515
20663W        W36557   1.385  16.492  14.964 -0.1181  0.2970 -0.1835
20664W        W36558   8.728  12.057  10.586 -0.2362  0.2063  0.5657
20665W        W36559   4.942  13.916  12.259 -0.3405 -0.1438  0.3287
20666W        W36560  11.024  13.328  10.710  0.1686  0.2636  0.0340
20667W        W36561   9.406   1.407  10.117  0.0805  0.1487  0.1496
20668W        W36562  18.030   5.837  11.153  0.1168  0.3680  0.2174
20669W        W36563  11.730   3.978  13.829  0.1238  0.1253 -0.1307
20670W        W36564   6.127  15.157  12.797  0.2528 -0.0856 -0.2589
20671W        W36565   3.781   4.124  13.220  0.1372  0.0675 -0.0002
20672W        W36566   3.539  10.982  12.007 -0.1945 -0.0216 -0.0658
20673W        W36567   6.875  16.160   4.176  0.0440 -0.0186  0.0942
20674W        W36568   3.422   9.483   0.445 -0.1011  0.1631  0.0223
20675W        W36569   4.754  12.542  14.421  0.3359 -0.1112  0.0765
20676W        W36570  10.110   1.702  12.661  0.2229 -0.0633  0.0550
20677W        W36571   9.382   0.464  11.199  0.5854  0.0664 -0.5205
20678W        W36572   5.479   3.443  15.123 -0.0237 -0.4501 -0.2170
20679W        W36573   5.617  10.864   1.459 -0.2858 -0.0148 -0.1534
20680W        W36574   8.803   1.503  13.468  0.0933  0.0991  0.1879
20681W        W36575  18.186  15.400  11.046 -0.2180 -0.0394 -0.1954
20682W        W36576   3.976  12.499  13.936  0.2534  0.2217  0.1842
20683W        W36577   7.790   2.540   3.880 -0.2397 -0.1534 -0.1499
20684W        W36578  18.900   7.363   2.612 -0.0993 -0.1904 -0.0405
20685W        W36579   1.653  12.624   2.981  0.3117  0.0251  0.1227
20686W        W36580  11.380   0.054  13.915  0.1577  0.0696 -0.0600
20687W        W36581  17.358   6.123  11.806  0.3766 -0.1469 -0.0050
20688W        W36582  18.701  15.802   2.444  0.1762 -0.2073  0.4157
20689W        W36583   3.188   8.794  14.003 -0.0817 -0.0402 -0.1061
20690W        W36584   5.777   9.062  12.992 -0.0031  0.0688 -0.1779
20691W        W36585   4.529   2.626  10.764  0.4689  0.1819  0.1980
20692W        W36586  15.299  15.344   4.154 -0.0921 -0.0295  0.1817
20693W        W36587   6.325   5.652  11.187 -0.0669  0.0055 -0.0853
20694W        W36588  10.247   2.590   1.447  0.0317  0.0081 -0.1571
20695W        W36589   0.007  11.004   4.647 -0.1837  0.1006  0.2079
20696W        W36590   1.965   9.697   0.994 -0.0028  0.2035  0.3813
20697W        W36591  14.381  10.162   1.927  0.0889 -0.1611  0.1862
20698W        W36592  12.696  14.710   2.974  0.0013 -0.0380  0.1280
20699W        W36593   7.577  10.819  14.568 -0.0018 -0.1243  0.2682
20700W        W36594  16.967   3.311  11.191  0.0143  0.1923  0.4098
20701W        W36595  16.804  13.874   4.846  0.1257  0.0823  0.1264
20702W        W36596   0.661  14.866  14.836  0.1850  0.2058  0.0933
20703W        W36597   4.762   9.313  10.792 -0.2051 -0.0701 -0.0198
20704W        W36598  12.735   0.968  11.301 -0.2312  0.1899 -0.2085
20705W        W36599   4.306  14.026   4.658 -0.1538  0.3192 -0.0100
20706W        W36600  10.211  14.155  11.680 -0.1496  0.2549 -0.6278
20707W        W36601  15.724   0.862  13.165  0.1348  0.2375 -0.0734
20708W        W36602  13.796   9.519   4.582  0.0008  0.2172 -0.0247
20709W        W36603  13.866  13.416   0.167  0.0628  0.1241 -0.2563
20710W        W36604   2.184   2.612  11.033  0.0472  0.3038  0.1873
20711W        W36605   5.797  17.960  12.224  0.1264 -0.1837  0.0822
20712W        W36606  15.589   8.538  13.204 -0.4177  0.3570  0.2630
20713W        W36607   2.026  19.153  13.384  0.3403 -0.1610  0.1957
20714W        W36608   3.882   9.272   2.871  0.1673  0.1060  0.2356
20715W        W36609   8.959   5.576   4.430 -0.2483  0.4356  0.1568
20716W        W36610  15.424  17.412   3.884  0.0476 -0.1663  0.1574
20717W        W36611   8.735   8.058  13.412 -0.1737 -0.5146 -0.0699
20718W        W36612  12.804   5.725   0.981  0.1868 -0.0261  0.1880
20719W        W36613  11.590   9.343  14.644  0.3616  0.3362 -0.2499
20720W        W36614   4.630  10.214   2.721 -0.0542  0.0829 -0.1135
20721W        W36615  11.504   9.436  11.241  0.3221 -0.1595  0.0013
20722W        W36616   4.771  18.001   0.243 -0.0718  0.1236 -0.1004
20723W        W36617  14.170   8.992  10.224 -0.0620  0.1561  0.0274
20724W        W36618   8.023  17.216   1.931  0.1262  0.0429 -0.2504
20725W        W36619   8.656   6.400   5.430  0.0811 -0.0495 -0.3671
20726W        W36620   6.919   7.643  14.632 -0.0668 -0.2257  0.1840
20727W        W36621  10.756  16.077   3.010  0.1897 -0.3401  0.0589
20728W        W36622   5.605  11.562   0.687  0.0852 -0.1238  0.2347
20729W        W36623   4.417  11.565  13.077  0.0682 -0.1869  0.3829
20730W        W36624   4.284  15.611  14.434  0.2025  0.4137 -0.1738
20731W        W36625  15.402  15.448   5.024  0.3041 -0.0389 -0.2622
20732W        W36626  13.943   1.395   0.911 -0.2546 -0.1342  0.0166
20733W        W36627  10.057   9.070  13.588  0.1793 -0.1346 -0.1152
20734W        W36628   5.919   8.897   0.241  0.2469  0.1022  0.2065
20735W        W36629   0.199  11.582  12.528 -0.0141  0.0112  0.4245
20736W        W36630  14.484  14.492   5.391  0.1863  0.0998  0.1998
20737W        W36631  13.210   9.951  13.949 -0.0373 -0.3127  0.2379
20738W        W36632   7.310  11.019   4.255 -0.0762 -0.0660 -0.1204
20739W        W36633   6.684   0.853   5.149 -0.3556  0.1702  0.2713
20740W        W36634   6.709  16.386  10.700 -0.1562  0.2255 -0.3936
20741W        W36635   4.415   3.879  10.154  0.2255  0.2145 -0.3577
20742W        W36636  15.633   6.040   4.353 -0.1362 -0.1257 -0.0094
20743W        W36637  13.514  10.227  11.856 -0.1770  0.1199 -0.0760
20744W        W36638  16.200   8.431  10.343 -0.2492 -0.2362 -0.0053
20745W        W36639  16.629   3.306   2.167  0.1400  0.2242 -0.1611
20746W        W36640  18.098  11.125  10.489  0.1238  0.2441  0.2757
20747W        W36641  16.804  15.987  10.926 -0.2712  0.2867  0.1760
20748W        W36642  18.618   3.348  14.836 -0.0845 -0.1493 -0.0182
20749W        W36643  16.401   4.413   0.900 -0.1103 -0.1587  0.2545
20750W        W36644   6.690  17.714  13.557  0.1114  0.1168  0.1772
20751W        W36645   1.429  15.981   4.554  0.2446  0.1859  0.1489
20752W        W36646   4.344   0.807   3.331  0.2175  0.0327 -0.0389
20753W        W36647  10.495  12.154  14.651 -0.0631 -0.0588  0.0508
20754W        W36648   2.278   7.344  13.576  0.1619 -0.4409  0.0557
20755W        W36649   7.730  15.472   2.243 -0.2401  0.3275 -0.0133
20756W        W36650  19.166   3.884  10.825 -0.1248  0.2971  0.0909
20757W        W36651   2.640   4.549  11.354 -0.1173  0.0133  0.0317
20758W        W36652  16.867   9.848   5.237 -0.1151 -0.0057 -0.0867
20759W        W36653  11.360  12.728  10.579  0.1952 -0.2309  0.3099
20760W        W36654   0.045   3.681   4.656  0.1009  0.0806  0.1178
20761W        W36655  11.409  16.728   2.316  0.1270  0.0806  0.2949
20762W        W36656   8.241  11.893   1.579 -0.3334  0.0663 -0.5351
20763W        W36657  12.442   6.634   0.647 -0.1399 -0.2967 -0.2106
20764W        W36658  10.580  15.356   4.563 -0.0271  0.0148 -0.2171
20765W        W36659  11.052  14.310  12.411 -0.2667 -0.1338 -0.0211
20766W        W36660  17.932  12.748  14.351 -0.4751 -0.1484  0.2586
20767W        W36661  13.564  13.847   0.832 -0.0621  0.1544 -0.3774
20768W        W36662  11.661  18.090   2.038 -0.2573 -0.3151  0.1314
20769W        W36663  14.410  10.914   4.659 -0.1421 -0.1383  0.2331
20770W        W36664  15.104  10.970  12.420  0.0923 -0.0614  0.0880
20771W        W36665   0.176  11.777   3.730 -0.3099 -0.0811 -0.2304
20772W        W36666  12.919   9.254  12.995  0.1173  0.0497  0.1293
20773W        W36667  12.507  17.356   2.661 -0.0782 -0.2822 -0.0854
20774W        W36668  16.494  10.053  14.297 -0.1030  0.2121  0.0143
20775W        W36669   3.788  11.213   3.912 -0.0566  0.0672  0.0117
20776W        W36670  18.453   5.617   4.679  0.0057 -0.1130  0.2036
20777W        W36671   3.036   6.760   4.773  0.1132  0.2937  0.1873
20778W        W36672  17.915  16.647  11.384  0.1354  0.1122 -0.0356
20779W        W36673   8.479   0.283  14.338 -0.2993  0.4092  0.5274
20780W        W36674   0.651  11.076   4.619  0.0465  0.0885  0.3731
20781W        W36675  13.944   8.721  14.667  0.3530 -0.2708 -0.1078
20782W        W36676  19.163   6.076  10.545 -0.0135  0.1694  0.0825
20783W        W36677   0.838  17.840   4.678  0.1894 -0.3231  0.2192
20784W        W36678   7.984   8.816  13.626 -0.1695  0.1008 -0.1413
20785W        W36679   3.501   8.047  10.523  0.1896  0.0658  0.1246
20786W        W36680  10.939   6.378  14.514 -0.2925  0.2183 -0.0035
20787W        W36681  16.325   5.535   6.106  0.0409  0.4227 -0.1750
20788W        W36682   2.547   8.929  13.095  0.1817  0.0487  0.4584
20789W        W36683   0.508  16.965  14.572 -0.1459  0.4894  0.1536
20790W        W36684  11.132  16.302  10.955 -0.0847 -0.2243 -0.0043
20791W        W36685   1.299   4.194   1.043 -0.0568 -0.1858 -0.1489
20792W        W36686   7.211   5.208  12.088 -0.1483 -0.1550  0.1076
20793W        W36687   3.416   3.659   0.245 -0.0477  0.0559 -0.0285
20794W        W36688   9.190  13.268  15.185 -0.0944  0.3967  0.2601
20795W        W36689  17.882   0.945  12.594  0.0084 -0.1693  0.2779
20796W        W36690   2.699   3.692   0.299  0.6527  0.0137  0.2686
20797W        W36691   0.722   8.047   5.601 -0.0160 -0.0482  0.3509
20798W        W36692  15.303  18.510  10.982 -0.1298  0.0765 -0.3188
20799W        W36693   9.376   7.238  13.817 -0.0339 -0.4895  0.0063
20800W        W36694  17.413  18.142  11.285  0.1550 -0.0883 -0.2249
20801W        W36695  15.977   2.300  10.295  0.0716 -0.2643  0.5089
20802W        W36696  19.062  13.480   1.127  0.2357 -0.1109 -0.0445
20803W        W36697   7.597  10.672   1.955 -0.0912 -0.1436  0.2357
20804W        W36698  18.781  12.720   9.719 -0.3223  0.0367 -0.0465
20805W        W36699  13.399  10.488  10.882 -0.0274 -0.0597  0.0812
20806W        W36700   9.866  12.872  11.026 -0.0862  0.1263  0.1632
20807W        W36701  12.269   3.364   4.712  0.0212  0.1581 -0.0551
20808W        W36702   3.108   7.415   9.143  0.2134  0.2314  0.5905
20809W        W36703  15.835  15.826  10.847  0.1367 -0.0724 -0.0567
20810W        W36704  13.434  10.203  11.334 -0.2473  0.3017 -0.1682
20811W        W36705  10.585   3.816   4.268 -0.2261  0.0418 -0.1759
20812W        W36706  12.713   9.475   5.960  0.2407  0.0978 -0.0599
20813W        W36707   8.021   2.481  11.970 -0.3739 -0.0240  0.3428
20814W        W36708  10.065   5.167  13.075  0.4735  0.3623 -0.2429
20815W        W36709  13.384   7.023  12.219 -0.0564 -0.1033 -0.0405
20816W        W36710   9.297  15.871   2.676  0.3714  0.0441  0.2395
20817W        W36711   7.630  13.538  13.870  0.0291  0.1930  0.3613
20818W        W36712   2.148   5.546  13.023 -0.1095 -0.4563  0.1158
20819W        W36713   0.968  14.787   4.120  0.2646  0.1788 -0.0350
20820W        W36714  12.318  16.920   2.469 -0.1704  0.0793 -0.2989
20821W        W36715  19.058   6.547   2.211  0.1821 -0.2005  0.1516
20822W        W36716   8.734  11.235   2.004  0.2824 -0.1297  0.3443
20823W        W36717   4.930   6.019  10.490 -0.2124 -0.1859  0.0149
20824W        W36718   6.998  18.128  12.613  0.3112  0.1862 -0.0499
20825W        W36719  16.150   4.187   2.495 -0.1887 -0.3427 -0.0407
20826W        W36720   1.220  10.038   0.223  0.0440  0.5276  0.2955
20827W        W36721   5.062  13.434   0.860 -0.0710  0.2471 -0.0637
20828W        W36722   5.523  18.154  11.883  0.4455 -0.1638 -0.0986
20829W        W36723  16.880  12.920   9.220  0.0570 -0.0913  0.1998
20830W        W36724  15.161  15.652   0.355 -0.0533  0.0275  0.2898
20831W        W36725  12.269   8.119   4.545  0.2107  0.0331 -0.0396
20832W        W36726  18.507   8.561   0.942  0.2022 -0.0160 -0.0099
20833W        W36727   6.527  12.122  11.195  0.3069  0.4233 -0.2939
20834W        W36728   1.305  18.144   4.518  0.0632 -0.1896  0.2539
20835W        W36729   1.871  12.178   4.626  0.0070 -0.2163  0.1878
20836W        W36730   4.154   9.516  12.394 -0.2681 -0.0175  0.1185
20837W        W36731   0.298   6.744  14.230 -0.1854  0.2602  0.1531
20838W        W36732  10.170  16.983  14.820 -0.0042 -0.0032  0.0949
20839W        W36733   0.382  12.805   5.152  0.2337  0.2629 -0.2754
20840W        W36734  12.012   3.609   5.695  0.0539 -0.1084 -0.1544
20841W        W36735  19.097   1.724   1.692  0.0760 -0.1434  0.2865
20842W        W36736   4.670   5.324   1.459 -0.1348  0.2485  0.2851
20843W        W36737  10.324  14.782  13.024 -0.0548 -0.0659 -0.0567
20844W        W36738  18.265  18.196   0.435  0.1087 -0.1340  0.0170
20845W        W36739   8.589   6.214  11.881 -0.2140 -0.1500 -0.1815
20846W        W36740  18.347  18.548   0.081 -0.1117 -0.0466  0.0607
20847W        W36741  18.011   7.698   4.347  0.1840 -0.1138 -0.0050
20848W        W36742   6.811   3.070  14.695 -0.1592  0.1372 -0.0608
20849W        W36743  15.629   8.935   1.488 -0.2749 -0.2154  0.1818
20850W        W36744   3.327  12.438   5.341 -0.0886 -0.3124 -0.1201
20851W        W36745   9.720   9.621  13.841 -0.1468  0.1608  0.4179
20852W        W36746   2.122  11.936  12.499  0.1028  0.2266 -0.0751
20853W        W36747  16.982   2.456  12.926  0.3747  0.2957  0.0660
20854W        W36748   8.608   4.824  12.011  0.0920 -0.0106  0.0376
20855W        W36749   2.560   8.372   3.165  0.3568  0.3820 -0.1720
20856W        W36750  12.438   1.062  13.720  0.0977 -0.0113  0.3628
20857W        W36751  15.204   6.674   1.276 -0.3446 -0.0757  0.1850
20858W        W36752   6.149   3.650   5.620 -0.1369 -0.0983 -0.0346
20859W        W36753   9.682  14.697   5.365  0.4223  0.2925 -0.1452
20860W        W36754   2.085   2.027  13.524 -0.0545  0.0964  0.2190
20861W        W36755  14.225   0.513   2.545 -0.0804  0.1459 -0.0678
20862W        W36756  13.850  10.132   4.668 -0.1474 -0.2197 -0.2907
20863W        W36757  15.529  15.104   3.731 -0.2674 -0.1651  0.0576
20864W        W36758  12.181  10.928  11.847 -0.1742  0.0709 -0.2546
20865W        W36759  12.873   2.121   2.576  0.0084  0.0268  0.1983
20866W        W36760   7.259   1.003   3.230  0.0483 -0.1470 -0.1775
20867W        W36761   6.524  12.090  13.162  0.2060 -0.4227 -0.0142
20868W        W36762   0.864   8.507  10.365 -0.1430  0.1973 -0.0194
20869W        W36763   1.070   4.793   2.706 -0.0100 -0.0441 -0.1957
20870W        W36764   7.466  10.441  12.259  0.1428 -0.0274  0.1534
20871W        W36765   6.141   1.811  12.013 -0.1389 -0.0249 -0.0481
20872W        W36766   8.121   5.175  11.609  0.0699 -0.1325  0.0375
20873W        W36767  10.187  14.648   0.825  0.0407 -0.0159 -0.1526
20874W        W36768   7.690   5.168   2.020  0.1839  0.1813  0.0481
20875W        W36769  14.223   5.684   0.336 -0.0608  0.1059 -0.0269
20876W        W36770   9.371  14.231  12.355  0.2680 -0.2885  0.0834
20877W        W36771   5.168   1.219  15.024  0.0081 -0.1301 -0.0305
20878W        W36772   9.872   0.244   4.302 -0.0968 -0.3380 -0.0251
20879W        W36773  11.504   8.741   0.938 -0.2431 -0.1443 -0.1462
20880W        W36774   0.313  17.932   3.296 -0.0754 -0.0457 -0.1224
20881W        W36775   6.708  11.327   2.948 -0.0786  0.1578 -0.2948
20882W        W36776   7.590   3.999   0.722 -0.1659 -0.0977 -0.0228
20883W        W36777  16.050   0.715   1.294 -0.1688 -0.5520 -0.0961
20884W        W36778  14.315  12.997  13.688 -0.0101  0.0814 -0.2911
20885W        W36779  16.823  10.736   0.362 -0.2325 -0.1325 -0.1099
20886W        W36780   4.158  12.556  11.513  0.2293  0.0766 -0.2375
20887W        W36781  17.135  10.163   0.437  0.1292  0.2509 -0.0483
20888W        W36782   8.383  13.958  10.656 -0.1589  0.2135 -0.1353
20889W        W36783   8.568   1.536   3.324 -0.1036  0.0184 -0.1976
20890W        W36784   8.780   5.096   5.535 -0.2722  0.3731 -0.0230
20891W        W36785   5.282  18.034   0.491 -0.0175  0.1458 -0.0304
20892W        W36786   1.772   2.026  13.095 -0.0777 -0.1736 -0.2435
20893W        W36787  15.300   0.331   1.278  0.1226  0.3436  0.0324
20894W        W36788  13.191   5.649   3.520 -0.1661 -0.0049 -0.1416
20895W        W36789  13.242   7.886  14.539 -0.1664  0.2366 -0.1442
20896W        W36790   1.876  13.257  13.148  0.1222  0.1512 -0.3924
20897W        W36791  14.324  17.680   2.906 -0.2068  0.1679 -0.0197
20898W        W36792   5.552  12.165   0.353  0.1470 -0.4927 -0.3102
20899W        W36793   5.226  15.607  13.042 -0.1679  0.2218 -0.3768
20900W        W36794   6.145   8.761  11.839  0.2505  0.2905  0.3808
20901W        W36795  13.014   9.011  11.003 -0.1277 -0.4403  0.2063
20902W        W36796   2.114   1.087   3.740 -0.0550  0.1080  0.3620
20903W        W36797  16.970   8.529  13.255 -0.2828  0.2726 -0.2965
20904W        W36798   4.463  13.996   1.259  0.0877 -0.1703 -0.1233
20905W        W36799  10.426   9.980  12.495 -0.0369  0.0790  0.1720
20906W        W36800  14.108   0.756  12.587  0.1231 -0.1188 -0.0646
20907W        W36801   8.619  10.232   3.582 -0.1280  0.0771  0.0994
20908W        W36802   4.635  10.636  12.380 -0.0757  0.0427 -0.3849
20909W        W36803   2.596  10.676  13.825  0.0939 -0.0912 -0.3775
20910W        W36804  12.460  10.749  14.036  0.2703 -0.0077 -0.5951
20911W        W36805   7.117  18.637  11.060  0.1264  0.2299  0.1437
20912W        W36806   5.080   8.924   4.865  0.1898 -0.3666  0.0587
20913W        W36807  15.435   3.191   3.009 -0.2777  0.4285 -0.0913
20914W        W36808  11.164  16.201   2.805  0.0206 -0.3239  0.2911
20915W        W36809  15.482  19.050   2.619  0.1257 -0.2824 -0.1704
20916W        W36810  18.972  14.551  11.505 -0.4207  0.0279 -0.3777
20917W        W36811   5.919  13.994   1.654 -0.2882 -0.0957  0.2005
20918W        W36812   6.698   8.962  13.277 -0.0814 -0.0328 -0.1923
20919W        W36813  10.693  17.698   4.582 -0.2227  0.0704 -0.2425
20920W        W36814  11.852  17.325  10.456 -0.0577 -0.1304  0.1392
20921W        W36815   9.849   9.829  14.544  0.0744 -0.1372  0.1125
20922W        W36816   5.329   8.099  13.905  0.0950  0.1377 -0.1130
20923W        W36817   6.343   2.348   1.189 -0.0043 -0.1615  0.1073
20924W        W36818  14.836   7.719  14.058 -0.0640 -0.3043  0.4149
20925W        W36819   2.560  14.636  11.191 -0.1734 -0.1563 -0.0480
20926W        W36820   7.430   0.208  11.332 -0.2133 -0.1010  0.2247
20927W        W36821   3.046  16.834  13.890 -0.2874  0.1636 -0.1349
20928W        W36822   9.753   8.601  11.898  0.1802 -0.0252 -0.1388
20929W        W36823   9.975  11.536   2.666 -0.1258  0.0674 -0.2242
20930W        W36824  12.454  18.470  12.697 -0.1526 -0.2789  0.0213
20931W        W36825  17.883  10.327   2.937  0.0034  0.0626 -0.1508
20932W        W36826  15.600   7.581   2.694 -0.0492 -0.4557  0.0172
20933W        W36827   5.960  15.645  10.455  0.0961 -0.2589 -0.2732
20934W        W36828   9.995   4.612  11.738  0.0360  0.1957  0.3436
20935W        W36829   0.327   0.979   1.873 -0.0453 -0.0121 -0.2245
20936W        W36830   3.471  17.070  12.162 -0.4809 -0.0300  0.0507
20937W        W36831   7.252   0.664   2.068  0.0099  0.5706 -0.0128
20938W        W36832  11.726  10.597   2.195  0.1722  0.3114  0.0422
20939W        W36833   5.916   9.283   4.586 -0.1460  0.0196 -0.2472
20940W        W36834  12.775  11.642   0.028  0.1063  0.1411 -0.0885
20941W        W36835   9.960  15.699  11.884  0.1472  0.0185  0.1034
20942W        W36836  14.273   3.372  11.444 -0.3702 -0.2322 -0.0475
20943W        W36837  13.534   7.031   3.040 -0.2952  0.0606 -0.1232
20944W        W36838  10.195  18.991   1.215 -0.2824  0.3222  0.0522
20945W        W36839   4.437  12.443   3.926  0.3571  0.0205 -0.0125
20946W        W36840  11.766   5.038  14.538  0.0794  0.2280 -0.2579
20947W        W36841  11.757   9.387   3.898 -0.4447  0.1323  0.2466
20948W        W36842   6.142   4.408   4.719 -0.0520 -0.0443  0.0553
20949W        W36843   7.776   8.330  12.320  0.1187 -0.1471  0.0145
20950W        W36844   6.112   7.172  13.931 -0.2539  0.1111  0.0682
20951W        W36845   7.455   5.587   2.857  0.2485  0.0946  0.0835
20952W        W36846   9.964  10.776  10.117  0.1583 -0.0227  0.1446
20953W        W36847  16.812   9.121   2.202 -0.2132 -0.0699 -0.1531
20954W        W36848   7.635   5.326   4.332  0.1216 -0.2598 -0.1097
20955W        W36849  11.256  13.692   0.285  0.0310 -0.1724  0.0824
20956W        W36850   8.288   7.052  13.673 -0.2385  0.1531 -0.1203
20957W        W36851  11.123   3.416  11.543  0.0375  0.0172  0.1091
20958W        W36852   4.562  18.676  14.914 -0.1069  0.1654 -0.3102
20959W        W36853   0.486  12.924   1.653  0.0970 -0.0522  0.1958
20960W        W36854   9.038  15.660  10.952 -0.2087  0.0745 -0.0662
20961W        W36855  15.716   6.075  14.101 -0.1463  0.0610 -0.1375
20962W        W36856  10.940  13.141   3.267 -0.0896  0.0180 -0.1577
20963W        W36857  15.621   1.202  11.114 -0.0610  0.0266 -0.1077
20964W        W36858   5.595  13.926   2.054 -0.0968  0.1968 -0.1623
20965W        W36859  15.202   3.828   3.731  0.1994  0.0340  0.1161
20966W        W36860   9.468  10.513   4.408 -0.0918 -0.2831 -0.0275
20967W        W36861  16.568  17.907  11.648  0.4748 -0.0997  0.1691
20968W        W36862   9.459   7.292   4.255 -0.1779  0.0498 -0.3656
20969W        W36863  16.624   6.278   2.029  0.0426 -0.0978 -0.0787
20970W        W36864   5.260  11.846  12.026  0.3589  0.0542  0.0023
20971W        W36865  12.671  11.748   4.177  0.2003 -0.1197 -0.2730
20972W        W36866  15.636   9.715   3.139  0.0322  0.0667 -0.2358
20973W        W36867  16.138   4.083   3.549  0.1080 -0.0845  0.2661
20974W        W36868   2.430   9.947  10.553 -0.0467 -0.3854  0.0054
20975W        W36869   3.722  18.086   5.008 -0.0988  0.0811 -0.2853
20976W        W36870   2.135  15.577  12.936  0.0445 -0.0372  0.3205
20977W        W36871   1.528  13.328   2.407 -0.0304 -0.1001 -0.1529
20978W        W36872   0.815  13.256  11.671 -0.2551 -0.0468  0.3606
20979W        W36873   9.054   6.894   1.344 -0.1476 -0.1148  0.1009
20980W        W36874   9.620   1.856   3.521 -0.1142  0.1146  0.0394
20981W        W36875  17.340   0.262  12.480  0.2434 -0.0154 -0.1386
20982W        W36876  14.098   6.937   0.035  0.1388 -0.1443  0.2128
20983W        W36877  12.129  18.090  14.235  0.0643  0.1903 -0.1384
20984W        W36878   0.788  14.187  12.255  0.0558  0.1755 -0.2188
20985W        W36879   2.354   3.395  11.940 -0.1347 -0.0760 -0.0095
20986W        W36880   0.266  14.047   2.709 -0.2519  0.3920 -0.0915
20987W        W36881  13.673  16.197   3.728  0.0966  0.3460  0.1353
20988W        W36882   7.919  15.885   9.561 -0.0560 -0.1344 -0.2027
20989W        W36883  16.135  18.682   3.052 -0.1178 -0.3036  0.3745
20990W        W36884  10.188  16.242   3.577 -0.1266 -0.1330 -0.4568
20991W        W36885  16.917  13.840  14.812  0.1554  0.0931 -0.0394
20992W        W36886  18.232   5.077  14.141 -0.0200 -0.2271 -0.1773
20993W        W36887   7.592   9.471  13.014 -0.1939  0.1338  0.0181
20994W        W36888   1.228   9.560   1.763 -0.1599  0.0255  0.2179
20995W        W36889   6.615   8.541  13.060  0.2822  0.0544  0.0499
20996W        W36890  12.543   4.538   3.762 -0.3775  0.2329 -0.1333
20997W        W36891   6.561  10.082  12.179 -0.0675 -0.4965  0.4264
20998W        W36892  11.675  14.755  11.086 -0.0973 -0.0395  0.0313
20999W        W36893  19.109  15.343  11.876 -0.1672 -0.1398 -0.1349
21000W        W36894   7.582  15.200   0.896  0.0463  0.0675  0.0979
21001W        W36895   0.690   4.374  13.489  0.2037  0.3551 -0.1366
21002W        W36896  15.186   7.463   4.204 -0.1548 -0.1453  0.1097
21003W        W36897   8.312   7.423   3.202  0.2276 -0.1053  0.3959
21004W        W36898   8.255   8.507  12.388 -0.0028  0.2392  0.0723
21005W        W36899   7.214   9.327  12.774  0.0863 -0.1735 -0.0870
21006W        W36900   9.872  17.772   4.882 -0.2677 -0.1561  0.0295
21007W        W36901   8.163   1.616   1.996  0.2929 -0.2104 -0.1958
21008W        W36902   3.395   3.154   2.746  0.0663  0.0692 -0.2332
21009W        W36903  16.217   0.607  12.223 -0.1087  0.0120 -0.0448
21010W        W36904   4.499   9.113   1.421  0.0934 -0.2441 -0.0301
21011W        W36905  15.707  14.285   0.008 -0.0591 -0.2470  0.1033
21012W        W36906  16.718   6.119  11.627  0.4621  0.1035 -0.0518
21013W        W36907   4.387   9.639  11.028  0.0981  0.0703  0.0560
21014W        W36908   8.990   9.626   1.011 -0.0258  0.2979 -0.2229
21015W        W36909  12.912  12.301   5.399  0.2020 -0.0175  0.1971
21016W        W36910  10.583   0.693  11.845 -0.0884 -0.1641 -0.1734
21017W        W36911  14.344  12.238  12.578  0.2244 -0.3170 -0.2012
21018W        W36912  10.009   4.686  14.898 -0.1947 -0.0475 -0.0576
21019W        W36913  13.933   7.853   3.172 -0.1619  0.3408  0.0500
21020W        W36914   0.565   2.543  12.577 -0.0857 -0.1633  0.1756
21021W        W36915  12.043  12.112  14.646 -0.1184 -0.0052  0.0417
21022W        W36916   4.738  18.151   3.111  0.2220  0.0246  0.0240
21023W        W36917   2.128  12.576  14.189  0.0551  0.0487 -0.2896
21024W        W36918  15.673  16.715  10.225 -0.1492  0.0112  0.0756
21025W        W36919   2.646   5.345  10.240 -0.2280  0.2239 -0.0085
21026W        W36920  18.006   6.259  13.790  0.2069  0.0422  0.0221
21027W        W36921  18.689   5.928   3.755 -0.1630  0.0520 -0.1889
21028W        W36922  17.382   4.727  12.004 -0.3646  0.2561  0.0727
21029W        W36923   6.949   1.779   3.683  0.3130  0.1746  0.4598
21030W        W36924  14.251  10.566   2.656  0.1122 -0.0280 -0.3595
21031W        W36925   2.319  16.804  12.690 -0.1727  0.0586 -0.1194
21032W        W36926   6.075   6.751   2.337  0.0703 -0.1800 -0.0222
21033W        W36927  18.303   4.418   2.582  0.0258 -0.0551 -0.0071
21034W        W36928   7.365   3.857  11.392 -0.0075  0.1868 -0.2051
21035W        W36929   0.112   5.477   1.055 -0.0423 -0.1409  0.0846
21036W        W36930   4.253  19.017  10.726  0.1044 -0.0716  0.1308
21037W        W36931   9.859   3.472   0.403 -0.4572  0.0572 -0.0898
21038W        W36932   7.790  12.107   0.638  0.2337 -0.2676  0.0132
21039W        W36933   4.754   3.500   4.042  0.2059  0.4746  0.1007
21040W        W36934  13.239   1.268   4.904  0.5536  0.1785  0.3434
21041W        W36935   0.857  14.355  12.808  0.2923 -0.4140  0.1123
21042W        W36936   4.816   9.486   4.921 -0.2422  0.1733 -0.1690
21043W        W36937  16.868  14.560   0.654  0.0003  0.1218 -0.0701
21044W        W36938   2.965   3.669  14.982 -0.0446  0.0899  0.5670
21045W        W36939  14.803   0.918  14.781 -0.1775  0.0669 -0.0286
21046W        W36940  19.016  10.631   4.416  0.2503  0.4588  0.2947
21047W        W36941  16.215  16.237   3.993 -0.1965 -0.1587 -0.2493
21048W        W36942  11.097  17.119  14.577 -0.1205 -0.2652  0.3371
21049W        W36943  14.692  16.125   5.617  0.2533 -0.2774  0.0542
21050W        W36944   2.701  13.240  11.122 -0.2266  0.1106 -0.0435
21051W        W36945  17.995   5.597   1.463  0.1206  0.3142 -0.2137
21052W        W36946   1.027   9.986  10.658 -0.3945  0.0606 -0.0249
21053W        W36947  12.357  11.922  15.120  0.2134 -0.1791  0.0163
21054W        W36948  18.765  18.107   4.615  0.4264  0.0030 -0.0762
21055W        W36949   9.078   7.285   5.187 -0.2709  0.0696  0.2904
21056W        W36950  13.573   8.996  11.167  0.2023  0.0323  0.1124
21057W        W36951   4.178   5.146   1.748  0.3431 -0.3649  0.1233
21058W        W36952   9.020  17.014   4.029 -0.2540  0.1562  0.1586
21059W        W36953   9.592  14.815  14.777 -0.0222 -0.1252  0.0385
21060W        W36954   9.500   0.533   0.521  0.0017 -0.1447  0.1671
21061W        W36955   0.610   5.504   3.364 -0.1472  0.1447  0.1025
21062W        W36956   0.074  11.684  13.002 -0.2421 -0.0297 -0.1761
21063W        W36957  10.085  13.413  15.047 -0.0760 -0.0836  0.0510
21064W        W36958   8.848   6.342  13.779 -0.1375  0.1145 -0.2361
21065W        W36959  17.996   3.210  14.899  0.2671  0.0905  0.1468
21066W        W36960  13.985   6.243   4.723 -0.3283  0.0656  0.0734
21067W        W36961  18.250   9.188   5.482  0.1792  0.1179  0.0366
21068W        W36962   0.783  13.917  11.070  0.0984  0.1958 -0.0434
21069W        W36963   2.531  15.035   1.531 -0.3152 -0.0715 -0.0228
21070W        W36964  10.222   5.523   3.554  0.3565  0.1825 -0.0363
21071W        W36965   1.673   7.960  13.247  0.1093  0.1365  0.0610
21072W        W36966  18.843  11.451   0.803 -0.0209  0.1863 -0.1655
21073W        W36967   5.155   3.851  12.481  0.1102 -0.1658  0.1426
21074W        W36968  17.598   2.330   0.285 -0.1417 -0.1188 -0.4642
21075W        W36969   1.628   1.669  14.237 -0.3779  0.2281 -0.1664
21076W        W36970   6.873   3.272  15.178 -0.3415  0.0348  0.1467
21077W        W36971   8.991  13.963  11.080 -0.3992  0.1489  0.0349
21078W        W36972  12.958  13.421   2.844  0.3656  0.1322  0.1949
21079W        W36973   7.687  11.911  12.365 -0.0722 -0.0276 -0.5755
21080W        W36974   2.677   9.257   2.963  0.0904  0.2005 -0.1743
21081W        W36975  12.089  10.137   0.355  0.0368  0.2832  0.0871
21082W        W36976  10.295   3.095   0.304 -0.1311 -0.0011 -0.1785
21083W        W36977   7.902  12.548  13.700  0.0541  0.2396 -0.0338
21084W        W36978   6.003  19.015   0.609  0.1721 -0.3998 -0.0380
21085W        W36979   4.566  14.355  13.688 -0.0555 -0.3825  0.0212
21086W        W36980  12.291  16.721  14.835 -0.3303  0.0408  0.3001
21087W        W36981   2.432  16.836   4.733 -0.0206 -0.0754  0.1808
21088W        W36982  16.427   7.535  12.545  0.2501 -0.2449 -0.1424
21089W        W36983   9.740  11.184   2.003  0.1437 -0.1066 -0.0912
21090W        W36984   1.362   2.738   1.067  0.1766 -0.1487  0.1542
21091W        W36985  17.924   3.732   3.434 -0.0297  0.2068 -0.0970
21092W        W36986   1.971   1.501  11.875  0.0122 -0.0274 -0.0130
21093W        W36987   7.222  12.998   1.818  0.2170 -0.1521 -0.1349
21094W        W36988  12.521  11.704   9.562  0.1818 -0.2067 -0.0002
21095W        W36989   4.346  17.299  13.249 -0.2144 -0.0775  0.0218
21096W        W36990   2.136  10.043   0.242  0.2492  0.0744  0.0445
21097W        W36991  17.335  14.883   0.333 -0.1991 -0.1461  0.0838
21098W        W36992  14.662   7.055   4.211  0.1207  0.1495  0.2016
21099W        W36993   0.417  14.971   2.261 -0.1280  0.0615  0.2351
21100W        W36994   0.481   7.249   3.854 -0.0371  0.3302  0.0788
21101W        W36995   5.778   1.396   0.398 -0.1521 -0.3035  0.0281
21102W        W36996   2.500  11.034  14.314 -0.1792  0.1984 -0.1453
21103W        W36997  12.620  15.068  10.696  0.2371  0.1449 -0.1486
21104W        W36998   8.707  10.070   0.899 -0.2612 -0.2057 -0.1249
21105W        W36999  16.180   0.802   5.081 -0.0664 -0.0217 -0.1268
21106W        W37000  16.219   3.191  14.032  0.1663 -0.3872  0.2452
21107W        W37001   4.197  13.693   9.951 -0.0371 -0.2072 -0.0222
21108W        W37002   6.582   1.567  10.645 -0.0485  0.0757  0.1522
21109W        W37003   8.910   4.948   9.973 -0.0131  0.3376  0.1614
21110W        W37004   5.317   8.733  11.524 -0.1922  0.0800  0.1595
21111W        W37005   0.647   9.556   0.878 -0.2728 -0.0760  0.0977
21112W        W37006   4.368  11.228  11.732 -0.0937 -0.3376 -0.0389
21113W        W37007   4.781  10.927   1.632  0.1987 -0.2651  0.1902
21114W        W37008   7.498   1.516  13.679  0.0208 -0.1197  0.0593
21115W        W37009  11.217   7.997   0.097 -0.1086  0.4107  0.0185
21116W        W37010   8.058  14.828   3.445  0.1226  0.0696 -0.1341
21117W        W37011  17.280   7.111   3.485 -0.0587 -0.0779 -0.0791
21118W        W37012  11.068   2.289  12.037 -0.1115  0.0364 -0.1496
21119W        W37013  10.833   3.371  13.504  0.1339  0.0768  0.0146
21120W        W37014  14.536  18.497  14.528 -0.1141 -0.1608  0.0244
21121W        W37015   1.024   8.414  11.935 -0.1653 -0.2542  0.2223
21122W        W37016  13.691   5.188  13.952  0.0113 -0.1185  0.3076
21123W        W37017  10.877  19.015  11.622 -0.4557 -0.0292 -0.4782
21124W        W37018  11.266   1.881  11.254  0.1385 -0.2448  0.2963
21125W        W37019  11.817  12.511  14.942  0.0625 -0.0879  0.3179
21126W        W37020  15.709  14.640   1.071  0.4056  0.2100 -0.2076
21127W        W37021   7.059   5.057  12.864  0.1881 -0.2842 -0.1224
21128W        W37022   5.064   4.373   2.500  0.1155  0.1989 -0.0190
21129W        W37023   3.901   5.817   3.335 -0.0465  0.2053  0.3348
21130W        W37024   6.744   2.268   2.327 -0.3930 -0.1063 -0.1152
21131W        W37025   3.725   7.166   2.293 -0.2085 -0.1676 -0.1483
21132W        W37026   6.803  18.205  13.363 -0.2321  0.3712 -0.3148
21133W        W37027  15.461  18.084  12.101 -0.0365  0.0430 -0.0586
21134W        W37028   9.820  15.683  14.191  0.0286  0.0104  0.0795
21135W        W37029  12.796  11.474  11.184 -0.1375  0.0248 -0.0621
21136W        W37030   3.600   6.773  11.697  0.0318  0.2358  0.1304
21137W        W37031  13.939  12.661  11.564 -0.1155 -0.1331 -0.0022
21138W        W37032  18.751  16.049  11.461  0.1659  0.0604 -0.1280
21139W        W37033  18.337  12.385  11.117  0.0306  0.0016 -0.0575
21140W        W37034  17.097  11.828   3.875 -0.0929  0.0606 -0.2254
21141W        W37035   2.711  14.408   5.946  0.0400  0.0904 -0.4365
21142W        W37036  15.848  17.242   2.127 -0.2120 -0.0378  0.2253
21143W        W37037  18.547  12.035  14.107  0.0223 -0.1641 -0.3008
21144W        W37038  17.431   8.805   2.902  0.0787  0.3089 -0.1683
21145W        W37039   0.769   6.363  14.393  0.1373 -0.0999 -0.0498
21146W        W37040  18.316  12.319  13.004  0.1172 -0.5003 -0.0783
21147W        W37041   2.597  12.131  15.072 -0.0793  0.0384  0.1979
21148W        W37042   5.570   4.993   1.334 -0.0814 -0.2994 -0.0188
21149W        W37043   0.769   0.752   1.819  0.1291 -0.0103  0.0017
21150W        W37044   6.610  11.850   0.307  0.0037 -0.1050  0.1460
21151W        W37045   9.323   9.965  13.876 -0.0056  0.1306  0.1320
21152W        W37046  10.264  14.075  10.452 -0.0306 -0.2274  0.2402
21153W        W37047   5.622  12.007  10.909  0.3121  0.2795  0.1407
21154W        W37048  12.427  14.580  10.904 -0.1572 -0.2633  0.2341
21155W        W37049  10.276   7.316   0.306 -0.0279 -0.1688 -0.0404
21156W        W37050   9.847   5.668   2.761 -0.0858  0.1159 -0.1810
21157W        W37051   5.089   3.156  11.076  0.1847  0.0722  0.2706
21158W        W37052  18.365  10.392   0.117  0.1316 -0.0059  0.1746
21159W        W37053   3.126   0.883  14.457 -0.1660 -0.2640 -0.1859
21160W        W37054   9.506   3.757  11.596 -0.2546 -0.0615  0.0295
21161W        W37055  10.347  12.456  11.627 -0.0920  0.1486  0.0869
21162W        W37056   0.024   8.948   9.363 -0.1111  0.0772 -0.3735
21163W        W37057  18.656  15.686  14.820  0.0726  0.0593 -0.2095
21164W        W37058   6.070   5.154  14.932 -0.0014  0.4939 -0.0910
21165W        W37059   6.714   7.140   3.329 -0.2471  0.0866  0.2538
21166W        W37060   9.875  16.926   0.828 -0.1600  0.2655 -0.1992
21167W        W37061  12.194   9.542  10.696  0.0654  0.1644  0.0945
21168W        W37062   9.574  12.353   2.245 -0.1069  0.1633  0.0374
21169W        W37063  15.768  15.436   4.116  0.0920 -0.0119 -0.1074
21170W        W37064   3.421   9.213   2.695 -0.1064  0.0272 -0.2746
21171W        W37065   6.263  17.528   3.828 -0.0118  0.0117 -0.3478
21172W        W37066   3.453  11.569   3.708  0.3391  0.0754  0.1433
21173W        W37067   7.351   6.958   0.456  0.3068  0.4717  0.2402
21174W        W37068   0.757   5.494  14.232  0.1789 -0.0605  0.1231
21175W        W37069   0.713  17.602   1.604 -0.1945  0.2276  0.2805
21176W        W37070   8.757  14.466   2.875 -0.5011 -0.0132  0.1121
21177W        W37071  17.261   8.203   2.021  0.3308  0.0458 -0.0186
21178W        W37072  10.564  17.404  12.419 -0.3070  0.0030 -0.4774
21179W        W37073   6.854   1.341   4.010 -0.2056 -0.1226 -0.3988
21180W        W37074   3.018  16.849   0.533 -0.1690  0.2194 -0.1831
21181W        W37075  18.250   5.126   4.617  0.2324 -0.1810  0.1481
21182W        W37076   6.880   8.054  10.769 -0.0584 -0.2673 -0.1109
21183W        W37077  19.080  16.843  13.728  0.3272 -0.3074 -0.2570
21184W        W37078  18.780  10.751  14.359  0.2353 -0.1002 -0.1993
21185W        W37079  12.711  15.909  14.899 -0.1685 -0.0352  0.2639
21186W        W37080  16.805   0.900   0.862 -0.1881 -0.0068 -0.1903
21187W        W37081  19.068  10.689  10.583  0.0463 -0.0226 -0.0025
21188W        W37082   5.736   7.497   2.095 -0.0626 -0.0828 -0.3639
21189W        W37083   8.511   7.000  14.872 -0.0175 -0.3387 -0.0017
21190W        W37084   3.797   5.244  15.145  0.0093  0.0650  0.0672
21191W        W37085  18.777   5.491   2.180  0.3111 -0.2273 -0.0543
21192W        W37086   3.101   6.674  10.495 -0.2035 -0.1430 -0.1111
21193W        W37087   7.271  15.544  12.172  0.3286 -0.0746  0.3877
21194W        W37088   1.420   2.064   3.916 -0.1603 -0.0711  0.2357
21195W        W37089  15.603  12.180   3.998  0.3246  0.2364  0.1895
21196W        W37090   9.370  19.075  15.059  0.1614  0.2242 -0.0516
21197W        W37091   8.734  17.521  10.708 -0.2508 -0.0665 -0.1232
21198W        W37092  10.127   8.062   1.847 -0.1702  0.0293  0.0246
21199W        W37093   3.936   2.341   0.982 -0.0841  0.3202  0.1869
21200W        W37094   3.260  15.284  12.951 -0.1564 -0.2769 -0.0074
21201W        W37095   7.193  14.507  10.817 -0.1925 -0.1866 -0.2328
21202W        W37096   8.822  11.687  14.207 -0.1202  0.1119 -0.0340
21203W        W37097  16.729   1.990  12.177  0.1575 -0.2536  0.2565
21204W        W37098   9.573  15.195  12.598 -0.0230 -0.0697 -0.0920
21205W        W37099   7.309   8.458  11.518  0.0195  0.4000 -0.1058
21206W        W37100   8.740   5.506  14.992  0.1343  0.2319  0.3667
21207W        W37101  17.767   0.038   4.394 -0.1664  0.0764  0.0109
21208W        W37102  10.412   5.713   3.975 -0.1953 -0.1290  0.0447
21209W        W37103   2.529   1.123   4.164  0.1629 -0.3528 -0.0869
21210W        W37104  12.804   2.748  13.546 -0.1915  0.0489 -0.0049
21211W        W37105   1.591   1.747   5.105  0.0606 -0.2088 -0.0823
21212W        W37106   1.443  17.189  10.104  0.3776 -0.4768  0.1213
21213W        W37107   0.763  12.878   0.446  0.2797 -0.0454 -0.2545
21214W        W37108   5.132   1.605  13.245 -0.2616  0.2052 -0.1815
21215W        W37109  11.236  15.101  13.070 -0.1056 -0.1260  0.1934
21216W        W37110  12.255  16.383  10.424  0.1764  0.0754  0.1936
21217W        W37111  18.531   3.550   2.021 -0.1471 -0.2352 -0.2009
21218W        W37112  15.109   3.601   5.606 -0.5735  0.1695  0.1606
21219W        W37113   1.858   5.015  11.843  0.0234  0.2078 -0.2397
21220W        W37114  14.210  16.824   2.795 -0.1964 -0.1442  0.1183
21221W        W37115   1.508  17.015   1.212  0.0247 -0.1314 -0.0947
21222W        W37116  10.614  13.844  11.831  0.1567 -0.3939 -0.3780
21223W        W37117  14.800   6.457   3.408  0.0316  0.2069 -0.1375
21224W        W37118   4.705  10.810  11.649 -0.2533 -0.0661  0.3527
21225W        W37119  11.187   9.238  14.286 -0.1608  0.2866 -0.1032
21226W        W37120  13.841   0.983   0.713 -0.0034 -0.2356 -0.2439
21227W        W37121   5.060  13.079   4.920 -0.0230  0.2686  0.5639
21228W        W37122  12.091   0.511   1.624  0.2374 -0.0177 -0.1180
21229W        W37123  17.091   3.660  12.423 -0.0696  0.0594 -0.2122
21230W        W37124  19.057  14.232  12.898 -0.1308 -0.0610  0.2334
21231W        W37125  15.495   7.881  10.922  0.0653 -0.0309 -0.0323
21232W        W37126   3.231  14.129  11.568  0.2031  0.1560 -0.0838
21233W        W37127   7.979   6.912   9.368 -0.3440 -0.2135 -0.1184
21234W        W37128  12.147  19.071  14.554  0.1263  0.1614 -0.2126
21235W        W37129  14.083  17.240   3.066  0.0868 -0.0869  0.1378
21236W        W37130   7.129   2.553   4.661 -0.1639  0.1050 -0.1302
21237W        W37131  10.200  11.253   2.228 -0.1937 -0.0091 -0.1934
21238W        W37132  10.821   4.357   1.598 -0.0818  0.0149 -0.3231
21239W        W37133   5.374  18.665  11.257 -0.2312 -0.0504  0.2171
21240W        W37134   5.809   5.460  13.366  0.2154  0.2779  0.0727
21241W        W37135  16.762   7.610   3.233 -0.1554  0.0579 -0.0447
21242W        W37136  10.182   6.338  10.698  0.0370  0.3577  0.0808
21243W        W37137   5.148   0.905  11.067 -0.0912 -0.1969  0.0148
21244W        W37138  13.173   3.440   3.170  0.2422 -0.0073  0.0211
21245W        W37139  13.702   0.685  14.590  0.2120 -0.1731  0.3740
21246W        W37140  14.795   4.164   4.180 -0.0629 -0.1457  0.2895
21247W        W37141  10.832   7.586   3.884  0.1832  0.0617 -0.1783
21248W        W37142   3.902  14.074   0.423  0.0012  0.4241 -0.0020
21249W        W37143   7.548   0.213  13.138 -0.3352  0.0811  0.1927
21250W        W37144   7.088   9.046   0.620  0.0248  0.0539 -0.1329
21251W        W37145   6.972  16.768   2.410 -0.1102  0.1106 -0.2650
21252W        W37146  12.494  16.032  11.794 -0.0358  0.0443 -0.0880
21253W        W37147  13.043  15.345   2.999  0.2717  0.1636 -0.0665
21254W        W37148  14.279   2.202   0.363  0.0418 -0.2047 -0.2668
21255W        W37149   5.391  11.638  14.335 -0.3238  0.0656 -0.2939
21256W        W37150  15.971  11.715  13.961 -0.1303 -0.1804  0.1262
21257W        W37151   0.189  18.285  14.434 -0.1376 -0.0807 -0.1015
21258W        W37152   0.272   8.595   0.699  0.0586 -0.1499  0.0995
21259W        W37153  13.913  16.340  15.123 -0.4815 -0.1461  0.0704
21260W        W37154  14.670   9.050  11.064  0.2446  0.0342  0.0805
21261W        W37155   8.702  12.084  13.129  0.0158 -0.1310 -0.1979
21262W        W37156  13.746   8.774  11.722  0.4612  0.0263 -0.1352
21263W        W37157   3.044  12.770   0.271 -0.1386  0.0198  0.1052
21264W        W37158   9.492   0.498  13.620  0.1756  0.2743  0.0504
21265W        W37159   3.178  16.086  10.628  0.0646  0.0450 -0.0213
21266W        W37160   4.193  18.858   1.752 -0.1863  0.0247  0.2222
21267W        W37161  11.991  18.641  11.005  0.1637 -0.1489 -0.1481
21268W        W37162   9.568   0.725   2.456 -0.3555 -0.1010 -0.0111
21269W        W37163  17.018  14.773   4.477 -0.1126 -0.2063  0.0444
21270W        W37164   3.979   6.964   2.858  0.0382 -0.3154 -0.1180
21271W        W37165  10.047   5.875   2.266  0.2946  0.3503  0.0439
21272W        W37166  18.371   9.504   3.161 -0.1376  0.1758  0.0675
21273W        W37167  15.186  16.807  14.235  0.0646  0.3425 -0.3428
21274W        W37168  15.963   6.795  13.175  0.1250 -0.3836  0.0349
21275W        W37169   7.706  10.179   1.828  0.0702  0.3688  0.0773
21276W        W37170  14.261   2.255   3.989  0.1386  0.2635 -0.0640
21277W        W37171  11.160  11.274   1.947  0.1363  0.2025 -0.1301
21278W        W37172   0.520   9.323   4.221 -0.1078  0.0777 -0.0612
21279W        W37173  18.782   4.109  11.923 -0.2898 -0.0818 -0.3553
21280W        W37174  13.680   5.925  13.458  0.0476 -0.1804  0.0730
21281W        W37175  16.352  10.782  12.622 -0.3058 -0.0713 -0.2048
21282W        W37176   0.374  18.551  11.842 -0.1799  0.1185 -0.1492
21283W        W37177  15.801   2.012  11.658  0.4062  0.0395 -0.0956
21284W        W37178  10.670  13.629  13.976  0.4962  0.1075 -0.0602
21285W        W37179  11.152  10.521  11.963  0.1713 -0.0853 -0.0106
21286W        W37180  10.191  15.650   2.365  0.0318  0.2173  0.1433
21287W        W37181   1.923   6.205  12.508  0.2598 -0.1652  0.1265
21288W        W37182   9.996  12.078   0.414 -0.1129 -0.0269  0.2673
21289W        W37183   3.159   4.771  13.153  0.1437  0.1205  0.1409
21290W        W37184   0.105  11.668   0.802 -0.2174  0.1831 -0.0005
21291W        W37185   9.463  12.939   1.533 -0.3267 -0.1045  0.1806
21292W        W37186  15.162   3.273  11.474  0.1900 -0.3316 -0.1938
21293W        W37187   2.361   1.207  14.462  0.0148  0.0768  0.1252
21294W        W37188  10.666  14.412  10.376 -0.0729 -0.2355  0.0826
21295W        W37189   3.246  12.562  12.653  0.0758 -0.3635  0.2421
21296W        W37190   0.982  18.822  14.674 -0.0682 -0.0702  0.1053
21297W        W37191   6.814  13.254  10.434 -0.0148 -0.0941 -0.0570
21298W        W37192   9.146   5.657  10.744  0.0117  0.4723 -0.2241
21299W        W37193  13.478  14.748   0.422  0.0371  0.0305  0.1275
21300W        W37194  12.480  15.957   9.101  0.3372 -0.3092 -0.2684
21301W        W37195   0.989   1.392  13.787  0.0518 -0.1697 -0.0944
21302W        W37196  12.210   8.502   2.445  0.0486  0.1805 -0.1090
21303W        W37197  18.862  14.464  10.960  0.1015 -0.0499 -0.2021
21304W        W37198   9.113  15.151  10.984 -0.0028  0.1335  0.4356
21305W        W37199   7.306  10.064   9.038 -0.0810 -0.1035 -0.0471
21306W        W37200   1.219   8.272  12.376 -0.1911  0.0768  0.0967
21307W        W37201   8.119  13.272  12.063  0.0112  0.3604 -0.1933
21308W        W37202  17.255   3.289  12.750 -0.1806 -0.0805 -0.2499
21309W        W37203   4.930  12.755  13.083 -0.2315 -0.5145 -0.0667
21310W        W37204   7.990   7.568   2.377  0.2742 -0.2242 -0.2006
21311W        W37205  15.394  15.056   9.524  0.1409  0.0767  0.2135
21312W        W37206  11.926  16.004   1.061  0.0609 -0.2577  0.2387
21313W        W37207   6.639   5.771   4.978 -0.4391 -0.4082 -0.0481
21314W        W37208  19.044  12.331   4.238 -0.0280  0.2759 -0.0367
21315W        W37209   1.542   4.927   2.550  0.1573 -0.3507 -0.0872
21316W        W37210   1.669   7.556  10.875 -0.2251  0.1344 -0.2500
21317W        W37211  16.649  12.164   3.745  0.0247 -0.0431 -0.1266
21318W        W37212  15.542  12.639   2.642 -0.2713 -0.0622 -0.2424
21319W        W37213   5.250   6.566  11.983 -0.0910  0.2558 -0.2079
21320W        W37214   9.117   0.252  14.856  0.2704 -0.0423 -0.0496
21321W        W37215  14.868   2.405   2.212  0.2653 -0.1034  0.4949
21322W        W37216   3.976   8.407  14.930 -0.5195  0.2616 -0.0831
21323W        W37217  17.734  17.762   6.147 -0.1769 -0.0281 -0.0557
21324W        W37218  12.437   6.319   5.067 -0.1390  0.4318  0.1287
21325W        W37219   9.533   0.054  11.506  0.1540  0.1360  0.2814
21326W        W37220   6.149   8.473  13.933  0.2888  0.2709  0.1129
21327W        W37221  12.150  12.551   0.207 -0.0339 -0.0150 -0.1169
21328W        W37222  12.215   8.446   0.164  0.1579 -0.3131 -0.2278
21329W        W37223  10.455   5.074   2.390 -0.1821 -0.1278 -0.0724
21330W        W37224   1.312  12.351  12.536 -0.1722  0.0926 -0.3496
21331W        W37225   6.860   5.547  11.178  0.0436 -0.1712 -0.1052
21332W        W37226   6.101   2.767   1.886  0.0079  0.1002  0.1754
21333W        W37227  12.983   4.520  12.636 -0.2190  0.1780 -0.0393
21334W        W37228  15.450  15.694  13.387 -0.0845  0.3035 -0.1625
21335W        W37229   6.680  18.918   3.091  0.0134  0.4845 -0.0380
21336W        W37230   3.224  16.438   1.737  0.1001  0.0587 -0.1306
21337W        W37231  14.565  14.410  14.063 -0.2381  0.0064  0.2359
21338W        W37232  12.131   6.768  15.117  0.2531  0.2654  0.0808
21339W        W37233   5.287  10.657   1.755 -0.1880  0.1644  0.5503
21340W        W37234  10.928  12.043  11.795  0.0661  0.1046  0.0069
21341W        W37235  10.335  13.841   4.693 -0.2570 -0.2034  0.0063
21342W        W37236  17.600  19.006  12.471  0.1190 -0.0074  0.0643
21343W        W37237   3.978  17.959   4.506 -0.4667  0.0001 -0.2847
21344W        W37238  10.413  14.613   5.023 -0.1290 -0.0954 -0.1355
21345W        W37239   5.367   2.904   3.314  0.3489 -0.2967 -0.0517
21346W        W37240   6.712  15.998   5.144 -0.2641  0.0802 -0.2857
21347W        W37241   8.985  11.274  10.589 -0.2133 -0.2238 -0.1475
21348W        W37242   9.391   9.821   2.787 -0.2273  0.1580 -0.3097
21349W        W37243   9.126   0.261  12.199  0.0147  0.2226 -0.1314
21350W        W37244   1.633  18.485  13.738 -0.0593  0.0348 -0.0668
21351W        W37245  19.007  17.973   2.762 -0.1449 -0.1321  0.1909
21352W        W37246  19.075  16.884  12.900 -0.0020 -0.1476  0.2230
21353W        W37247   9.767  15.184   5.026  0.1104 -0.2002  0.0271
21354W        W37248  18.377   0.643   6.162  0.1037 -0.1585 -0.3334
21355W        W37249  16.104   1.814   0.898  0.2626  0.1326 -0.3506
21356W        W37250   3.331  17.068  14.674 -0.1186 -0.3354 -0.0248
21357W        W37251  16.007  18.871  11.546  0.0221 -0.1014  0.4428
21358W        W37252   8.092  10.048   2.436 -0.0611 -0.1083 -0.1817
21359W        W37253  10.205  14.252   1.719 -0.0287  0.0444  0.0638
21360W        W37254  16.867   8.936   4.696 -0.1385 -0.3808 -0.0006
21361W        W37255  10.630  11.121   1.840  0.2028  0.4341  0.0589
21362W        W37256   2.351  16.038   1.892 -0.1130  0.0391  0.0169
21363W        W37257  19.048   3.665   3.496  0.0204  0.0144 -0.0443
21364W        W37258   0.106  14.890  11.695 -0.0306  0.1273  0.3120
21365W        W37259  16.153  18.649  12.049 -0.2610  0.3184  0.2178
21366W        W37260  11.631   2.784   5.062  0.0987  0.0888  0.1017
21367W        W37261   1.595  12.860   4.653 -0.2943  0.0881 -0.4541
21368W        W37262  11.826  17.196  12.996 -0.0959  0.1193 -0.0064
21369W        W37263  13.661  16.058   4.836  0.2893 -0.1535  0.2427
21370W        W37264   1.694   4.357  10.594 -0.2281 -0.0200 -0.1501
21371W        W37265  18.516   0.533  13.765  0.1489 -0.0629 -0.0294
21372W        W37266  10.671   4.761   2.015  0.0761 -0.0745 -0.2924
21373W        W37267   7.787   8.012  13.199 -0.2913 -0.2625  0.0896
21374W        W37268   6.195   6.337  14.225 -0.0947  0.2617 -0.1749
21375W        W37269  13.889  12.594   0.278 -0.2068 -0.0360  0.0298
21376W        W37270   5.466  17.532   0.656 -0.4540  0.0764 -0.1184
21377W        W37271   5.837   5.672  12.065  0.0171 -0.0956  0.2066
21378W        W37272  16.955  13.890   4.215 -0.1511  0.1749  0.1689
21379W        W37273   0.866   2.365  13.001  0.1722  0.2243  0.0343
21380W        W37274  14.255  13.831  11.546  0.0539 -0.1785  0.2619
21381W        W37275  11.272   8.922  15.191 -0.3081  0.0676 -0.0535
21382W        W37276   4.417   9.678   5.098 -0.0601 -0.0153  0.1340
21383W        W37277  11.694   9.893  11.009  0.1918 -0.0227 -0.1815
21384W        W37278  19.080   1.690  12.215  0.3188  0.1781 -0.0436
21385W        W37279   6.620  13.676   4.513 -0.1764  0.0560 -0.3034
21386W        W37280   3.360   1.665  15.176  0.0343  0.0351 -0.1124
21387W        W37281   2.456   1.385   9.842 -0.0943 -0.1769  0.3206
21388W        W37282   4.533   0.485  11.731 -0.0096 -0.0817 -0.0787
21389W        W37283  13.565  10.676   0.461  0.3379 -0.0397  0.3843
21390W        W37284  18.569  15.155   0.515 -0.3258  0.0679  0.1483
21391W        W37285  11.704   7.937   3.182 -0.3044 -0.0212  0.0512
21392W        W37286   4.671   3.483  12.271 -0.2802 -0.0541 -0.1164
21393W        W37287   6.353  13.859  14.393 -0.0302  0.4203 -0.1576
21394W        W37288   7.757  10.807   1.011  0.1205 -0.0726 -0.1016
21395W        W37289  13.315  16.535   3.876 -0.0225  0.0634 -0.0818
21396W        W37290  12.600   3.027  11.873  0.0967 -0.1370 -0.2722
21397W        W37291   0.894  10.789   0.513 -0.3583 -0.0549  0.2593
21398W        W37292  12.432  14.419  12.850  0.0853  0.3183 -0.0468
21399W        W37293   5.507  14.900  14.858  0.2061  0.0875 -0.0540
21400W        W37294   5.969   3.033   4.883 -0.2012  0.0244 -0.0779
21401W        W37295  14.618  11.959   2.339 -0.3853 -0.3115 -0.1037
21402W        W37296  16.030   7.631  14.463  0.1420  0.0855 -0.1503
21403W        W37297   3.707   8.994  14.044  0.4484 -0.1098  0.0596
21404W        W37298   6.601   1.033  11.819 -0.0634  0.2412  0.2837
21405W        W37299   5.415  17.913  14.101 -0.2018 -0.3185  0.3829
21406W        W37300   3.659   8.564  11.580  0.1948  0.1123 -0.0920
21407W        W37301   1.639   4.909  10.553  0.2485  0.0050 -0.2477
21408W        W37302   1.344  12.712  13.240 -0.0297  0.0198 -0.0076
21409W        W37303   6.902  12.071   3.332  0.1166  0.0667 -0.0867
21410W        W37304   2.644   3.803  12.542 -0.0193  0.2943 -0.0489
21411W        W37305   8.795   7.944  10.423 -0.1220 -0.1916  0.1762
21412W        W37306   7.758  11.063  12.911  0.1701 -0.1940  0.4072
21413W        W37307   2.950  15.802  13.011  0.5049 -0.1690  0.0657
21414W        W37308   6.845   4.486   3.259  0.0684  0.2557  0.1873
21415W        W37309   3.386  12.116  12.367 -0.2388  0.0617  0.2579
21416W        W37310   3.507   6.545   1.987 -0.3011 -0.1055 -0.2064
21417W        W37311   9.294   8.290   0.051 -0.0995  0.0817  0.0908
21418W        W37312  16.467   3.901   2.739 -0.1049  0.0725  0.0581
21419W        W37313  13.482  14.416   3.140 -0.0478  0.0153  0.2036
21420W        W37314  15.964   3.942   1.529  0.6226 -0.2796 -0.3458
21421W        W37315   0.603  10.626   3.229  0.0636  0.0688  0.1831
21422W        W37316  10.958   3.601  13.035  0.1192 -0.2552  0.0340
21423W        W37317   9.306  17.622  14.292 -0.0704  0.3532 -0.0832
21424W        W37318  11.125   8.114  13.359 -0.0505  0.0376 -0.2608
21425W        W37319   7.991  17.397   4.696  0.1570 -0.0466 -0.0542
21426W        W37320  12.420  11.680   2.902  0.3380  0.0127 -0.0840
21427W        W37321   5.974   7.559  13.588  0.2224  0.0613  0.2117
21428W        W37322   2.363  12.716  10.940 -0.0794  0.0936 -0.0421
21429W        W37323  15.801   2.127   1.377  0.3162 -0.0735  0.0564
21430W        W37324  15.322  10.679  12.975 -0.3287 -0.3886 -0.1246
21431W        W37325   3.936  11.129   4.724  0.2518 -0.0269  0.2180
21432W        W37326  15.225  10.492   0.051 -0.1696  0.3390  0.1982
21433W        W37327   2.092  12.637   3.236  0.0349  0.2157  0.1226
21434W        W37328  11.992  11.585  14.250  0.1456 -0.2646 -0.0644
21435W        W37329  14.283  15.343   4.229 -0.0271 -0.1511  0.0870
21436W        W37330  16.994   7.209   1.907 -0.0932 -0.1341 -0.1088
21437W        W37331  11.848  17.478  11.134  0.2915  0.2130 -0.0530
21438W        W37332  14.776   6.976  13.501  0.1235 -0.2464 -0.2637
21439W        W37333  12.900   5.638  13.905 -0.2450 -0.3916  0.0515
21440W        W37334  13.769  11.197   1.880 -0.0415 -0.1171  0.2854
21441W        W37335  14.875   5.606   4.752 -0.1609 -0.0764 -0.5102
21442W        W37336  17.097   6.154  13.787  0.0592 -0.1959  0.1666
21443W        W37337   9.162  13.787   3.922 -0.0119 -0.2239 -0.2369
21444W        W37338   8.663   4.977  14.594 -0.0683 -0.0686 -0.0034
21445W        W37339  13.198   7.565   2.320 -0.2295 -0.2422  0.1541
21446W        W37340   3.363  15.423  10.251 -0.1795 -0.2054  0.2411
21447W        W37341  12.512  13.930  11.024  0.0593  0.0290 -0.1290
21448W        W37342  16.204  14.115   1.074  0.3896 -0.6204 -0.1545
21449W        W37343  12.936   0.781  10.056 -0.1765 -0.0822  0.3660
21450W        W37344   9.158  14.818   5.254 -0.2469 -0.2641 -0.1172
21451W        W37345  14.462   3.707   3.022  0.3725 -0.0389 -0.1517
21452W        W37346  17.619   3.006  15.174  0.0028 -0.2221  0.1146
21453W        W37347  11.101   2.345   3.263 -0.1725  0.0669  0.1739
21454W        W37348  17.043  14.610   3.695 -0.4662  0.3243  0.2555
21455W        W37349   3.205  11.126  10.586 -0.1975 -0.0452  0.1614
21456W        W37350   4.593   2.911   1.207 -0.0540  0.2958 -0.4079
21457W        W37351  10.725   1.455   0.932 -0.1460 -0.0551  0.1774
21458W        W37352   7.040  15.909   4.682  0.0563  0.1612  0.1798
21459W        W37353  14.455  15.305  14.984  0.1034  0.0611 -0.0832
21460W        W37354   0.669  18.368  12.325 -0.0021 -0.1425 -0.0095
21461W        W37355   8.958   1.068   2.749  0.2805  0.1889 -0.0394
21462W        W37356   4.409  11.221  12.207  0.0758  0.3476 -0.0352
21463W        W37357  15.837   0.441   0.230 -0.0011 -0.0903  0.2593
21464W        W37358   1.924   3.350   3.484 -0.0454  0.0277  0.0086
21465W        W37359  10.327  14.669   4.202 -0.3408  0.2755 -0.0833
21466W        W37360   3.118   2.283   0.735  0.1371  0.3569  0.0608
21467W        W37361  13.069  14.901   1.610 -0.0124 -0.2027 -0.0078
21468W        W37362   2.288   0.234   5.193  0.0256 -0.0729 -0.0061
21469W        W37363   8.239  12.736   1.327  0.1679 -0.0378 -0.1142
21470W        W37364  10.616   4.854  11.474 -0.1580  0.0434 -0.0674
21471W        W37365  13.836   4.763  12.092 -0.0261  0.0077 -0.2837
21472W        W37366  14.497  17.923  10.810  0.2383 -0.3088 -0.0196
21473W        W37367  12.236   6.082  15.055 -0.0569 -0.0914  0.1899
21474W        W37368  12.242   2.750   4.572 -0.0702  0.0156  0.3424
21475W        W37369  12.420   1.288   5.451 -0.2732 -0.0348 -0.0037
21476W        W37370   9.946  17.612  13.223 -0.0723  0.0547  0.3246
21477W        W37371  14.474   3.443   1.497  0.1823 -0.0446 -0.2250
21478W        W37372   0.802   9.834  13.161 -0.1110  0.0661  0.0097
21479W        W37373   6.873   0.650   1.663  0.1358  0.2756  0.3518
21480W        W37374   2.082  15.652  13.990 -0.1797  0.0583 -0.0245
21481W        W37375  15.776   6.209   0.259 -0.2299 -0.2252 -0.1419
21482W        W37376   2.399   4.042  10.036  0.2140 -0.2600 -0.4320
21483W        W37377   9.578  13.851  13.275  0.1320 -0.1739  0.1955
21484W        W37378  16.131  12.488   2.108 -0.1080 -0.2624  0.0981
21485W        W37379   3.658   5.632  12.285  0.2967  0.2151 -0.0073
21486W        W37380   2.660   5.224  11.966 -0.3016 -0.2882  0.3369
21487W        W37381   4.764  10.100   4.886 -0.0291 -0.0074  0.0338
21488W        W37382  13.689  17.489   2.957  0.3649 -0.2738  0.0393
21489W        W37383   8.691   9.298  12.826  0.2047 -0.3017 -0.2645
21490W        W37384   0.516  10.224   4.741  0.2272 -0.2067 -0.0923
21491W        W37385  11.500   2.009   1.031  0.2244 -0.0789  0.0210
21492W        W37386  17.428   9.374  12.613 -0.0132  0.0157 -0.2120
21493W        W37387   6.201   5.869   2.498 -0.1384  0.1443  0.3401
21494W        W37388  13.045  12.057  10.993  0.0576 -0.0213 -0.1596
21495W        W37389   0.890  12.636  12.292  0.2034 -0.1566 -0.2379
21496W        W37390  13.099   2.356  11.303 -0.0640  0.0927 -0.0876
21497W        W37391  11.886  13.609   1.397  0.1207  0.0043 -0.0994
21498W        W37392   7.809   8.610  12.749 -0.2613  0.2619 -0.1427
21499W        W37393   4.730  13.117   1.055  0.0697 -0.1251  0.4366
21500W        W37394  10.703   2.779   1.357  0.0814  0.0540  0.1394
21501W        W37395   5.539  18.411  14.698 -0.2926 -0.3324  0.2178
21502W        W37396   5.595  11.568   2.654 -0.3199  0.0610  0.0258
21503W        W37397   3.412  18.249  14.490 -0.1243 -0.1630 -0.0503
21504W        W37398  13.481  11.806  12.431  0.3174 -0.0987  0.2421
21505W        W37399  11.214   2.673  12.362  0.4891  0.2501 -0.4227
21506W        W37400  13.826   8.996   5.532 -0.1265  0.1202 -0.1204
21507W        W37401  12.812  12.773   3.408 -0.0913  0.0632 -0.3084
21508W        W37402  14.957  16.194   1.143  0.1885 -0.2227  0.1636
21509W        W37403   8.973   7.026   3.090 -0.3200  0.1232  0.1610
21510W        W37404   2.130  14.640   9.558  0.3456 -0.1776 -0.5281
21511W        W37405   2.119   8.703  12.044 -0.0744 -0.1155  0.2466
21512W        W37406   9.301   7.924   2.158  0.1244 -0.1083 -0.3100
21513W        W37407   7.739  17.514  12.547 -0.2236  0.0813 -0.1996
21514W        W37408  12.373  17.782   5.594  0.1450 -0.1260 -0.0127
21515W        W37409  17.640   2.326   3.227 -0.1856 -0.2934  0.0134
21516W        W37410   9.716   5.794   1.810  0.1376 -0.2472 -0.0191
21517W        W37411   7.487  11.297   9.164  0.0692 -0.2218  0.3469
21518W        W37412  18.649   5.285  12.913 -0.0100 -0.1431  0.2134
21519W        W37413   1.051  15.120  11.383  0.1965  0.1469  0.4613
21520W        W37414   7.920  16.413  13.938 -0.5087 -0.1656 -0.0929
21521W        W37415   2.322   7.798  12.567 -0.0009 -0.0657 -0.0697
21522W        W37416   5.349   9.607   3.050 -0.2201  0.1490 -0.0354
21523W        W37417   3.098   7.183   0.099  0.2131  0.1252 -0.2989
21524W        W37418   7.014   6.474  14.909 -0.1324 -0.0066  0.0166
21525W        W37419  16.066  14.034  12.675 -0.2570  0.0318 -0.0358
21526W        W37420   2.534   6.735   3.935 -0.0436  0.0182  0.1894
21527W        W37421  17.158  18.594   5.500 -0.2402  0.0304 -0.1451
21528W        W37422  12.802   7.260  11.572  0.1767  0.1581  0.0116
21529W        W37423  11.632   1.156  14.457 -0.3340 -0.0466 -0.0609
21530W        W37424  12.364   0.025   2.348  0.2197 -0.0338 -0.1577
21531W        W37425  11.791   9.493  12.181 -0.0875 -0.2089  0.2179
21532W        W37426  18.901   2.782   2.098 -0.3403 -0.1138 -0.2977
21533W        W37427  17.848   2.180  14.742 -0.2530 -0.2970 -0.0373
21534W        W37428  14.069   5.106   4.338 -0.1350  0.0224  0.1873
21535W        W37429  18.983   5.622   1.642 -0.3658 -0.2455 -0.1357
21536W        W37430  12.428  12.250  12.229 -0.0848  0.2572 -0.0032
21537W        W37431  17.488  11.051  10.141  0.2836  0.0983  0.0616
21538W        W37432  13.598   1.231   2.563 -0.2265 -0.0685  0.0445
21539W        W37433   0.164   6.267   1.789 -0.2456  0.1640  0.0285
21540W        W37434  15.676   2.630   0.472 -0.1751  0.1297  0.0552
21541W        W37435  15.969   6.601   3.205 -0.1347 -0.0206 -0.1787
21542W        W37436  17.559   3.918  11.468 -0.2383 -0.1260 -0.1610
21543W        W37437  17.055   1.329  12.981 -0.0546  0.1230  0.0091
21544W        W37438   9.985   2.819  13.848 -0.2250  0.0249  0.2533
21545W        W37439   7.326   9.720   5.257  0.0085  0.1745  0.0489
21546W        W37440  13.970   3.097   0.505 -0.4669  0.1082  0.0107
21547W        W37441   4.096  11.904   1.516 -0.0085 -0.0543  0.3037
21548W        W37442  16.730   7.693  12.174 -0.0157  0.2077  0.0127
21549W        W37443  13.100   8.014  13.246  0.0198 -0.0737  0.0381
21550W        W37444  17.328   4.219  12.743 -0.2161  0.2260 -0.0510
21551W        W37445   0.628   5.831  14.594 -0.5074  0.1275 -0.2030
21552W        W37446   6.325  15.875   0.444  0.3503 -0.2148  0.1401
21553W        W37447  10.091   3.733   3.472 -0.3319 -0.1082 -0.0192
21554W        W37448   6.836  13.084   3.178 -0.1400 -0.1151 -0.2754
21555W        W37449   8.711  10.326   1.684 -0.0241 -0.0149 -0.1037
21556W        W37450  16.369  14.740   0.571 -0.0520  0.2193 -0.2508
21557W        W37451   7.734   8.843  10.283  0.0153  0.0375  0.1243
21558W        W37452   6.124   8.984   9.794 -0.0054  0.1963  0.1282
21559W        W37453  11.303   6.760   3.965 -0.0903 -0.1414  0.3311
21560W        W37454  13.806   8.919  13.738 -0.2167  0.0944  0.3428
21561W        W37455   9.213   8.983   4.102 -0.1162 -0.0381  0.1027
21562W        W37456   9.682   5.229   3.533  0.1093 -0.1603 -0.2860
21563W        W37457  12.860   4.143  13.762  0.0100 -0.0370 -0.2122
21564W        W37458   5.106   4.319   0.770  0.1639  0.0919 -0.2077
21565W        W37459  17.002  13.082   1.395 -0.2754  0.3873  0.1672
21566W        W37460  15.871   3.562   1.819 -0.1909  0.0105  0.1670
21567W        W37461  15.714  19.024   0.114 -0.0659 -0.0051  0.1115
21568W        W37462   2.249   7.725  10.353  0.0979  0.1386 -0.1590
21569W        W37463  13.242  15.612   4.792  0.0776  0.1200 -0.0054
21570W        W37464   7.466   7.549  14.773 -0.0334 -0.3989 -0.1102
21571W        W37465   5.463  13.723   5.278  0.0279  0.0741 -0.3062
21572W        W37466  15.755   7.930  11.410 -0.2253  0.0185  0.1786
21573W        W37467   0.034   9.704   0.091  0.4459  0.0113 -0.1094
21574W        W37468  16.067   4.028  11.951  0.0644  0.1370  0.6053
21575W        W37469  11.769   0.349   5.219 -0.4182  0.2353  0.3296
21576W        W37470  13.121   8.097   1.445 -0.2054 -0.3440  0.1163
21577W        W37471   6.773  11.686  15.038  0.3658 -0.1744 -0.0196
21578W        W37472   4.265   7.860  11.532  0.3249  0.1263  0.0785
21579W        W37473   4.129   4.086  10.876 -0.1513 -0.3727  0.1987
21580W        W37474   8.063   8.197  12.798  0.1118 -0.1046  0.1318
21581W        W37475   9.878  13.958  14.095 -0.0528 -0.0164 -0.1040
21582W        W37476  13.890   5.894   3.261  0.0729  0.0497 -0.0478
21583W        W37477  13.665  11.913   2.222 -0.3162  0.0038  0.3885
21584W        W37478   2.512   2.302   4.240  0.1793 -0.1035  0.2201
21585W        W37479  14.519   6.280  14.750  0.0997 -0.0823  0.3711
21586W        W37480   0.127   6.797   3.830 -0.3916  0.0853  0.0811
21587W        W37481   8.125  17.800  14.218  0.0717  0.0828  0.0788
21588W        W37482  16.793  15.447   5.939 -0.1973  0.0549 -0.0799
21589W        W37483  16.022  11.287  10.991  0.3179 -0.1476  0.2200
21590W        W37484  11.923  17.732   0.955  0.0317 -0.2696  0.1260
21591W        W37485   2.883  12.156  12.236 -0.3493  0.2510  0.2427
21592W        W37486   4.878  15.966   4.598  0.1417  0.1413 -0.2225
21593W        W37487   7.602   4.482  13.252 -0.0359  0.0964  0.1723
21594W        W37488  18.091   0.001  11.848  0.1158  0.0298  0.0803
21595W        W37489  10.445   9.529   2.851  0.1727  0.2823  0.2903
21596W        W37490   9.136  17.632   4.720  0.2860  0.0318 -0.0493
21597W        W37491  13.721   1.133  10.956  0.1009 -0.0264 -0.0705
21598W        W37492  18.947   9.138   2.563 -0.1823 -0.4064 -0.2402
21599W        W37493   6.785  14.616   0.824 -0.2861  0.1955 -0.0815
21600W        W37494  17.601  17.029  11.478 -0.1862  0.0454 -0.0428
21601W        W37495   8.695  12.924   3.066  0.1760 -0.0984  0.0904
21602W        W37496   5.579   6.949   2.074 -0.0666 -0.0432  0.4003
21603W        W37497   6.660   0.276   0.634  0.1670  0.1196 -0.1639
21604W        W37498   3.770  13.958  13.770  0.0490 -0.1051 -0.0236
21605W        W37499   5.819   0.991  13.395 -0.0134  0.2377 -0.0497
21606W        W37500  19.067   0.614   5.626  0.4840  0.3272 -0.2936
21607W        W37501  11.152  11.776  12.846 -0.0339  0.1550 -0.1329
21608W        W37502   6.422   1.078  15.114  0.1163 -0.1213  0.0893
21609W        W37503   1.779  10.582   9.388  0.0309 -0.2693  0.3839
21610W        W37504   2.196   8.817   0.317  0.1405 -0.1815  0.0882
21611W        W37505  16.283   2.259  15.113 -0.4803  0.0342  0.2044
21612W        W37506   0.265   7.006  10.962 -0.1822  0.0788  0.0623
21613W        W37507  18.512  14.115   3.427 -0.0657 -0.2076  0.1018
21614W        W37508  18.211  16.920  12.242 -0.0182  0.2750 -0.1740
21615W        W37509  15.620   1.631  14.622 -0.1504 -0.0147 -0.0102
21616W        W37510   0.932   2.977   0.081  0.1323  0.0021 -0.1901
21617W        W37511  15.611  15.129   2.851 -0.0824 -0.3827 -0.1564
21618W        W37512  16.352   9.624   1.475  0.0375 -0.1278 -0.2027
21619W        W37513   7.892  12.846   4.423 -0.3118  0.2172 -0.0530
21620W        W37514  12.247   7.870   0.879 -0.3855  0.4619 -0.1954
21621W        W37515  10.763  18.604   4.901 -0.0802 -0.0799 -0.1118
21622W        W37516  16.757   8.058   2.042 -0.1592  0.0230  0.1714
21623W        W37517  15.267   2.554  13.508 -0.0409  0.0105 -0.4063
21624W        W37518  12.938  18.541   2.106  0.1148  0.1221 -0.2031
21625W        W37519   1.380   1.574  10.596  0.1653 -0.0900  0.1709
21626W        W37520   4.796  17.544   0.670 -0.1177  0.2852  0.3777
21627W        W37521  13.874   7.283   4.602 -0.0748  0.3845 -0.3159
21628W        W37522  10.182  11.608   1.244 -0.0480  0.0110 -0.1843
21629W        W37523   0.401   0.126   0.748  0.2449  0.0960 -0.1370
21630W        W37524   8.580  14.920  14.323  0.2089  0.0624 -0.1581
21631W        W37525  11.457  17.196   3.695  0.0180 -0.1434 -0.0196
21632W        W37526   7.664  16.436   5.350  0.0932  0.1543 -0.1076
21633W        W37527   8.279  12.213  10.664 -0.0082 -0.1942  0.1769
21634W        W37528  13.440   1.129  12.336 -0.0679 -0.0739  0.1468
21635W        W37529  16.795   7.119  12.283 -0.2049 -0.3230 -0.3695
21636W        W37530   5.276  16.564  12.956 -0.2830 -0.1635 -0.0675
21637W        W37531   8.467   7.036   1.314  0.1507  0.1033  0.1719
21638W        W37532  16.369  12.246  12.472  0.1785 -0.2251 -0.0297
21639W        W37533   2.624   1.952   2.308  0.1393  0.2245  0.1014
21640W        W37534   9.601  14.214  12.807 -0.0703 -0.2146 -0.4532
21641W        W37535  16.137  12.926  12.559 -0.1025 -0.2188 -0.0945
21642W        W37536   4.516   0.700   2.417  0.0649 -0.0881 -0.1334
21643W        W37537   7.916   7.491  13.364 -0.0455 -0.0890  0.0250
21644W        W37538  17.189  13.532  12.015 -0.2494 -0.2216 -0.2316
21645W        W37539   6.879   7.774   2.520 -0.0884 -0.1462  0.2270
21646W        W37540   3.992  16.239   2.896 -0.1545  0.1934  0.0841
21647W        W37541   5.964  14.443   3.382  0.0694 -0.0504 -0.0819
21648W        W37542  15.435  16.612   0.342  0.1102 -0.0936  0.2681
21649W        W37543   9.561   6.101  12.943  0.0225  0.1532 -0.2592
21650W        W37544   2.876  13.070   0.744 -0.0478 -0.0747 -0.0934
21651W        W37545   5.310  14.405   2.184  0.0750 -0.0311 -0.2793
21652W        W37546   4.792  18.612  11.264  0.1153  0.0099 -0.0287
21653W        W37547  12.556   3.055   2.510 -0.2546 -0.2341 -0.0029
21654W        W37548   5.996   8.473   5.078  0.3770 -0.0379  0.1649
21655W        W37549  15.769   0.604   2.168  0.0732 -0.0147  0.2165
21656W        W37550  18.753   2.250  14.302  0.2445  0.1048  0.1783
21657W        W37551  14.567   3.300  14.552  0.0245 -0.0130  0.1044
21658W        W37552  17.158   8.589  14.675 -0.0800  0.1467 -0.0406
21659W        W37553   1.037   4.120  13.067 -0.0020  0.0227  0.3491
21660W        W37554   1.366   6.954   2.228  0.1230  0.2498  0.1718
21661W        W37555   5.221   8.847  13.809  0.0825 -0.2866 -0.1226
21662W        W37556  15.706   7.990  14.530 -0.1571 -0.0209  0.1286
21663W        W37557  14.185  17.171  11.381  0.3294 -0.1425 -0.5346
21664W        W37558  18.684  13.094  14.291 -0.1968 -0.0062 -0.0280
21665W        W37559   8.998  12.213  14.012 -0.1656 -0.2278 -0.1356
21666W        W37560   3.421  11.450  11.665  0.1189 -0.1650 -0.1334
21667W        W37561   1.738  17.427   3.143 -0.2364 -0.3040  0.0103
21668W        W37562  11.517   4.650   3.120  0.2538  0.4153  0.2857
21669W        W37563   3.679  18.002  11.985 -0.1278 -0.0351  0.1639
21670W        W37564   5.824  15.732   0.158 -0.0483 -0.1497 -0.0066
21671W        W37565   0.044   0.151   1.988 -0.1757  0.3491  0.1754
21672W        W37566   2.695  10.321   0.884  0.2064 -0.1210  0.0948
21673W        W37567  18.694  12.412   3.814  0.3163  0.3480  0.0700
21674W        W37568  10.259   5.678  12.482  0.3783 -0.3293 -0.0351
21675W        W37569   9.277  17.264  13.743  0.1430  0.2130  0.4617
21676W        W37570  10.997   3.006   0.975 -0.3104 -0.0645 -0.2610
21677W        W37571   3.865   6.231   0.690 -0.3408  0.2063  0.0053
21678W        W37572   1.001   3.612  13.129 -0.1095 -0.0449 -0.3244
21679W        W37573   4.681   1.802  10.836 -0.2766 -0.1206 -0.1388
21680W        W37574   1.684  10.497  13.311 -0.0748  0.0075 -0.0458
21681W        W37575  13.660   6.377  10.437  0.2495  0.0456  0.0658
21682W        W37576   3.027   4.626  13.692  0.1284  0.2121  0.0435
21683W        W37577  17.329   2.180  14.711  0.0572  0.2329  0.1509
21684W        W37578   2.514  11.303   2.955 -0.0173 -0.0686 -0.2714
21685W        W37579  16.005   6.415   4.267  0.1760  0.0433 -0.0529
21686W        W37580   5.862   3.124  12.780  0.2006  0.0210 -0.2888
21687W        W37581  14.208   4.900  11.802 -0.2814 -0.0193 -0.1857
21688W        W37582  18.948   7.027   9.736  0.2183 -0.0802  0.3723
21689W        W37583   3.322   1.997   2.988  0.2710  0.1776 -0.4484
21690W        W37584  14.666  13.912  12.588 -0.0174  0.2416  0.1003
21691W        W37585   6.119  11.911  12.067  0.2190 -0.0985  0.1531
21692W        W37586  18.082  12.093  11.559 -0.0043 -0.0778  0.1494
21693W        W37587  11.501  12.707  11.980  0.1725  0.2850 -0.0780
21694W        W37588  18.935  15.647   5.350 -0.0811 -0.0590 -0.2624
21695W        W37589   7.697   1.579   2.820 -0.1797 -0.5056 -0.2101
21696W        W37590  17.611  13.632   3.017 -0.0058  0.1254  0.3035
21697W        W37591   3.255   8.162  14.156  0.2533 -0.3902  0.0703
21698W        W37592  14.762   8.726   0.987 -0.5094  0.2486  0.0292
21699W        W37593  11.018  15.840  10.939 -0.2137  0.4909  0.4271
21700W        W37594  10.583   5.758   2.253  0.1884  0.1581  0.1750
21701W        W37595   0.155  16.847  11.316  0.0313  0.2910  0.0790
21702W        W37596  17.436   2.669  14.585 -0.1815 -0.3317  0.4095
21703W        W37597   2.765   9.792  14.609 -0.0215 -0.2099 -0.0962
21704W        W37598  11.012  17.735  10.660  0.0175  0.1511  0.1123
21705W        W37599  12.237   9.665  12.423  0.0629  0.2152  0.0046
21706W        W37600  18.843   8.816   3.247 -0.2351 -0.0288 -0.3790
21707W        W37601  13.787   6.139  11.127 -0.0405 -0.0529 -0.0421
21708W        W37602  10.908   6.234   2.260  0.0236 -0.1209 -0.0201
21709W        W37603   5.004   3.866  13.923  0.1557 -0.1263 -0.2633
21710W        W37604   9.518  14.677  11.894  0.5083 -0.0773  0.2356
21711W        W37605   1.305  14.746   2.903  0.0608 -0.1283 -0.0540
21712W        W37606   1.114   8.921  13.276  0.4672  0.1637 -0.0379
21713W        W37607   5.934   7.324   1.525 -0.1640  0.0882 -0.0703
21714W        W37608  14.589   6.502   2.276 -0.0459 -0.1151 -0.0685
21715W        W37609  14.102   6.596   2.166 -0.1805 -0.0238 -0.2795
21716W        W37610   7.470  17.141  14.845 -0.3092 -0.0583 -0.1707
21717W        W37611   8.320   5.921  14.441  0.3532  0.1568  0.0968
21718W        W37612   1.995   2.018  14.390  0.2279  0.1410  0.1895
21719W        W37613   6.294  13.300  14.423  0.0131  0.1580  0.0195
21720W        W37614   4.337   8.848  14.969  0.1636  0.0891  0.1430
21721W        W37615   7.883  15.941  13.556 -0.1952  0.1351 -0.4234
21722W        W37616  15.418  16.857   4.016  0.2403  0.2022 -0.1829
21723W        W37617   9.697  11.773   4.561  0.0118 -0.0776  0.1343
21724W        W37618   2.248   6.941  10.732 -0.0175  0.0629  0.0460
21725W        W37619  16.951  16.480   1.995 -0.0211  0.0781  0.2592
21726W        W37620   7.972   8.549  14.289  0.1148  0.1033  0.0048
21727W        W37621  16.012   0.409  13.057 -0.0189 -0.0514 -0.0795
21728W        W37622  11.205   1.571  13.339  0.1365  0.1256  0.1193
21729W        W37623  15.318  12.929   5.187  0.2271 -0.1141 -0.1154
21730W        W37624  11.838   2.404   3.581  0.1531 -0.0341  0.0718
21731W        W37625  10.214  10.276   1.100  0.2217 -0.1316 -0.1184
21732W        W37626   1.124   2.802   3.199 -0.1537 -0.1255 -0.0871
21733W        W37627  13.771   7.463   5.082 -0.0773  0.0061  0.4815
21734W        W37628   1.184  17.176  11.447  0.2352  0.2095 -0.1557
21735W        W37629  12.943   7.320  12.095 -0.2474 -0.0018 -0.2308
21736W        W37630   3.813   6.367  13.662 -0.1125 -0.0999 -0.1139
21737W        W37631  11.815  13.287   4.448 -0.1297  0.0452  0.0262
21738W        W37632   0.025   2.942   0.915 -0.2127  0.0983 -0.0153
21739W        W37633  15.943  15.743  11.389  0.2225  0.4222 -0.4251
21740W        W37634  14.360   4.647   2.124 -0.3276 -0.3184 -0.1305
21741W        W37635  14.322   6.642   3.231 -0.0865  0.0003  0.1472
21742W        W37636   6.821  15.687  10.167  0.1896 -0.4424 -0.0145
21743W        W37637   2.681   9.096  11.224 -0.1747  0.4538 -0.2960
21744W        W37638   2.841  19.128  13.295 -0.0489 -0.0397  0.0103
21745W        W37639  17.601   2.813   5.344  0.1747  0.0246  0.1768
21746W        W37640   1.647   9.633   3.131 -0.0212 -0.0079 -0.0483
21747W        W37641   6.909  18.913  10.000 -0.0372  0.0599  0.0118
21748W        W37642   9.765   6.228   2.162  0.1307 -0.0845 -0.3022
21749W        W37643   0.431   9.645  12.545 -0.0468  0.1018 -0.1196
21750W        W37644  11.712  18.609   5.691  0.0570 -0.3742 -0.0441
21751W        W37645  16.638   5.729   1.972  0.0313  0.0593 -0.0145
21752W        W37646  12.977  19.066   4.012  0.1619 -0.4677 -0.1472
21753W        W37647  16.514  13.571  11.858 -0.1052 -0.0834  0.0748
21754W        W37648  12.612  13.775   3.621  0.0663 -0.1534 -0.3220
21755W        W37649  11.625  18.987  10.850 -0.0564 -0.1220  0.3358
21756W        W37650  15.814   5.452   5.856  0.1830 -0.1566  0.1100
21757W        W37651  14.507  15.350   3.351  0.0751  0.2284 -0.0176
21758W        W37652  18.861  15.480   3.167  0.3558 -0.1624  0.1052
21759W        W37653   2.240   7.495  14.290 -0.1271 -0.1072 -0.1108
21760W        W37654  17.259  17.267   4.265 -0.2690 -0.1212  0.3389
21761W        W37655   1.149  13.095  14.685  0.1954  0.0988  0.0949
21762W        W37656  17.692  16.592   6.010 -0.0148 -0.2402  0.0312
21763W        W37657   5.183   1.028  12.856  0.0763 -0.1620  0.0256
21764W        W37658  15.597  12.861  10.661  0.0001 -0.2479 -0.2524
21765W        W37659  11.693  16.094   0.168  0.0433 -0.1630 -0.1478
21766W        W37660   8.307   4.526   2.159 -0.2974 -0.2246 -0.0418
21767W        W37661  11.229   1.257  14.136 -0.1859  0.0572  0.2212
21768W        W37662  18.239  13.249   2.772  0.0112  0.2344 -0.0907
21769W        W37663  11.883  12.989  14.774 -0.3019  0.2526  0.0691
21770W        W37664   2.585   0.631   1.315  0.0036  0.0673  0.0402
21771W        W37665   8.853   7.723  14.206 -0.2236  0.2596 -0.1459
21772W        W37666   1.589  14.727   1.671  0.2776 -0.1007  0.2742
21773W        W37667   5.859   9.506   1.243  0.1430  0.1711  0.1824
21774W        W37668   5.334   8.208   1.068  0.1963  0.2538 -0.0662
21775W        W37669  15.164   1.402  13.631 -0.0640 -0.1625  0.5639
21776W        W37670  18.513   5.739   4.195 -0.3847  0.0185 -0.2478
21777W        W37671   4.394  12.471  13.713  0.0425 -0.0308 -0.2153
21778W        W37672   2.120   2.096   1.441 -0.2530 -0.0511  0.3637
21779W        W37673  11.049  10.739   0.647  0.0858 -0.1502 -0.0180
21780W        W37674  10.985   2.783   4.318 -0.0737  0.0152  0.3319
21781W        W37675  12.051  13.295  15.165  0.1346  0.1067 -0.1055
21782W        W37676   3.396  13.751   2.949 -0.2723  0.2327 -0.3834
21783W        W37677   3.933   3.262  12.781  0.2865 -0.0377 -0.1063
21784W        W37678   4.413  10.604   1.603 -0.2142  0.0296 -0.2202
21785W        W37679  12.855  11.402  14.797 -0.0188 -0.2128  0.0167
21786W        W37680  10.901  12.734   9.712  0.2049 -0.2230  0.0037
21787W        W37681  13.207  15.047   0.063  0.2634  0.1071 -0.0509
21788W        W37682  19.086   3.296   2.215 -0.1713 -0.2331 -0.3623
21789W        W37683   1.144  18.670  13.732  0.3118  0.2293  0.0178
21790W        W37684  12.870   0.810   3.788  0.2388 -0.0467 -0.0726
21791W        W37685   4.550   4.320  11.849 -0.2756 -0.4094 -0.0498
21792W        W37686  12.414  18.245   4.019 -0.0240 -0.0683 -0.4096
21793W        W37687  12.689   8.378   2.132 -0.0079  0.0875  0.3390
21794W        W37688  12.985   8.441   4.287 -0.1738  0.3554 -0.1386
21795W        W37689   2.244  17.257  14.875  0.1566  0.1801  0.0547
21796W        W37690  17.321  18.687   4.979  0.1558  0.0856 -0.0240
21797W        W37691   1.541   5.881   0.940  0.2173 -0.1314 -0.1694
21798W        W37692   9.583  14.672  10.454  0.0518  0.2223 -0.0266
21799W        W37693   5.341  17.972  12.923 -0.0404 -0.0248 -0.2900
21800W        W37694   6.631  13.239   2.251  0.2586  0.0282  0.1979
21801W        W37695  13.687  16.937   3.228  0.1925 -0.0966 -0.0838
21802W        W37696  17.505  18.813   1.323 -0.1884 -0.1962 -0.1805
21803W        W37697  13.125   5.937  15.189  0.0312 -0.3398 -0.2026
21804W        W37698  16.109   1.983   2.833 -0.0524  0.0397  0.3812
21805W        W37699   1.344   5.243  11.916  0.1005  0.3193 -0.3816
21806W        W37700   9.382  18.275   1.712 -0.0322  0.0810  0.3570
21807W        W37701  10.424  19.163  10.396  0.4010 -0.0029  0.1352
21808W        W37702  15.747   9.846   3.817 -0.1574 -0.2723  0.0108
21809W        W37703  16.780   0.659   3.767  0.0192 -0.1349  0.0815
21810W        W37704  18.316  18.789  11.462 -0.0871 -0.0144  0.2256
21811W        W37705   8.938   5.292  12.198 -0.0070 -0.2513  0.3325
21812W        W37706   5.313  16.726   3.402 -0.2334  0.1131  0.0025
21813W        W37707  16.240  13.986  10.949 -0.0736 -0.2467 -0.0763
21814W        W37708   9.325  11.952  14.895 -0.1804 -0.1877  0.2248
21815W        W37709  18.918  11.629   3.525 -0.1289 -0.2604  0.0872
21816W        W37710  10.241   6.707   4.161 -0.0809  0.1071  0.3333
21817W        W37711   1.424   8.227  14.440  0.3086  0.0236 -0.1607
21818W        W37712   2.176  14.155  12.453 -0.0164 -0.1022  0.0691
21819W        W37713  14.982   9.040   2.357  0.0231 -0.1968 -0.3113
21820W        W37714   9.805  16.131   1.378  0.1365 -0.0108  0.2004
21821W        W37715  12.136   1.726  11.225  0.3531 -0.1484 -0.1884
21822W        W37716   8.697  18.070   2.371  0.0218  0.2283 -0.1051
21823W        W37717   4.493   4.686   1.917  0.0559  0.2024 -0.2307
21824W        W37718  17.706  15.543  13.716 -0.0002  0.2186 -0.1407
21825W        W37719   6.504   9.342  13.671  0.0506 -0.1022  0.0398
21826W        W37720  11.524   9.395   2.141  0.0456  0.1419 -0.1072
21827W        W37721   0.607   8.938   1.950 -0.2986  0.1353  0.1771
21828W        W37722   6.579  16.188   3.193 -0.0529 -0.4702  0.1242
21829W        W37723   1.446   9.038   4.526  0.1138 -0.1955 -0.2444
21830W        W37724  12.105  14.305  13.297 -0.1522  0.3420  0.0427
21831W        W37725   0.040  16.621  11.874 -0.1688 -0.0368  0.0013
21832W        W37726   4.184  16.349   3.978 -0.4481 -0.1865  0.2853
21833W        W37727  16.943   2.857   2.413  0.2676 -0.2044 -0.0164
21834W        W37728  18.966  15.263  14.959 -0.0800 -0.2220  0.0170
21835W        W37729   4.876   0.751   2.934 -0.3119  0.1141 -0.1847
21836W        W37730   5.089  14.382   2.718 -0.2356 -0.0701  0.1139
21837W        W37731  11.614  12.610   1.491  0.0768 -0.1822  0.2316
21838W        W37732   0.261  15.342   5.242 -0.2398  0.1316  0.3252
21839W        W37733  17.357  11.349  11.068  0.0832  0.1141  0.1336
21840W        W37734  14.538  10.725   0.334 -0.3170  0.1669  0.1543
21841W        W37735   5.286   0.435  10.653  0.0280  0.1456 -0.1952
21842W        W37736  14.630   4.202  13.435 -0.1678 -0.1913  0.0824
21843W        W37737  17.136   8.952   2.514  0.1464 -0.0731 -0.1441
21844W        W37738   1.407   2.901  13.382  0.3645 -0.1533 -0.3164
21845W        W37739   8.029  14.921   0.761 -0.3502 -0.2858 -0.3914
21846W        W37740  18.030   6.651  12.909  0.1992 -0.2098 -0.1947
21847W        W37741  11.031  11.215  12.895 -0.0777 -0.0656 -0.1208
21848W        W37742   9.814   6.278   5.019  0.1789 -0.0688 -0.1902
21849W        W37743  14.885   5.271   2.856  0.0880  0.0343  0.0532
21850W        W37744   1.306   2.113  13.864  0.2466  0.1117  0.1044
21851W        W37745   3.085  16.012   0.073  0.2291 -0.1187  0.2361
21852W        W37746   0.867  12.415  14.943  0.0869 -0.2958 -0.3129
21853W        W37747  14.058  13.636  13.715 -0.0523  0.1494  0.3373
21854W        W37748  13.161   4.154   2.049  0.3103  0.0783  0.3146
21855W        W37749   4.425   5.053  12.396 -0.0872  0.0808  0.0326
21856W        W37750   7.693   2.129   1.954  0.5118  0.1486  0.2435
21857W        W37751   0.022  12.795   2.301 -0.0687  0.0785  0.2168
21858W        W37752   1.343   3.080   2.835 -0.0745  0.0104 -0.0262
21859W        W37753   1.536   6.624   0.391 -0.3846  0.4197 -0.1665
21860W        W37754  17.295   4.235   4.409  0.2000  0.0145 -0.0058
21861W        W37755   1.230   5.496   1.724 -0.5384  0.1461 -0.2318
21862W        W37756   0.320   4.949   3.994  0.0963 -0.1750  0.2016
21863W        W37757   7.944  15.948   3.202  0.0575  0.0479 -0.2681
21864W        W37758   8.112  14.599  11.496 -0.1186 -0.1890 -0.1518
21865W        W37759   1.958   3.805  11.141  0.0489  0.0721  0.2798
21866W        W37760   6.923  16.558  12.063 -0.0141 -0.0023  0.2732
21867W        W37761  15.817   3.294  13.229 -0.0699 -0.0379  0.0437
21868W        W37762  17.278  10.334  11.288 -0.2038 -0.2776  0.1142
21869W        W37763   1.358  15.895  12.846 -0.1295 -0.2641  0.2066
21870W        W37764   9.468  18.097   1.210 -0.3381 -0.1206  0.3863
21871W        W37765  11.882   4.947   2.335 -0.2798 -0.1049  0.0949
21872W        W37766   5.657   3.844  12.240  0.0189  0.0354 -0.0870
21873W        W37767   5.681  10.013   3.516  0.2837 -0.0636  0.2815
21874W        W37768  14.864  13.521  10.735 -0.1543  0.0172 -0.0496
21875W        W37769  12.910   0.579  11.607 -0.0542  0.2467 -0.1512
21876W        W37770  16.619   6.929  11.870 -0.3047  0.0088  0.0503
21877W        W37771   8.047  11.328   0.370 -0.1119  0.0405 -0.0569
21878W        W37772  16.599  19.157  12.741 -0.0207  0.0783 -0.2956
21879W        W37773  12.134  10.775   9.978  0.0991 -0.1396  0.1271
21880W        W37774  11.480   0.302   1.513 -0.1062  0.0742 -0.2717
21881W        W37775   2.520   9.745  11.036 -0.0787 -0.1084 -0.1875
21882W        W37776  10.908   6.544   3.673  0.1596 -0.4500 -0.0382
21883W        W37777   1.428   3.165   3.315 -0.1504 -0.2064  0.3807
21884W        W37778  18.091   8.960  14.697 -0.3549 -0.4753  0.3179
21885W        W37779   8.107   3.447  13.536 -0.0188  0.2601  0.2956
21886W        W37780   6.785  14.505   1.342 -0.1823  0.1205  0.2087
21887W        W37781  11.503  15.004  10.682 -0.4272  0.0435  0.1321
21888W        W37782   7.936   5.686  11.479 -0.1510  0.2983  0.1146
21889W        W37783   3.440   9.745  12.882 -0.1101  0.1891  0.0031
21890W        W37784   9.644  10.395  13.781  0.2268  0.2463  0.0982
21891W        W37785   2.224  12.901  12.633 -0.0084 -0.1482  0.0049
21892W        W37786  13.296   5.163  14.650  0.0069  0.1855  0.1353
21893W        W37787  16.590  13.451   2.987  0.2705  0.2460 -0.2748
21894W        W37788   0.994   7.554  11.953 -0.2173 -0.3256  0.1470
21895W        W37789   3.491   2.458  12.606 -0.0751  0.2097 -0.4798
21896W        W37790  17.652   4.039   2.190  0.0323 -0.2350  0.1575
21897W        W37791  11.035  12.596  12.129  0.4478  0.2585  0.3256
21898W        W37792   2.156  18.569  15.125 -0.4359 -0.1420 -0.0427
21899W        W37793   2.307   9.644  15.124 -0.0348 -0.0896  0.1714
21900W        W37794  15.550  13.271  13.214  0.0864 -0.3139 -0.4074
21901W        W37795  10.604   7.088   2.919 -0.0066  0.4352  0.0585
21902W        W37796   3.712   8.041   3.391  0.0680  0.0296 -0.0880
21903W        W37797  11.748   1.898  11.952  0.0577 -0.0784 -0.0897
21904W        W37798   5.989  15.946   1.148 -0.0351 -0.1842 -0.2540
21905W        W37799  11.535   4.471   3.702  0.2645 -0.0432 -0.2562
21906W        W37800  14.981   0.329  14.659 -0.0891 -0.0563 -0.1224
21907W        W37801   7.157   1.950  14.319  0.0950  0.0691  0.2431
21908W        W37802  13.775  16.513  12.088  0.0566 -0.0161  0.2306
21909W        W37803  12.202   6.175   1.860 -0.0097 -0.0343 -0.2695
21910W        W37804   0.733  16.901  15.176  0.5051 -0.0092 -0.0140
21911W        W37805   4.239   6.019   2.889  0.0880 -0.5066 -0.0546
21912W        W37806  12.509  13.906   2.093 -0.0818 -0.0517  0.2967
21913W        W37807  13.177   4.895  14.097  0.0652  0.0974  0.4456
21914W        W37808  13.643   0.644  12.239 -0.0652 -0.1425  0.0368
21915W        W37809   3.880   3.249  12.305  0.0439 -0.1859  0.0789
21916W        W37810  17.680   2.896  10.779 -0.0589  0.2671 -0.3099
21917W        W37811  12.974   6.364  11.745 -0.0666  0.1661  0.0255
21918W        W37812  13.126   6.905   4.910  0.0044 -0.1044  0.1749
21919W        W37813   7.427   6.377   3.108  0.0538 -0.1780  0.1612
21920W        W37814   7.625  11.307  11.434 -0.0323  0.3119 -0.2074
21921W        W37815  18.807   6.295   4.333  0.1670 -0.0953 -0.1021
21922W        W37816   5.240  14.161   3.572  0.0661 -0.0124 -0.4527
21923W        W37817  11.188   4.935   2.187  0.3941 -0.0175 -0.0354
21924W        W37818   2.551   4.497  10.781 -0.1962  0.2282  0.1594
21925W        W37819  14.282  10.576  14.571  0.0329  0.0881  0.0937
21926W        W37820   9.448   3.375  12.039 -0.1666 -0.2163  0.0184
21927W        W37821  12.160  18.226  10.721  0.0997  0.4794  0.2009
21928W        W37822   8.749   6.501  12.915 -0.2045 -0.0545 -0.3797
21929W        W37823  17.457  14.911   1.110  0.1816  0.1366 -0.6388
21930W        W37824   8.289   9.026  13.994 -0.0030  0.0881  0.0890
21931W        W37825  11.347  18.954   2.323 -0.1121 -0.1890 -0.1429
21932W        W37826  15.163   7.975   0.117  0.4631  0.1240  0.1711
21933W        W37827  16.001   5.874  11.317  0.2722 -0.0028  0.3193
21934W        W37828  10.278   6.667   2.895 -0.1791  0.2835  0.0055
21935W        W37829   9.167   8.959  12.606 -0.2034 -0.0099 -0.0690
21936W        W37830  11.157   9.127  11.510  0.3165  0.0389  0.0370
21937W        W37831   6.657   8.585   0.628  0.1216  0.2120  0.0567
21938W        W37832   9.111  10.999   1.027 -0.0424 -0.5126 -0.0175
21939W        W37833  16.008  12.844   1.220  0.0143  0.0202  0.0192
21940W        W37834   9.576  10.906  14.866 -0.0401  0.0570  0.3175
21941W        W37835   5.903  14.919   3.798 -0.2664 -0.0340  0.1016
21942W        W37836   7.265   6.171  12.290  0.1210 -0.1224 -0.1760
21943W        W37837   4.038  13.573  14.768  0.0484 -0.1210  0.1086
21944W        W37838  12.994   3.841  15.132  0.0838  0.7080 -0.2703
21945W        W37839  18.462   5.722   1.362  0.0232 -0.1726 -0.1580
21946W        W37840   2.276   9.577   3.233 -0.3589  0.2042 -0.2310
21947W        W37841  12.234   0.970  14.148  0.0259  0.2699  0.2015
21948W        W37842  14.086  12.399   2.911 -0.2107  0.0283  0.3073
21949W        W37843  13.843  10.220   0.498 -0.1353 -0.1473 -0.1058
21950W        W37844  18.731   7.789   1.846  0.0576 -0.1326 -0.0166
21951W        W37845   4.862  10.677  12.862 -0.0587  0.4513  0.0132
21952W        W37846   8.402  15.879   2.920 -0.2743  0.0567 -0.1643
21953W        W37847   3.923  14.047   3.007  0.1202  0.5231 -0.0625
21954W        W37848  14.905   4.892   5.220  0.0912 -0.0697 -0.0919
21955W        W37849   8.716  12.238  14.379 -0.3324 -0.1726  0.0846
21956W        W37850  15.354   8.663   1.792 -0.1900  0.0794  0.1550
21957W        W37851   8.834  15.236   0.935 -0.0522 -0.0570  0.1357
21958W        W37852  13.448   3.832   4.499  0.1515 -0.3762  0.0284
21959W        W37853   8.967  16.825   1.383 -0.0815 -0.0715  0.2283
21960W        W37854   0.264   8.902  10.209  0.0723  0.3003  0.2851
21961W        W37855   7.537  10.192  13.594  0.2327 -0.1895 -0.0086
21962W        W37856   4.452  17.615   1.914  0.0336 -0.0076  0.4969
21963W        W37857  14.889  11.361   3.146 -0.0746  0.1868 -0.1592
21964W        W37858   9.133   5.166  13.148 -0.3672 -0.1886  0.2132
21965W        W37859   3.555   4.567  12.066 -0.0743  0.1472 -0.1565
21966W        W37860  15.352   5.324   3.519  0.4301  0.0789 -0.0919
21967W        W37861  15.585   0.245  13.241 -0.2237  0.0979  0.1496
21968W        W37862  13.657  13.583  12.978  0.2707 -0.0078  0.0608
21969W        W37863  10.280   8.062  14.248 -0.0994  0.2976  0.0162
21970W        W37864   5.118  11.381  13.656 -0.0988  0.0983 -0.1120
21971W        W37865   0.190   8.650  12.740  0.0635  0.0772 -0.0887
21972W        W37866   2.304  16.550  12.096 -0.0283  0.0985  0.0486
21973W        W37867   2.100  14.014   5.341 -0.1644 -0.1428  0.1770
21974W        W37868  13.728  10.812  13.952 -0.2343  0.1462  0.5017
21975W        W37869   3.462  15.254   1.039  0.0699 -0.1936  0.1425
21976W        W37870  18.375   0.757  12.407 -0.0053 -0.2343 -0.0232
21977W        W37871  11.474   7.434  13.679  0.3064  0.1568 -0.0728
21978W        W37872   8.814   1.788  13.921 -0.4538  0.0834 -0.0995
21979W        W37873  17.084   5.393   1.626 -0.0024 -0.5386 -0.0521
21980W        W37874  13.825  12.986  11.224 -0.2796 -0.3193 -0.1627
21981W        W37875   5.438   9.361  11.494  0.1226 -0.0276  0.0893
21982W        W37876  13.467   6.830  14.672 -0.0775  0.0707 -0.2535
21983W        W37877  10.117  10.315   1.999  0.3727  0.0867  0.3211
21984W        W37878  15.735  10.377  13.831 -0.0069 -0.2174  0.1490
21985W        W37879   7.666   9.287   0.587  0.1418 -0.1032  0.4483
21986W        W37880  13.768  17.612   1.198  0.2335  0.3259 -0.3335
21987W        W37881   0.717  13.640   3.560 -0.2884 -0.2638 -0.0263
21988W        W37882   9.474  12.630   0.101 -0.0333 -0.0835 -0.0157
21989W        W37883   3.035   4.207   5.480  0.0723  0.2278 -0.3754
21990W        W37884  16.502  14.097   0.388  0.1819 -0.1239 -0.3751
21991W        W37885   6.020  17.502  11.879 -0.1358  0.3048 -0.0045
21992W        W37886   4.491  18.590   0.452  0.1141  0.4897  0.1928
21993W        W37887  12.186  18.156  11.306 -0.2214 -0.0017  0.3060
21994W        W37888   6.572  12.765   2.351 -0.0924 -0.0497  0.0078
21995W        W37889  11.984  11.187  11.355 -0.0790 -0.2965 -0.4833
21996W        W37890  14.673  18.085   0.694  0.0593  0.3039  0.3580
21997W        W37891   6.216   9.137  14.268 -0.2874 -0.2762  0.1830
21998W        W37892  17.788  18.465  13.601  0.1592 -0.1598 -0.4169
21999W        W37893  16.266  15.891  14.148 -0.0390  0.2956  0.0586
22000W        W37894  12.516   7.710   3.602 -0.1336 -0.0376 -0.3349
22001W        W37895   5.886  11.060  11.522  0.2393  0.1092  0.2110
22002W        W37896  17.202   8.603  11.349 -0.0515  0.2714 -0.0536
22003W        W37897  18.738   3.617  13.884  0.3798 -0.3354  0.1177
22004W        W37898   7.781  17.785   3.482 -0.1379 -0.3469  0.0917
22005W        W37899   7.874   8.949   0.860  0.1740 -0.1156 -0.0956
22006W        W37900  13.364  14.870  11.762  0.2421 -0.2668 -0.1072
22007W        W37901  10.694  15.779  14.690 -0.0759  0.4375  0.1284
22008W        W37902  18.634   2.413   5.069 -0.0673 -0.0850  0.3254
22009W        W37903  15.131   0.490  13.625  0.3381 -0.1262  0.0630
22010W        W37904   9.357  13.069  11.429 -0.0985 -0.2754 -0.1701
22011W        W37905  13.958  10.396  14.232 -0.1782 -0.2854 -0.4363
22012W        W37906  14.230   7.401  11.713 -0.1801 -0.1520 -0.2926
22013W        W37907   3.755  18.380  11.330 -0.0049 -0.1317 -0.0991
22014W        W37908   7.374   9.694  13.441  0.1419 -0.0868  0.1138
22015W        W37909   4.865   9.174   1.069  0.3266 -0.0043  0.0236
22016W        W37910   2.734   5.601   2.137 -0.1489  0.0091  0.1779
22017W        W37911  17.339  17.713   2.626 -0.1279 -0.3133 -0.0504
22018W        W37912   1.833   7.514   4.674  0.2175 -0.0256  0.1407
22019W        W37913   0.469   9.607   0.410  0.0665  0.1955 -0.1783
22020W        W37914  12.067  18.862   4.353 -0.0591 -0.0183 -0.0612
22021W        W37915   1.213   6.458  10.127 -0.2408 -0.0384  0.2917
22022W        W37916  18.626  12.944   3.626 -0.0134 -0.1675 -0.0462
22023W        W37917  12.861  17.038   2.517 -0.2454  0.0838 -0.0973
22024W        W37918  17.959  16.491   2.652  0.0568 -0.1734 -0.0041
22025W        W37919  15.033  18.427  12.401  0.0777 -0.0651  0.0275
22026W        W37920   0.090  10.965   3.160  0.1668  0.1098 -0.0827
22027W        W37921  13.430   6.669   5.738  0.0500 -0.0032 -0.1061
22028W        W37922  15.886  18.706   5.085 -0.1042 -0.1657  0.0064
22029W        W37923   3.416  19.120   3.569  0.1465 -0.0252  0.2843
22030W        W37924  13.210   9.832   0.736 -0.3242 -0.0872  0.0078
22031W        W37925  12.477   1.400  11.193  0.0327 -0.1928  0.1385
22032W        W37926   0.345   4.414   2.042 -0.2557  0.0690 -0.1464
22033W        W37927  16.134  14.262   4.799  0.3183  0.1384 -0.1400
22034W        W37928   7.084  15.409   4.597  0.2083  0.2722 -0.2173
22035W        W37929   7.744   2.189   1.465 -0.1453  0.1000 -0.0798
22036W        W37930   7.854  17.308  13.822 -0.2183  0.1299 -0.0208
22037W        W37931  16.039  16.542  14.955  0.0273 -0.1119  0.0130
22038W        W37932  16.564   6.237   5.093  0.3424  0.4592 -0.1973
22039W        W37933  14.241   1.805   4.303 -0.0544  0.0427 -0.0238
22040W        W37934   5.797  13.725  12.190 -0.1204 -0.1507  0.0337
22041W        W37935   5.036   7.300   1.640  0.2229  0.0506 -0.0278
22042W        W37936   9.540   8.214  10.842  0.0483  0.1857  0.0467
22043W        W37937   6.310  18.542  12.191  0.4761 -0.0446 -0.3895
22044W        W37938  15.294  10.353   2.511 -0.1070 -0.2092  0.0591
22045W        W37939   0.211  10.398  13.747 -0.0701 -0.2802 -0.2370
22046W        W37940   5.963  14.833   0.104  0.0905 -0.1378 -0.2671
22047W        W37941  14.964   5.193   0.487  0.2579  0.0321 -0.1612
22048W        W37942   4.757  10.013   0.462  0.0477 -0.1931  0.3313
22049W        W37943   7.602  18.127   2.682  0.2147 -0.2945  0.2007
22050W        W37944  13.096  13.349   3.735  0.0742 -0.2342  0.0414
22051W        W37945   5.258   0.324  13.856 -0.3209 -0.0878 -0.3659
22052W        W37946  12.125   2.670   5.560 -0.1245  0.1992  0.1135
22053W        W37947  15.398  17.453  13.089 -0.0711 -0.0616  0.2175
22054W        W37948  15.083  14.306   4.181  0.1311  0.0831 -0.1003
22055W        W37949  17.869  17.438   4.861  0.0682  0.1544 -0.0088
22056W        W37950  17.660  18.372   1.569  0.1301  0.1786  0.2996
22057W        W37951  12.920  18.440   0.412 -0.2986  0.0052 -0.3569
22058W        W37952   8.653  12.573   2.116 -0.0271  0.4154  0.2549
22059W        W37953  17.546   3.651   5.123 -0.3205 -0.3998 -0.0984
22060W        W37954  12.549  14.699   0.341  0.3111 -0.0228  0.0918
22061W        W37955   0.816  18.457   0.672 -0.1492 -0.4259  0.2912
22062W        W37956  10.387   1.682  14.156 -0.1961  0.1393 -0.2921
22063W        W37957   7.002   1.539  11.787  0.3096 -0.0036 -0.4093
22064W        W37958  18.581   2.156  12.980 -0.2409 -0.0566  0.3016
22065W        W37959   5.015   2.717   1.496 -0.1858  0.0755 -0.0219
22066W        W37960  18.684   4.290  12.775 -0.1102 -0.1355  0.1350
22067W        W37961   4.355   4.651   3.241 -0.5578  0.1596  0.1170
22068W        W37962  11.691  11.175  12.894  0.3862 -0.0721 -0.0804
22069W        W37963   6.615  10.474   1.884 -0.2652  0.5629  0.3392
22070W        W37964  18.139  18.702   2.374 -0.0192  0.1882  0.0926
22071W        W37965   4.943  15.246  13.317  0.1967  0.0977 -0.0100
22072W        W37966  13.333   2.699  13.401  0.2351  0.1529 -0.1296
22073W        W37967   4.253  13.636  10.492 -0.2034 -0.1446  0.0657
22074W        W37968   4.061   1.079   0.846  0.2132  0.0965 -0.2411
22075W        W37969   2.672  12.929  10.616  0.1518 -0.0840  0.2923
22076W        W37970   9.038   9.998   3.725 -0.2436 -0.4090 -0.1116
22077W        W37971   5.072   3.113   0.111  0.0469 -0.1280  0.0488
22078W        W37972  14.630   5.830   5.150 -0.0120  0.0773  0.0401
22079W        W37973  11.886   0.776  15.135 -0.2253  0.1049 -0.1477
22080W        W37974  16.781   4.782  13.152 -0.1467 -0.5595  0.2041
22081W        W37975  11.869   9.127   4.400  0.0990  0.2045  0.2843
22082W        W37976   4.801   0.371  14.908  0.0550 -0.1135 -0.1556
22083W        W37977   7.737  12.987  12.989  0.1125 -0.4147 -0.2250
22084W        W37978  12.152  11.532   2.522 -0.0431  0.0535 -0.1582
22085W        W37979   3.311   8.870  10.805 -0.0299  0.0196 -0.0251
22086W        W37980   9.241  11.929  11.250  0.0337  0.0761  0.3642
22087W        W37981   3.946  18.759  11.557 -0.2473  0.3421 -0.0877
22088W        W37982   2.535  18.327   2.333  0.3013 -0.4416  0.0114
22089W        W37983   2.734   5.795  10.666 -0.1897 -0.1923  0.0917
22090W        W37984   9.189  10.505   1.963  0.4639 -0.1919 -0.2477
22091W        W37985  15.671   7.554   5.081 -0.2521  0.3935 -0.2071
22092W        W37986  13.262   9.232  13.966 -0.1118 -0.1096 -0.1072
22093W        W37987   5.588   4.050  12.735  0.2457 -0.0243 -0.0050
22094W        W37988  11.925  14.687   1.594 -0.3371 -0.4687 -0.1734
22095W        W37989  13.769   6.528   5.164 -0.4048  0.1273 -0.1816
22096W        W37990   5.356  12.196  11.589  0.2680  0.0202 -0.0659
22097W        W37991   4.245  11.416   4.058 -0.1395  0.0219  0.0113
22098W        W37992  14.263  12.860   0.534 -0.0394 -0.0951 -0.2709
22099W        W37993  14.750  11.871   0.447 -0.0528 -0.3873  0.1228
22100W        W37994   0.967   2.787  11.668  0.3288 -0.2437 -0.1445
22101W        W37995  16.923   8.297  15.064  0.0907 -0.3798  0.0587
22102W        W37996  14.227   6.446   0.010 -0.3572  0.2514 -0.3010
22103W        W37997   2.492  11.525   4.753 -0.0895 -0.0374  0.3751
22104W        W37998   0.431   3.277   1.042 -0.0478 -0.0080 -0.1197
22105W        W37999   5.858   7.358  14.456  0.1616  0.1646  0.5738
22106W        W38000   0.110   6.464   2.681 -0.0149  0.1996  0.1890
22107W        W38001   3.530  14.945   3.801 -0.1437 -0.2967  0.0382
22108W        W38002  13.128  12.681   2.498 -0.0310  0.0725 -0.3356
22109W        W38003  14.181  11.849  14.502  0.1520 -0.1514  0.0159
22110W        W38004  11.486   9.747  14.948 -0.0792 -0.1437 -0.1479
22111W        W38005   4.225   7.584   4.138 -0.0818 -0.1073 -0.0435
22112W        W38006   7.935  13.993  13.253 -0.2389  0.0574  0.0967
22113W        W38007  15.398   3.760  12.078  0.1597 -0.0012 -0.3112
22114W        W38008  12.301  10.035   3.993  0.2292 -0.0416 -0.0982
22115W        W38009  10.482  17.488   9.701  0.3302 -0.3838 -0.0904
22116W        W38010  13.084  11.936   3.908  0.2309 -0.1401  0.1978
22117W        W38011   1.988   4.160  11.468 -0.1460  0.0003  0.0234
22118W        W38012  12.805  12.952   2.803  0.0065 -0.1201 -0.1415
22119W        W38013   9.717   9.126   3.792 -0.0007  0.0317 -0.0739
22120W        W38014  10.648   6.613  11.361  0.0815  0.2423  0.1911
22121W        W38015   0.587   1.872   1.311  0.0259 -0.0782 -0.3794
22122W        W38016  12.861   6.237  12.597  0.2121  0.2052 -0.1532
22123W        W38017   8.100  18.749   1.681  0.0930  0.1541 -0.2853
22124W        W38018   7.342  14.254  13.195 -0.2169 -0.5503 -0.0566
22125W        W38019   7.405  11.120  10.916  0.0229  0.0961 -0.0803
22126W        W38020  16.190   4.129  12.793  0.1825 -0.0645  0.2877
22127W        W38021  11.809  13.895  13.236  0.0694  0.0675 -0.0005
22128W        W38022   8.578  10.819  15.067  0.2146  0.2150  0.1275
22129W        W38023  12.380   4.903   2.045 -0.0933 -0.1681 -0.2891
22130W        W38024   1.274   1.790  11.542  0.0132  0.0080 -0.6123
22131W        W38025   7.203  19.065   3.130 -0.3306  0.1203  0.1688
22132W        W38026  13.162   9.486  12.101 -0.1753  0.0851  0.1476
22133W        W38027   3.341   5.580   2.765 -0.5040 -0.0149 -0.0774
22134W        W38028   2.217  15.365  11.013 -0.0690  0.1407  0.3781
22135W        W38029   0.947  14.154  14.343  0.2237 -0.1323  0.1084
22136W        W38030  14.992   3.745  12.401  0.0540 -0.1585 -0.2278
22137W        W38031  18.643   5.026   3.785  0.1401 -0.1091 -0.3202
22138W        W38032  17.116  14.639  12.179 -0.2413 -0.1971  0.0838
22139W        W38033  18.073   9.665  14.439  0.0182 -0.1553 -0.0854
22140W        W38034  17.645  10.386   2.502  0.4011  0.2840  0.3361
22141W        W38035  17.371   5.930   5.342  0.2973  0.3058 -0.1168
22142W        W38036   1.628  16.385   4.350 -0.0471 -0.0833 -0.1091
22143W        W38037   5.504   4.378  14.759  0.2788  0.3977  0.0054
22144W        W38038  12.504  15.056  14.524 -0.6836  0.2811 -0.1544
22145W        W38039   4.234  13.559   4.644  0.1856 -0.3223  0.0274
22146W        W38040  14.089  18.326  10.471 -0.0597 -0.0601 -0.0971
22147W        W38041  12.869  15.300  14.243  0.0611  0.1989 -0.5050
22148W        W38042  15.407  13.314  11.497 -0.0375  0.1197 -0.0299
22149W        W38043   6.236  10.605  14.195  0.2799  0.0605 -0.0919
22150W        W38044   7.128  13.541   4.103  0.1723 -0.0437 -0.0270
22151W        W38045   2.622  15.783  10.965 -0.3039 -0.0653 -0.1254
22152W        W38046   2.991   3.269  14.728  0.0986 -0.3338 -0.0700
22153W        W38047  16.703  11.305   1.660 -0.0225  0.0637 -0.0105
22154W        W38048   5.065   7.807   0.814  0.3368 -0.0104 -0.3746
22155W        W38049   6.305  11.270  11.417 -0.0121 -0.0507  0.0713
22156W        W38050  18.646  19.028  11.763 -0.1024  0.2882 -0.0792
22157W        W38051  15.639  12.936   1.658 -0.3200 -0.1099  0.2421
22158W        W38052  13.862  15.701  12.283 -0.1855 -0.2617 -0.0034
22159W        W38053  10.852  16.619   2.880 -0.2224  0.4584 -0.0466
22160W        W38054   1.978  11.377  13.708 -0.4005 -0.1241  0.1060
22161W        W38055  13.331  11.962   4.741  0.0388 -0.4005 -0.0390
22162W        W38056   1.742  10.050   1.347 -0.3688  0.0338 -0.3622
22163W        W38057  18.846   1.614   1.279 -0.1419  0.0230 -0.2230
22164W        W38058  17.096  17.392   5.614  0.1457 -0.1210 -0.1365
22165W        W38059  18.539   1.509  13.799 -0.0739 -0.0089  0.1316
22166W        W38060   9.614   1.185   3.503 -0.3703 -0.0813 -0.3226
22167W        W38061  17.522  12.371   1.871  0.0330 -0.3594 -0.0207
22168W        W38062   5.613   9.090  11.065  0.1138  0.0264  0.0523
22169W        W38063   8.521  12.504  12.446 -0.0010  0.1011 -0.3064
22170W        W38064   8.395  13.156  13.422 -0.0648  0.0253  0.1076
22171W        W38065   5.967   3.416  14.170  0.0205  0.1116 -0.1574
22172W        W38066  10.175   5.449  13.543  0.1732  0.1374 -0.3395
22173W        W38067  14.250   6.901   9.611  0.0185  0.0171  0.1030
22174W        W38068   7.177   7.211   5.177 -0.0921 -0.1515 -0.0678
22175W        W38069   3.283   1.473  13.160 -0.0352 -0.0997  0.0635
22176W        W38070  17.949   8.775   5.533 -0.2173 -0.4152 -0.3205
22177W        W38071  13.768   8.485  12.521 -0.1633 -0.0813  0.1166
22178W        W38072  14.686  17.430   4.569 -0.3112  0.1920 -0.0571
22179W        W38073   6.126   5.094  13.420  0.0518  0.5016 -0.0429
22180W        W38074   0.009   0.286   2.483  0.0171 -0.0611  0.4574
22181W        W38075  17.705   8.851  11.367 -0.0907  0.1950 -0.0303
22182W        W38076  18.170   7.709   3.094  0.0951 -0.0233  0.0981
22183W        W38077  15.418   9.240   2.542 -0.2623  0.1435 -0.2612
22184W        W38078  19.119  17.252  14.043 -0.1304  0.1443  0.0723
22185W        W38079  12.490  11.287  11.522 -0.3691  0.2829  0.0722
22186W        W38080   1.856   0.529   2.750  0.0438 -0.2265  0.0895
22187W        W38081  10.865   3.411  14.637 -0.0046 -0.0663 -0.3622
22188W        W38082  14.038   1.543  13.389 -0.1887  0.0360  0.1173
22189W        W38083  14.970  11.695   0.029  0.0259 -0.0329  0.0141
22190W        W38084   8.998  17.858   5.304 -0.0505 -0.0395  0.2115
22191W        W38085  10.219  11.595  13.100 -0.3484 -0.2040 -0.0308
22192W        W38086  13.597  13.565   4.594 -0.0738  0.1824 -0.1706
22193W        W38087   8.304  15.888  11.555  0.3719  0.2345  0.0134
22194W        W38088   6.349   5.652  12.145  0.0566 -0.3308 -0.1191
22195W        W38089  14.237  17.002   1.950  0.1100 -0.1575 -0.0076
22196W        W38090  15.129   4.000  13.562  0.0708  0.2665 -0.1097
22197W        W38091  16.415  10.908   2.290  0.4156  0.1786 -0.1515
22198W        W38092   5.311  11.279   2.891 -0.0964 -0.3150  0.1094
22199W        W38093   1.409  10.335   1.121 -0.1891  0.1729  0.1989
22200W        W38094  17.198   8.667   3.827  0.2819 -0.1053  0.0211
22201W        W38095  15.603   2.079   4.737 -0.0017  0.0828 -0.2278
22202W        W38096  18.479  17.301  12.433  0.0405 -0.0289 -0.0491
22203W        W38097  12.485   0.847   1.303 -0.4275  0.0055  0.0036
22204W        W38098   7.149   3.274  10.640 -0.4342 -0.1739 -0.0658
22205W        W38099  18.683  10.033   1.415 -0.2088  0.2921 -0.0941
22206W        W38100   2.658   4.243   4.144 -0.1775  0.0656  0.2600
22207W        W38101  15.748  13.502   4.201  0.0590  0.0225  0.2698
22208W        W38102  15.638   5.770  12.976  0.1209 -0.1421 -0.1108
22209W        W38103   6.705   9.060  14.372  0.2739  0.1140  0.2017
22210W        W38104   8.780   2.801   5.061 -0.1951 -0.1939  0.0583
22211W        W38105  13.896  14.726   2.008  0.2199  0.1100  0.0326
22212W        W38106   5.457  10.245  11.173  0.0703 -0.1763 -0.0345
22213W        W38107  12.726  16.001  13.011  0.0959 -0.0051 -0.2056
22214W        W38108   5.176  13.650  10.510  0.0466 -0.2190 -0.0348
22215W        W38109   7.724   1.149   0.889  0.0134 -0.2949  0.1002
22216W        W38110   6.527  15.536  14.727 -0.0027  0.2886  0.0019
22217W        W38111  14.399  15.389  12.547 -0.3852  0.2081  0.1203
22218W        W38112   1.155   2.008   1.495 -0.1292 -0.1333 -0.1606
22219W        W38113   9.922  15.547  12.670 -0.2578 -0.1134 -0.0897
22220W        W38114   2.014   6.822   1.390 -0.0780 -0.1766  0.1116
22221W        W38115   6.838  10.720   5.441  0.0777 -0.1497 -0.2890
22222W        W38116   2.171  11.326   5.068  0.0056 -0.2231  0.1969
22223W        W38117   3.994   6.365  12.231  0.2751  0.3677  0.2252
22224W        W38118   1.210  15.792   2.359  0.1481 -0.3598  0.2504
22225W        W38119   1.063   2.985   4.103 -0.2409  0.1335 -0.2422
22226W        W38120  16.249   9.574   5.133  0.0312 -0.5005 -0.0386
22227W        W38121  11.972  15.788  14.306  0.0443  0.0374 -0.1354
22228W        W38122   8.834   8.816  13.014  0.2607  0.0167 -0.1337
22229W        W38123  14.519   9.798   1.041  0.0935 -0.6123  0.0209
22230W        W38124   1.044   4.765  13.436  0.0638 -0.1554 -0.1941
22231W        W38125  18.616   7.393   2.213 -0.1554  0.0973  0.3481
22232W        W38126  11.038  16.635  12.712  0.0690 -0.1592 -0.1768
22233W        W38127  17.741   3.832   2.870 -0.1687  0.1425  0.2784
22234W        W38128  16.821  15.019  13.275  0.2053  0.1841  0.0827
22235W        W38129   4.629   3.721  11.725 -0.1150  0.4194 -0.1977
22236W        W38130   6.560  16.604   0.988 -0.1501  0.1183 -0.1172
22237W        W38131  10.103   2.965   4.539 -0.1330 -0.0551 -0.0422
22238W        W38132   2.077  15.772   3.433 -0.2935  0.3199  0.2307
22239W        W38133   7.749   3.108  13.521 -0.1390  0.0549 -0.1957
22240W        W38134  13.391   0.519  11.686 -0.2475 -0.0473 -0.1402
22241W        W38135   3.134   1.394   5.149  0.1138  0.1740  0.0879
22242W        W38136  11.808   9.959  11.940 -0.2849  0.3077 -0.1711
22243W        W38137   8.220   8.334  13.756  0.0080 -0.0069  0.0725
22244W        W38138   3.888  17.244  11.985 -0.1834 -0.2105 -0.0152
22245W        W38139   8.750   5.041  12.857 -0.0039  0.1251 -0.2384
22246W        W38140  15.846  14.879  12.424 -0.3007  0.0864  0.1384
22247W        W38141   0.109  18.985   5.374  0.0165 -0.2027  0.0248
22248W        W38142   1.346   9.822   4.641 -0.0542 -0.1103  0.2666
22249W        W38143   1.902   7.720  14.649 -0.0618  0.2865  0.0184
22250W        W38144   6.874  11.129  15.022 -0.0579  0.1039  0.0554
22251W        W38145   9.388   2.730  10.736 -0.1578  0.0572 -0.2239
22252W        W38146  11.268  15.549   3.804  0.0309  0.1195  0.1748
22253W        W38147   5.645  14.830   3.123 -0.1122  0.0647  0.1938
22254W        W38148   2.178   8.089   9.972  0.0960  0.0023 -0.2221
22255W        W38149   9.561  17.023   2.714 -0.0048  0.0827 -0.0749
22256W        W38150  10.976   9.324   2.812  0.1363  0.0973 -0.1950
22257W        W38151   9.948  12.710   1.015  0.5264  0.1252 -0.5436
22258W        W38152   6.100   2.250   3.055 -0.2987  0.0005  0.1480
22259W        W38153  10.455   2.539   4.386 -0.1581 -0.0193 -0.1155
22260W        W38154  14.093   8.950   9.436  0.3199  0.2609  0.0967
22261W        W38155  17.698  14.936  10.696  0.3178 -0.1038 -0.1093
22262W        W38156   7.514   1.802   1.086  0.2444  0.1543 -0.1497
22263W        W38157  17.002  17.813  11.953  0.3449  0.2908  0.1582
22264W        W38158   9.758  15.297  14.880  0.1545 -0.1474 -0.0024
22265W        W38159  14.553   1.057  12.018 -0.2884 -0.1066  0.0232
22266W        W38160   1.319  13.273  14.252  0.2115  0.3524  0.0083
22267W        W38161   4.158  10.440   4.188  0.1337  0.0700  0.0765
22268W        W38162   3.612  15.239   0.061  0.1132 -0.1191  0.2173
22269W        W38163   3.986  17.639  12.792  0.0145 -0.0657 -0.0199
22270W        W38164  13.339   4.035   5.499 -0.1237 -0.0398  0.1571
22271W        W38165  15.719  18.396   4.674  0.0217 -0.1466  0.2317
22272W        W38166   6.954  16.356  14.710  0.0529  0.0829 -0.0121
22273W        W38167  10.921   1.195   4.819 -0.0532  0.2089 -0.0362
22274W        W38168   3.918  14.672  10.855  0.1623 -0.0942  0.5033
22275W        W38169   3.539  18.876  11.277 -0.0133  0.1692 -0.0301
22276W        W38170   4.997  15.828   3.120  0.0218  0.1431 -0.2363
22277W        W38171  18.927  13.258  12.783  0.0292 -0.0854  0.3850
22278W        W38172   8.428  10.883  14.088  0.1184 -0.0188  0.2655
22279W        W38173  17.400   6.859  11.433 -0.2806 -0.3172  0.1084
22280W        W38174   6.349   7.491  11.496 -0.0211 -0.1515 -0.3670
22281W        W38175   8.936  16.685   1.871  0.1769 -0.1012 -0.2126
22282W        W38176  18.400  12.895  12.895 -0.2349  0.1142  0.0205
22283W        W38177  14.812  16.290  13.149 -0.1538  0.2587  0.0102
22284W        W38178   4.058  13.649   5.455  0.0930  0.1430 -0.2201
22285W        W38179   1.260   2.888  10.755  0.0677 -0.2560 -0.0568
22286W        W38180  13.324  13.313   2.458  0.2703 -0.3718 -0.0287
22287W        W38181   2.710  13.601   2.414  0.0452 -0.1447 -0.2146
22288W        W38182   5.549  12.275  13.301 -0.0668  0.2728  0.1367
22289W        W38183   6.846  17.066   2.770 -0.0646 -0.1115 -0.2091
22290W        W38184  17.537   4.375  11.666 -0.0443  0.4068 -0.1585
22291W        W38185  15.022  17.277   2.593 -0.0491  0.1454 -0.1721
22292W        W38186   4.810  18.205   4.033  0.1457  0.0240 -0.0246
22293W        W38187   1.196   6.937  12.662  0.2431  0.1406  0.3335
22294W        W38188  14.105   9.362  13.593  0.0622  0.2273 -0.2008
22295W        W38189  11.522  10.714  13.724 -0.1317  0.2338  0.0307
22296W        W38190   1.065   1.938   4.988 -0.1074 -0.2743  0.1033
22297W        W38191   6.863   3.164  11.841  0.3069 -0.0798  0.2027
22298W        W38192   1.782   6.352  14.795 -0.1622 -0.1095  0.1423
22299W        W38193  15.700   8.817  12.039  0.1440 -0.0457 -0.3558
22300W        W38194  16.587   5.376   5.657 -0.0748 -0.0737 -0.0582
22301W        W38195   9.687  15.086  14.279  0.1352 -0.1918  0.1111
22302W        W38196  13.330  11.281   3.397 -0.1058  0.2349 -0.4366
22303W        W38197   2.218   8.229  11.764  0.3616  0.0808 -0.1211
22304W        W38198  18.806  16.004  15.178  0.0346 -0.1765 -0.2240
22305W        W38199  12.635  18.392  11.914  0.0342  0.1790 -0.2584
22306W        W38200   7.812   1.309   1.883 -0.0607  0.1582 -0.1586
22307W        W38201  12.894  16.503   1.645 -0.0997 -0.0651 -0.0984
22308W        W38202   9.164   3.740  12.961  0.3592  0.1705  0.2263
22309W        W38203  13.695   9.294  10.774 -0.2535  0.2484  0.0078
22310W        W38204   0.952  17.806   1.135 -0.2788 -0.0719  0.0225
22311W        W38205   1.057   0.848   6.050  0.2273  0.2287 -0.1351
22312W        W38206  16.177   1.093   1.533  0.0808 -0.3942 -0.2243
22313W        W38207  13.208   8.909   4.422 -0.1233  0.3437 -0.2524
22314W        W38208  14.861  10.827  13.850 -0.2011  0.1188  0.1054
22315W        W38209   9.115  18.934  14.640  0.2230  0.0229  0.5131
22316W        W38210   8.143   2.015   1.755 -0.0829 -0.5001 -0.2450
22317W        W38211  12.453  15.369   1.173 -0.2672  0.0522  0.0217
22318W        W38212   1.866  13.311   4.232  0.1611 -0.1868  0.0011
22319W        W38213   0.748  16.854   3.513  0.3197  0.0960  0.0287
22320W        W38214  10.726   7.548   4.939 -0.0768  0.0264 -0.1019
22321W        W38215   4.417   6.069  12.908  0.0241 -0.0976 -0.2038
22322W        W38216   4.179  10.687   2.727 -0.4574 -0.0886 -0.0731
22323W        W38217   0.186  15.658   0.646  0.1040  0.0952 -0.0820
22324W        W38218   7.627   5.211   3.879  0.0988 -0.1403 -0.0115
22325W        W38219   5.635  16.258   9.851 -0.1394  0.1615  0.0004
22326W        W38220   2.788  10.873  10.421  0.3219  0.1152 -0.1545
22327W        W38221   6.617   4.043   4.070 -0.2926  0.4012  0.1937
22328W        W38222  17.683   0.369  14.498 -0.1469  0.2280 -0.0729
22329W        W38223   3.771   3.136   2.327  0.4022 -0.1025  0.3005
22330W        W38224  14.743  15.561  11.247  0.0940  0.2584 -0.0820
22331W        W38225  15.800   6.401   9.897 -0.2445  0.2493 -0.0234
22332W        W38226   6.703  18.426   0.679 -0.0525  0.1419 -0.5473
22333W        W38227  13.515  13.129   3.639  0.1084 -0.1173 -0.3467
22334W        W38228  15.621  11.576  10.716 -0.1244 -0.2815 -0.0136
22335W        W38229  15.139   4.828   0.066  0.4268 -0.3140  0.0069
22336W        W38230   8.658   8.983   1.565  0.2315 -0.3369  0.0978
22337W        W38231   6.712  16.688  10.175  0.1260  0.0614  0.1787
22338W        W38232   7.490  14.358   3.700  0.0730 -0.0819  0.1202
22339W        W38233  16.393  14.765   2.900  0.2649 -0.2608  0.0415
22340W        W38234   5.255   4.904   4.409 -0.3802 -0.1135  0.1978
22341W        W38235  15.572  18.297   3.314 -0.1319 -0.0001  0.0838
22342W        W38236   1.238  10.054  13.994 -0.0774  0.1438  0.0642
22343W        W38237   1.512  12.401  10.535  0.0178  0.0236  0.3118
22344W        W38238   3.006  12.293   3.771 -0.2493  0.0989 -0.0176
22345W        W38239   7.047   4.290  11.555 -0.0478 -0.3540 -0.1871
22346W        W38240  17.039   9.368  11.493 -0.1144  0.0296  0.1395
22347W        W38241   4.709   3.424   4.792 -0.0181  0.2602 -0.2594
22348W        W38242   4.682  18.913   1.989 -0.1259 -0.0417  0.2250
22349W        W38243  12.001  15.451  10.673 -0.0887  0.3417  0.1233
22350W        W38244  12.313   5.186   6.016  0.0922 -0.4028  0.2032
22351W        W38245   1.158   1.128  10.982  0.1958  0.3775 -0.0087
22352W        W38246  12.334   8.131  10.513 -0.1155 -0.1048  0.2199
22353W        W38247   9.131   2.404   5.088 -0.3896 -0.1802  0.1969
22354W        W38248   1.621   9.218  12.478 -0.0211 -0.2817 -0.0292
22355W        W38249  14.351  17.644  11.569 -0.1016 -0.2659  0.0738
22356W        W38250  14.932  11.251  14.162  0.3089 -0.1520 -0.0621
22357W        W38251   9.674   0.577   3.471  0.0731 -0.0323 -0.2277
22358W        W38252   6.879  12.503   4.200  0.2039  0.1380 -0.1689
22359W        W38253   9.256  11.777   0.605 -0.1637 -0.2739  0.0218
22360W        W38254  14.737  17.657   0.967 -0.0351 -0.0421 -0.1222
22361W        W38255  14.629  18.124  12.240  0.0764  0.1733 -0.0304
22362W        W38256   5.085  13.169   1.376 -0.0489  0.1596  0.0533
22363W        W38257   9.445  19.024   0.481  0.2593 -0.0985  0.0158
22364W        W38258   0.508   4.096   4.132 -0.1070 -0.2925 -0.0196
22365W        W38259   0.781   6.110  10.181  0.2428 -0.3665 -0.0813
22366W        W38260  18.472   7.114  11.486  0.0018  0.1163  0.0028
22367W        W38261   3.685  11.223   3.369 -0.3279 -0.2933  0.1698
22368W        W38262   6.331  15.926  13.459  0.4946  0.2926  0.1870
22369W        W38263   4.778  10.552   1.280 -0.0874 -0.0315 -0.0685
22370W        W38264  10.063  14.161  11.180 -0.0782 -0.1843 -0.0184
22371W        W38265   8.368  14.616  15.116  0.3837 -0.0553 -0.0095
22372W        W38266  18.841  12.861  12.506  0.3242  0.1307 -0.1471
22373W        W38267  10.108   2.265   1.814  0.1133  0.0267 -0.0729
22374W        W38268  11.432  16.718   3.687  0.0169 -0.0200  0.3249
22375W        W38269   3.894  14.088   0.918 -0.1029  0.0584 -0.0081
22376W        W38270  10.612  12.920  14.395  0.3906 -0.1869  0.0757
22377W        W38271  10.588  18.852  13.717 -0.0009  0.1881 -0.0550
22378W        W38272   7.575  14.155  12.272 -0.0612 -0.3316 -0.1517
22379W        W38273   6.732   0.460  10.250  0.4130 -0.0765  0.1724
22380W        W38274   6.624  10.128   3.640  0.1046  0.3657 -0.0720
22381W        W38275  17.519   3.631   0.937 -0.0657 -0.1435  0.1565
22382W        W38276   7.573  17.136   0.224  0.1877 -0.0053  0.0288
22383W        W38277   8.024   6.084   1.705 -0.1634  0.0692  0.0951
22384W        W38278  14.199  18.176   2.653 -0.0445 -0.0017 -0.0297
22385W        W38279  18.354  15.755   0.472 -0.2067 -0.0045  0.3576
22386W        W38280   1.054  10.261  13.091 -0.3623  0.1865 -0.0059
22387W        W38281   4.604  11.676   4.720  0.1925  0.1867  0.3835
22388W        W38282   3.626  10.087   4.245 -0.1082 -0.0090  0.3976
22389W        W38283  15.011   8.540   3.182  0.0148 -0.1272  0.2846
22390W        W38284   5.372  11.742   5.313 -0.0213 -0.0837 -0.0701
22391W        W38285   6.226   7.095  11.260 -0.0359 -0.0067 -0.0313
22392W        W38286  19.077   0.368   1.391 -0.0346  0.1440 -0.0167
22393W        W38287  13.076  10.876  10.801  0.1614 -0.1112 -0.2827
22394W        W38288   4.869   3.895  12.896  0.1369 -0.2323 -0.0756
22395W        W38289   8.073   8.021  14.332  0.1632 -0.3123  0.0412
22396W        W38290   1.811   8.538  14.355 -0.0543  0.0130 -0.3244
22397W        W38291  17.754  19.141  13.450 -0.1352 -0.1967  0.5505
22398W        W38292  15.599  10.332   3.375 -0.0666  0.0347 -0.2281
22399W        W38293   6.993  10.529  11.904  0.1908 -0.0743 -0.1739
22400W        W38294   5.375   0.656  12.500 -0.1137 -0.3375  0.2405
22401W        W38295   7.973   6.271  12.862 -0.1375 -0.0316 -0.3927
22402W        W38296   6.047  10.454  12.163  0.2885 -0.2174 -0.2661
22403W        W38297   2.070   5.851   3.334 -0.0168  0.1372 -0.2334
22404W        W38298   8.347  10.547   4.732  0.2170  0.1367  0.1213
22405W        W38299   2.505  10.549   1.339 -0.1138  0.0400 -0.1501
22406W        W38300   9.365   7.412   2.866  0.1480 -0.1736  0.0884
22407W        W38301   5.723   6.855   1.153 -0.2353  0.1013 -0.1650
22408W        W38302  11.745  17.593   2.140  0.1289  0.1518  0.2674
22409W        W38303   3.013  15.281   1.888 -0.1806  0.0831  0.3750
22410W        W38304   5.463  13.771   3.796 -0.1839  0.2132  0.3446
22411W        W38305   7.928   4.238   0.404 -0.2646 -0.1125 -0.1649
22412W        W38306  11.306   3.639  12.523 -0.2744  0.0038 -0.1517
22413W        W38307  11.767   1.629   0.087 -0.0233  0.2186  0.0122
22414W        W38308   3.410   5.554   3.309 -0.4032  0.1262  0.3612
22415W        W38309  12.073  17.911   5.075  0.1095 -0.0145  0.1442
22416W        W38310   5.133   8.260   5.564  0.2778 -0.0857  0.4547
22417W        W38311   7.213  11.827   3.620  0.2502 -0.0516  0.1201
22418W        W38312   3.054   8.560  11.169  0.1571  0.2307  0.3680
22419W        W38313   1.329  16.299  12.039 -0.2278 -0.1277 -0.0180
22420W        W38314   1.711   0.099   2.381  0.2982 -0.0189 -0.0709
22421W        W38315  13.238  18.967   1.971 -0.0247  0.1397  0.3023
22422W        W38316  13.810  18.468   2.625  0.0323  0.1005 -0.2205
22423W        W38317   5.128   2.949   1.957  0.2548  0.0465 -0.0957
22424W        W38318  12.575  16.499  11.248 -0.1468  0.1980  0.2452
22425W        W38319  17.966  15.224  14.423 -0.0004 -0.0216  0.0931
22426W        W38320  12.382   3.681   4.157 -0.0953  0.5463 -0.0301
22427W        W38321   4.942   3.417  13.138  0.0627 -0.1050 -0.1502
22428W        W38322  11.169  11.159   4.381  0.0617  0.2699 -0.2169
22429W        W38323  18.653  11.780  15.137 -0.1545  0.1475  0.2025
22430W        W38324  12.745  12.565  12.729  0.2880  0.0565  0.0883
22431W        W38325   3.964   0.549   3.125  0.0299 -0.0932 -0.1818
22432W        W38326  11.656  13.422   0.409  0.0125  0.0902  0.1285
22433W        W38327   6.689  17.044   0.796 -0.2140 -0.0934  0.3725
22434W        W38328  16.342   6.732   4.101 -0.1073 -0.2298  0.2088
22435W        W38329   2.014   9.855   2.799  0.3699 -0.0885 -0.0264
22436W        W38330   8.958   4.771  11.034 -0.1343 -0.2355 -0.1387
22437W        W38331   9.816  14.823   1.116  0.0903 -0.0607 -0.0613
22438W        W38332  13.499   5.451  10.392  0.3878  0.0801 -0.2264
22439W        W38333   7.110   0.001   4.752 -0.1021 -0.4000  0.0171
22440W        W38334   7.984  18.132  11.928 -0.1363  0.0555  0.2789
22441W        W38335  10.974  14.092  13.971  0.2196 -0.0714 -0.1540
22442W        W38336   4.756   8.019  11.323 -0.1192  0.0104 -0.0252
22443W        W38337  14.328   9.710   2.281  0.1828  0.1852 -0.1249
22444W        W38338  14.733   6.565   2.892 -0.1675  0.1151 -0.0114
22445W        W38339   2.642   8.173  13.556  0.0313 -0.2500 -0.0418
22446W        W38340  17.386   5.536  15.047 -0.2939 -0.3317 -0.3254
22447W        W38341  16.111  12.841   1.767  0.0940 -0.0829 -0.1646
22448W        W38342   9.544  17.519  14.760  0.0875 -0.1814  0.2007
22449W        W38343  17.771  17.789  11.566 -0.2134  0.0174  0.2505
22450W        W38344   1.148   4.436  14.325  0.1383  0.0563  0.1049
22451W        W38345  12.318   6.907   5.929  0.0034 -0.0358  0.0450
22452W        W38346  12.598   9.380  11.092 -0.0241  0.3601 -0.0563
22453W        W38347  14.198  14.848   3.291 -0.3272 -0.1124 -0.2208
22454W        W38348  14.597   5.067  13.088  0.2120 -0.2976 -0.1098
22455W        W38349   8.963   6.564   2.120  0.0113 -0.0928 -0.0642
22456W        W38350   4.517  13.962   5.568 -0.2740 -0.2321  0.2022
22457W        W38351  16.409   4.396  11.905 -0.0851  0.1005 -0.2813
22458W        W38352   5.354   5.713   4.501  0.0718  0.2064 -0.1046
22459W        W38353  11.919  14.721  11.918 -0.1963  0.1307  0.1960
22460W        W38354  10.468   1.812   1.135  0.2317 -0.2160 -0.2003
22461W        W38355   0.016  17.728  11.524 -0.0892 -0.0857  0.2207
22462W        W38356   6.970   6.003   3.171  0.2516  0.0273 -0.0461
22463W        W38357  19.046  17.532   3.841 -0.0125 -0.0017 -0.1616
22464W        W38358   7.966  18.178  14.560  0.2024  0.2139  0.2627
22465W        W38359  10.213   3.694  10.700  0.2531 -0.1903 -0.1346
22466W        W38360  18.262   4.628   3.832 -0.1344  0.2057  0.3213
22467W        W38361   5.669  14.938  14.200  0.0525 -0.0716 -0.1799
22468W        W38362   6.123   5.376  10.818  0.0812  0.0750 -0.0518
22469W        W38363   4.448  10.068  13.774  0.0517  0.1302 -0.0500
22470W        W38364   3.817   5.757   2.807 -0.3250  0.2824  0.1496
22471W        W38365   3.274  11.867   2.924  0.0598  0.0367 -0.3962
22472W        W38366   3.734   7.148   5.248 -0.0014  0.0385 -0.2793
22473W        W38367   0.763  13.499  13.395  0.0916  0.0866  0.1549
22474W        W38368  12.079   1.599   5.261 -0.1193  0.2427 -0.1382
22475W        W38369   8.337  18.288  12.459 -0.0643 -0.1150  0.0589
22476W        W38370  12.275   5.391  12.376  0.1121  0.0365  0.2263
22477W        W38371  12.480  12.233  13.181 -0.0278 -0.0741  0.4686
22478W        W38372  11.102   0.797  13.002 -0.1966 -0.0896 -0.0571
22479W        W38373   9.460   5.565   4.846 -0.0946 -0.0946  0.2207
22480W        W38374  19.067   8.921   0.826  0.0535 -0.0854  0.0606
22481W        W38375  17.933  14.535  12.218  0.2615 -0.2779 -0.1618
22482W        W38376   9.877  14.847   0.023  0.1094  0.2145  0.0555
22483W        W38377   5.191   5.763   5.026  0.1426  0.2099  0.2792
22484W        W38378  17.161   3.962   5.231  0.3385 -0.0828 -0.0625
22485W        W38379   9.954   2.117  13.314  0.0238  0.1230 -0.3332
22486W        W38380   1.172  16.904  13.800  0.0949  0.0885  0.1392
22487W        W38381   7.606   8.461   0.988  0.0030  0.0799 -0.0166
22488W        W38382   4.862  16.370   0.812 -0.1914  0.1815 -0.1912
22489W        W38383  18.384   6.776   3.368  0.1806 -0.2831 -0.2303
22490W        W38384  15.151  17.142   5.589 -0.1544 -0.0101 -0.2800
22491W        W38385   1.066  18.031  14.408 -0.0306 -0.0127 -0.3836
22492W        W38386   2.720   1.930   1.542  0.2108 -0.0008  0.1296
22493W        W38387  14.527  17.449   3.287 -0.2868  0.2139 -0.0078
22494W        W38388   0.927  10.620  11.524 -0.0325  0.2469  0.1454
22495W        W38389  12.875   1.155  12.340  0.2903  0.6619  0.0447
22496W        W38390   9.332   8.449   3.944  0.1834 -0.1515  0.4093
22497W        W38391  17.069   8.582  14.188 -0.3196 -0.2468 -0.1522
22498W        W38392   4.364  11.252   0.842 -0.0998  0.1157  0.0343
22499W        W38393  16.849  11.541  14.708  0.0258 -0.1952  0.2019
22500W        W38394  13.665  10.066  10.097 -0.5005 -0.0203 -0.2691
22501W        W38395  12.951   3.288  14.291 -0.0204  0.1921 -0.2270
22502W        W38396   5.188  10.894   1.203  0.1709  0.3656  0.1671
22503W        W38397   0.357   1.970   5.626 -0.1452  0.0960  0.0293
22504W        W38398   8.871  10.217   2.188  0.2894 -0.0293 -0.2542
22505W        W38399   8.094  18.283  10.351 -0.2314 -0.1374  0.2030
22506W        W38400  16.479   6.235   4.007 -0.2026 -0.2141 -0.1160
22507W        W38401   2.402  16.025  12.172 -0.1045 -0.1314  0.1367
22508W        W38402   2.512   8.392   9.947  0.1029 -0.0615  0.0107
22509W        W38403  13.897  17.281   0.255 -0.2404 -0.1917 -0.2203
22510W        W38404   3.824  10.362  10.663  0.0291  0.3376 -0.2264
22511W        W38405   2.233  13.631   1.967 -0.2175  0.0640  0.0611
22512W        W38406  17.318  12.771  10.964  0.0301 -0.0386  0.1078
22513W        W38407   3.035   7.198  13.187 -0.0167  0.0963  0.1339
22514W        W38408  18.594   5.108  14.490 -0.1342 -0.1043 -0.3112
22515W        W38409   6.545  15.795   1.296  0.0170  0.2386  0.1193
22516W        W38410  16.550  15.397   2.813  0.1468 -0.0518  0.2578
22517W        W38411   9.774   4.086   3.823 -0.0270 -0.0234 -0.0393
22518W        W38412   7.473   8.054  12.697 -0.0577 -0.3292 -0.2343
22519W        W38413  15.760  16.005  14.347  0.2078  0.2550 -0.0799
22520W        W38414   9.398  12.565  12.688 -0.2282 -0.1942 -0.2186
22521W        W38415  14.022  11.427   5.003  0.0450  0.0467 -0.1355
22522W        W38416  15.592  10.839   3.432 -0.1779  0.1559 -0.0951
22523W        W38417  11.626   1.656   3.016  0.1164 -0.2491  0.0901
22524W        W38418  16.122   3.578   3.485  0.2021 -0.0680  0.0084
22525W        W38419   2.442   7.834   5.461 -0.1791 -0.3057 -0.1042
22526W        W38420   8.260   7.822   3.967  0.1202  0.1146 -0.4970
22527W        W38421  11.140   1.001   2.928  0.1499 -0.0139 -0.1756
22528W        W38422   5.420  14.150  12.125  0.4159  0.0302  0.3051
22529W        W38423   9.667  18.065   2.836  0.0050 -0.1573  0.0236
22530W        W38424   0.296  14.607  14.063  0.0937 -0.1288 -0.3515
22531W        W38425  13.847  14.508   1.445 -0.0740 -0.0870 -0.1142
22532W        W38426   1.470   9.747  10.759  0.0064 -0.0452 -0.2041
22533W        W38427   3.162   7.946   2.049 -0.1734  0.2319 -0.0878
22534W        W38428  13.518  10.967  11.140  0.3120 -0.0171 -0.0589
22535W        W38429   7.461   7.212   1.470 -0.0897 -0.1144 -0.2459
22536W        W38430   3.608   9.401  10.475 -0.1710  0.1261  0.1875
22537W        W38431  18.850   5.409   1.226  0.1910 -0.1020  0.1924
22538W        W38432  12.202  10.764  14.725  0.2909 -0.4128  0.1857
22539W        W38433  13.307   9.421  11.113  0.2809 -0.1928  0.2012
22540W        W38434  18.121   0.040  11.358 -0.0732 -0.1746  0.1231
22541W        W38435  12.759  10.239   1.852 -0.0570 -0.3975  0.1207
22542W        W38436   3.380  11.229   5.137  0.2362 -0.2240 -0.0924
22543W        W38437   0.263  15.409  14.759 -0.4234 -0.0942 -0.0221
22544W        W38438   9.445   3.309  10.634  0.1894 -0.0057 -0.0695
22545W        W38439  13.425   4.624  14.950  0.1100  0.0219 -0.3884
22546W        W38440   4.616  19.152  14.652  0.0668  0.1348 -0.1709
22547W        W38441   7.547   6.936   3.407  0.2797  0.1331 -0.0623
22548W        W38442  18.384  17.299  13.331  0.0968  0.0562 -0.3046
22549W        W38443  15.699  17.571   4.818  0.0630 -0.0262 -0.0636
22550W        W38444   8.246   3.031  10.819  0.0972 -0.3828 -0.2977
22551W        W38445  15.079   3.817  14.815 -0.3443  0.1439 -0.0450
22552W        W38446  12.770   6.726   4.127 -0.1424  0.4232 -0.0291
22553W        W38447  13.266  13.074   4.515 -0.3813 -0.0695 -0.0583
22554W        W38448  17.654  12.939   3.454 -0.1064 -0.1464  0.0173
22555W        W38449   9.631   9.580   2.430 -0.0573 -0.1982 -0.3578
22556W        W38450   4.617   5.940   0.602  0.0048  0.1010 -0.1894
22557W        W38451  11.421  10.565  15.074 -0.1299  0.0849 -0.1363
22558W        W38452  16.219  17.346  12.586 -0.0781 -0.2455 -0.2604
22559W        W38453  17.581   3.173   3.453 -0.2613  0.2052  0.0087
22560W        W38454  15.599  11.986  13.261 -0.0638  0.4455  0.0808
22561W        W38455   2.626   3.394   2.876  0.4648 -0.0882  0.1825
22562W        W38456   6.172  12.121  14.371  0.1950 -0.2178 -0.3063
22563W        W38457   7.833  15.953  11.539 -0.3533  0.1419 -0.0263
22564W        W38458   5.183  18.128  14.994 -0.1374 -0.2357 -0.0538
22565W        W38459  12.564   8.028   1.657 -0.1030 -0.0372 -0.0742
22566W        W38460   1.824   4.535  12.602  0.4263 -0.3980  0.0054
22567W        W38461  11.216   0.735   1.835  0.0852 -0.1234 -0.1220
22568W        W38462  13.199  12.173  13.646  0.1772  0.0855 -0.1530
22569W        W38463   4.710   2.637  13.452  0.1588 -0.1819 -0.0742
22570W        W38464  14.659   8.407   0.204 -0.1532  0.0623  0.2936
22571W        W38465  17.378   6.136   0.827  0.2818  0.0444 -0.1853
22572W        W38466  16.757   0.338   1.708 -0.1075 -0.2430  0.0617
22573W        W38467   5.436  17.543   3.216  0.3428 -0.0791  0.0925
22574W        W38468  18.187  18.223   5.043 -0.0861 -0.1494  0.4950
22575W        W38469   2.978   2.775  12.552  0.3683 -0.2045 -0.0278
22576W        W38470   8.987   4.762  14.004 -0.0042 -0.0134 -0.1324
22577W        W38471  13.985   1.447   2.420  0.0106  0.2714 -0.0476
22578W        W38472  15.437   9.193  13.585  0.0917 -0.2384  0.1217
22579W        W38473  16.898   4.053   3.481 -0.0436  0.0050 -0.1195
22580W        W38474  10.357  11.179   4.385 -0.0485 -0.1979  0.1740
22581W        W38475  15.380   7.036  12.422  0.0086  0.0438 -0.0580
22582W        W38476  11.631  12.584  12.870 -0.1179  0.1842  0.1375
22583W        W38477   4.378   9.539   1.614  0.1477 -0.0510 -0.0959
22584W        W38478   7.685   8.537   9.796  0.2730 -0.2356  0.0432
22585W        W38479  11.221   7.579   1.822  0.0850 -0.2074  0.0726
22586W        W38480   8.902  16.544   3.959 -0.0103 -0.3719  0.0186
22587W        W38481   6.786   6.175  11.984  0.0476  0.0945 -0.0989
22588W        W38482   3.187   8.478   1.242  0.0606  0.3210  0.0744
22589W        W38483   6.716  12.258  14.640 -0.0165 -0.1968  0.3296
22590W        W38484   2.591   0.649   5.033  0.0931 -0.1674  0.0083
22591W        W38485   1.411   3.214   2.340  0.1583 -0.1455  0.1230
22592W        W38486  10.177  10.748   0.719  0.1121 -0.2559  0.0236
22593W        W38487  17.983  10.373  14.602 -0.1911  0.1058 -0.0507
22594W        W38488  11.372  12.838   3.218 -0.1584  0.0158 -0.0098
22595W        W38489  12.176  13.460   3.952  0.3655  0.1509 -0.1712
22596W        W38490   9.998  12.317  14.800 -0.3163 -0.2241  0.0530
22597W        W38491  19.089   7.237   3.916 -0.3524 -0.1833 -0.1423
22598W        W38492  16.971   7.091   5.319 -0.2341  0.0346  0.2639
22599W        W38493  18.837   8.274  12.807 -0.0274 -0.2604  0.1371
22600W        W38494   3.681   7.567  12.012 -0.0537  0.1727  0.1370
22601W        W38495  14.979   4.970   0.976 -0.1394 -0.3266  0.4887
22602W        W38496  16.675  16.180   0.634  0.0949  0.3502 -0.1368
22603W        W38497  12.416  16.685   2.886  0.1943 -0.0052  0.2296
22604W        W38498  15.959  14.295   5.292 -0.1001 -0.2026  0.0239
22605W        W38499  11.773  15.622  12.836 -0.1261  0.2208  0.2328
22606W        W38500   1.611   6.545  13.721 -0.0375 -0.0169  0.0519
22607W        W38501  16.293   7.175   4.423  0.0163 -0.0768  0.0885
22608W        W38502  10.991  18.032   1.278 -0.0586 -0.3880  0.0744
22609W        W38503  15.786   3.217   4.219 -0.0080 -0.1675 -0.0047
22610W        W38504   1.459   4.338   4.479  0.0269  0.1320  0.1779
22611W        W38505   3.378  15.209   3.218 -0.1257  0.1151  0.1919
22612W        W38506  17.763  11.866  14.601 -0.0092  0.1982  0.1323
22613W        W38507   0.919  11.521   9.903  0.2800 -0.0130  0.1639
22614W        W38508  15.991  10.098  13.504  0.0384  0.2120  0.1497
22615W        W38509  18.071  15.762   3.975  0.1281 -0.2579 -0.0683
22616W        W38510  15.818   9.563   5.893  0.3371  0.0418  0.0347
22617W        W38511  11.142  17.534  14.863 -0.0494  0.2272  0.1696
22618W        W38512   9.705   7.909  14.353  0.0216  0.0495 -0.0384
22619W        W38513  15.261   2.216   3.138  0.3202  0.0956 -0.2161
22620W        W38514  11.511  17.234  10.846  0.0237  0.1098  0.0027
22621W        W38515  13.195  10.049  12.224  0.1482  0.0216 -0.0620
22622W        W38516   0.505   2.363   4.894 -0.1555 -0.2684  0.4236
22623W        W38517  15.023   0.731  14.342 -0.1756  0.0184 -0.0420
22624W        W38518  17.381   7.031  13.516  0.1669 -0.1402  0.4521
22625W        W38519  17.104   7.739  13.821  0.0002  0.0356  0.1918
22626W        W38520  14.207   3.985  10.761 -0.1556  0.1574  0.1727
22627W        W38521  11.046   4.105   4.545 -0.2955 -0.2028 -0.2931
22628W        W38522  11.282   6.594  14.894  0.4295 -0.1891  0.1092
22629W        W38523  16.680  11.279   2.197 -0.2100 -0.3150 -0.3211
22630W        W38524   5.426   8.158  12.327  0.1492 -0.0111 -0.2700
22631W        W38525   4.231   3.836  14.118 -0.0273 -0.0667 -0.0452
22632W        W38526  18.132   5.677   0.953  0.1288 -0.0182 -0.1467
22633W        W38527   6.375   3.519  13.866 -0.2266  0.2299 -0.2442
22634W        W38528  13.796  16.445   9.918  0.3853  0.0676  0.3208
22635W        W38529  13.685   7.089   3.597  0.1050  0.0189  0.0695
22636W        W38530  16.208   1.024  13.514  0.2970 -0.0642  0.5351
22637W        W38531   1.106  12.844   1.766 -0.0969 -0.0460  0.1051
22638W        W38532  15.759   3.532   1.244  0.2892  0.3393 -0.1233
22639W        W38533  14.107  10.889   4.292  0.1364  0.0872 -0.0718
22640W        W38534  13.453   6.605   1.648  0.0358 -0.2094  0.0593
22641W        W38535  13.719  11.963  14.847 -0.1597  0.0900 -0.2878
22642W        W38536   1.346   3.363  12.426  0.1090  0.2662 -0.3559
22643W        W38537  17.659  12.803   2.914 -0.1181 -0.0404  0.2304
22644W        W38538  10.630   2.257   3.461  0.3282  0.0780 -0.0183
22645W        W38539  11.905  13.078  11.135  0.1760 -0.0366  0.2193
22646W        W38540  15.699  18.514   3.756 -0.2233 -0.1409  0.0381
22647W        W38541  15.572   7.770  13.113  0.2437 -0.1037 -0.2484
22648W        W38542   9.725   1.589  14.921  0.3502 -0.0230 -0.0295
22649W        W38543   5.337   4.696  13.793 -0.2837 -0.0759  0.0160
22650W        W38544  13.036  18.802  11.776 -0.3629 -0.0914  0.0331
22651W        W38545  17.336   4.512   1.504 -0.2424 -0.2954 -0.0723
22652W        W38546   8.150  18.762   0.766  0.1525 -0.5501  0.2697
22653W        W38547   5.155  12.194  11.050 -0.2112 -0.0865  0.0451
22654W        W38548  14.485  13.610   3.619  0.1561  0.0160 -0.0270
22655W        W38549   1.439  13.742   0.448 -0.0400 -0.0513 -0.1182
22656W        W38550  14.809  11.363  12.933 -0.0060 -0.0831  0.0201
22657W        W38551  16.959  10.301   3.353 -0.0165 -0.0400 -0.1701
22658W        W38552  14.768  13.781  11.556  0.0921  0.0422  0.2227
22659W        W38553   8.191   0.259  14.852  0.0376 -0.2061  0.3463
22660W        W38554  15.735  13.003   3.043 -0.3820 -0.2424 -0.0329
22661W        W38555  13.017  15.207  10.433  0.3185  0.1524  0.1174
22662W        W38556  12.645   2.607  11.284 -0.1081 -0.0156  0.2093
22663W        W38557   1.752  13.571  12.170  0.2297  0.2010  0.3657
22664W        W38558   1.063   9.572   0.080 -0.1402  0.0928  0.2851
22665W        W38559  12.863   2.336   4.434  0.2104  0.2004 -0.1058
22666W        W38560  18.584   4.161   4.937 -0.1339  0.2099  0.2654
22667W        W38561   2.208  15.940   2.841 -0.0438  0.3460 -0.0305
22668W        W38562  14.227   1.889  10.649  0.4102  0.2024  0.1794
22669W        W38563  12.471   2.460   1.749  0.1830  0.1292 -0.1657
22670W        W38564   4.494  13.420   5.395 -0.1078  0.4287  0.1266
22671W        W38565   1.872   7.312   4.225 -0.2915 -0.1205 -0.1321
22672W        W38566  17.170   5.520  13.025  0.3238  0.0282 -0.0320
22673W        W38567  16.539  10.241   3.668  0.2128 -0.1786 -0.1928
22674W        W38568   1.325  10.458  14.926  0.1485  0.0615  0.1088
22675W        W38569   1.125   8.356  14.793  0.1337  0.1108  0.1263
22676W        W38570   3.764   8.834   3.967 -0.3192 -0.0906 -0.2559
22677W        W38571   3.037   6.812   3.909  0.4133  0.1384 -0.1812
22678W        W38572   9.450   0.845   0.196  0.0793 -0.3091  0.0834
22679W        W38573   9.136   3.605   2.550 -0.1313 -0.0626  0.1083
22680W        W38574   2.955   3.187  11.067  0.1697  0.3073  0.2151
22681W        W38575  12.972   7.243   3.155 -0.3105  0.2457  0.1239
22682W        W38576  17.157  18.406   1.585 -0.3145  0.0746 -0.0925
22683W        W38577   1.006   0.431   0.795  0.0309  0.0848 -0.0091
22684W        W38578   2.649  12.174   2.431  0.2737  0.1536 -0.0359
22685W        W38579  11.064   0.428  14.579  0.1437  0.0274 -0.0919
22686W        W38580   9.623   1.749   0.236  0.0967 -0.0514 -0.0365
22687W        W38581  12.693   9.805  10.813 -0.0977  0.1899  0.1296
22688W        W38582  10.735  17.895  14.637 -0.2220 -0.4048  0.0680
22689W        W38583  12.792  15.396  12.792  0.2238  0.1491 -0.3490
22690W        W38584  16.715  10.379   0.015  0.0244  0.2063 -0.0942
22691W        W38585  13.519  18.923   1.458  0.0541 -0.0172 -0.2349
22692W        W38586   7.667  15.491  10.400 -0.2025 -0.2830 -0.1321
22693W        W38587   6.409  18.353   9.263  0.0710 -0.2161  0.0298
22694W        W38588   6.919   4.338  12.310  0.2515 -0.4438 -0.2148
22695W        W38589   3.236   1.325  14.730 -0.0987 -0.0233  0.1974
22696W        W38590  11.533  11.880  14.864 -0.1423  0.0072  0.2054
22697W        W38591  13.568   6.928  11.741 -0.1208 -0.0136  0.0412
22698W        W38592   8.548   4.020   1.370 -0.1093  0.1576 -0.0639
22699W        W38593  16.780   3.519   0.069 -0.2204 -0.2048  0.1061
22700W        W38594   8.508   1.956   3.095 -0.1295  0.3075  0.1296
22701W        W38595  19.025  12.785   4.434 -0.2684 -0.1316  0.0392
22702W        W38596  14.368   2.500  13.195 -0.2076 -0.5358  0.4214
22703W        W38597  10.245   1.683   4.407  0.0552  0.0752  0.1339
22704W        W38598   9.571  17.410   4.839 -0.1068 -0.1665  0.0484
22705W        W38599  14.179   5.512  11.363  0.3675 -0.0087 -0.1368
22706W        W38600  12.508   3.575   2.419  0.0536  0.0558  0.0765
22707W        W38601  10.869  13.793   1.418 -0.1422  0.0179 -0.2460
22708W        W38602  11.883  17.054  11.582 -0.0476  0.0361 -0.3102
22709W        W38603  14.461   9.787   3.405  0.1716 -0.0037 -0.0258
22710W        W38604   2.164  17.620   4.609  0.2901 -0.0955  0.1247
22711W        W38605   9.984   6.244   2.584 -0.1386  0.2485 -0.1244
22712W        W38606  15.378  15.030   1.649 -0.2481 -0.7612 -0.1664
22713W        W38607  13.569  17.835  13.730 -0.1410 -0.0675 -0.1636
22714W        W38608  15.099  11.023  13.298  0.1393 -0.0182 -0.0054
22715W        W38609  13.220  11.597   4.276  0.1881 -0.1335 -0.0061
22716W        W38610  13.980  10.786  11.270  0.0849  0.1822 -0.2928
22717W        W38611  10.475  15.873  11.517 -0.1762  0.2125 -0.0636
22718W        W38612  10.580   0.566   1.205  0.1086  0.4074  0.1283
22719W        W38613  17.185  17.131  15.152  0.0408 -0.1189  0.1158
22720W        W38614   7.590  12.472   4.197  0.1789 -0.1013 -0.0495
22721W        W38615   2.976   7.720   0.266  0.4662  0.2595  0.2785
22722W        W38616   1.758   7.958   0.898 -0.0781 -0.0960  0.0828
22723W        W38617   6.002  18.690  11.171  0.1880  0.0890  0.0482
22724W        W38618   6.142   6.879  15.157  0.0047 -0.1277  0.0683
22725W        W38619  12.948   2.610   2.355 -0.2496 -0.1105 -0.1659
22726W        W38620   6.280  14.571   2.843  0.0205  0.4579  0.1040
22727W        W38621   8.345   9.930  13.400 -0.5913 -0.1359 -0.2084
22728W        W38622   0.425  17.116  11.020 -0.0454 -0.1050 -0.0017
22729W        W38623   1.702  11.953  12.744  0.0718  0.2088  0.0160
22730W        W38624   1.997   9.581  10.559  0.1297 -0.4785  0.1548
22731W        W38625  12.920  16.919  11.786  0.1155  0.1246 -0.0068
22732W        W38626  15.842  15.726   3.722 -0.0901  0.1415 -0.0057
22733W        W38627   3.286   0.968  11.517 -0.0152  0.1105 -0.0737
22734W        W38628   8.907  17.189   4.474  0.1413  0.2463  0.1862
22735W        W38629   6.023  13.002  12.184 -0.0897 -0.3723 -0.1201
22736W        W38630  19.054   5.139   2.563 -0.0667 -0.6237 -0.2448
22737W        W38631   8.589  10.382  14.764 -0.0925  0.0151 -0.0415
22738W        W38632   1.415  11.304   5.252 -0.0900 -0.2175  0.0511
22739W        W38633  13.805  11.250   3.735 -0.3109 -0.2283  0.4923
22740W        W38634   2.034   3.041  14.576 -0.0654 -0.4145 -0.0478
22741W        W38635   6.441   5.204  10.485 -0.3181 -0.1452  0.3897
22742W        W38636   6.844  17.221  12.113  0.1189  0.0310  0.0804
22743W        W38637   2.893  10.390   3.792  0.1230  0.1986  0.0393
22744W        W38638   5.228  15.840   5.132 -0.0455  0.1674  0.3084
22745W        W38639  11.298   5.842   3.465 -0.1813  0.0801 -0.1530
22746W        W38640   0.270  11.466   3.322  0.0163 -0.1602 -0.1737
22747W        W38641  11.833   3.867   3.349  0.2030  0.1819 -0.1123
22748W        W38642   6.865   3.784   2.584 -0.2273  0.2617 -0.1368
22749W        W38643   7.996  18.691  11.243  0.2182 -0.0369 -0.1401
22750W        W38644  17.661  15.081   4.313 -0.0541  0.0359  0.0762
22751W        W38645   3.263  15.109  14.820  0.4478 -0.0224  0.2571
22752W        W38646  11.668  18.373  14.394  0.1050 -0.1227  0.0878
22753W        W38647   8.879   3.056   4.381 -0.1588 -0.1293 -0.2061
22754W        W38648   4.021   0.037  11.150 -0.3861 -0.2562 -0.1488
22755W        W38649  12.537   0.785   5.006  0.0835 -0.0224 -0.1240
22756W        W38650   6.725   4.779   0.071  0.1953 -0.0871  0.1560
22757W        W38651  18.363  10.946  11.840 -0.3938  0.1776 -0.1143
22758W        W38652  13.660  12.751  10.524 -0.1159 -0.1180 -0.4178
22759W        W38653  11.032  14.556   0.445  0.0529 -0.1965 -0.3555
22760W        W38654  17.406   9.501  10.718  0.1464  0.2920  0.0534
22761W        W38655   5.105   0.595  12.043  0.0982  0.2969 -0.1567
22762W        W38656   1.894   0.732   2.018  0.2489 -0.1263  0.2486
22763W        W38657  16.902   3.429  10.723 -0.0086 -0.1384  0.1062
22764W        W38658   2.987   3.630  12.140  0.2431  0.4091 -0.2930
22765W        W38659  10.372   7.212  12.752  0.0376  0.2022 -0.0866
22766W        W38660  12.135  15.272   1.843 -0.3072  0.4615 -0.1745
22767W        W38661   5.884  13.696   1.007  0.1592 -0.1827 -0.0765
22768W        W38662   0.018   5.027  10.793 -0.2477 -0.1824 -0.1606
22769W        W38663   2.858  18.861   2.126  0.0770  0.1289  0.2286
22770W        W38664  12.339   5.226  10.566  0.0467 -0.2323 -0.4678
22771W        W38665  11.989  10.684  11.445  0.0531  0.3280 -0.2981
22772W        W38666   8.614   3.224  14.291  0.1585  0.2015  0.1343
22773W        W38667   8.279   1.722  10.827 -0.0978 -0.4042 -0.1550
22774W        W38668   8.082   5.220   4.566  0.0013 -0.0547 -0.0114
22775W        W38669  14.296  12.581   0.067 -0.1886  0.1214  0.1649
22776W        W38670   5.486  14.346  13.093 -0.1182 -0.1859  0.0568
22777W        W38671   9.964  15.111  13.398 -0.2320  0.0560 -0.2247
22778W        W38672   6.201   1.134  12.605  0.2502  0.3000  0.1302
22779W        W38673   6.294   3.671   4.075 -0.1161  0.0744 -0.1121
22780W        W38674   0.175   7.196   1.467 -0.1377 -0.2889 -0.0260
22781W        W38675   6.184  12.767   1.909  0.1367 -0.0559 -0.1731
22782W        W38676   3.688   5.105  10.853 -0.0107  0.1963  0.1690
22783W        W38677  12.443   0.155  14.122  0.2559 -0.0979  0.1083
22784W        W38678   2.417   8.992   1.204  0.2390 -0.1826 -0.0711
22785W        W38679   6.371  12.384   1.652 -0.1882 -0.0901  0.1758
22786W        W38680  17.101   9.882   3.644  0.0134 -0.1187 -0.1528
22787W        W38681   0.249  15.333   4.771  0.0967  0.0251 -0.1171
22788W        W38682   4.987   2.004   3.590  0.1272 -0.2856  0.0788
22789W        W38683  14.620  19.128  13.552  0.4137 -0.2684 -0.0525
22790W        W38684  14.700  10.943   1.054  0.0133  0.0574  0.0422
22791W        W38685  17.629   4.811  14.755  0.1065 -0.4159 -0.0592
22792W        W38686  16.959  18.277  11.520 -0.1202 -0.0303 -0.3839
22793W        W38687  18.582  11.161  14.612  0.0999 -0.0368  0.0126
22794W        W38688   9.362  16.902  13.351  0.3738  0.3310 -0.1482
22795W        W38689   5.784   9.562  13.101 -0.1189  0.1241  0.0943
22796W        W38690   6.042   8.398  11.397  0.1834  0.2236  0.2943
22797W        W38691  16.355  16.667   2.285 -0.2503 -0.0170  0.0574
22798W        W38692   9.622   6.413  14.947  0.1995  0.3841 -0.0627
22799W        W38693   0.703  17.529  11.180  0.0118 -0.1036  0.1271
22800W        W38694   3.247  17.090   0.942  0.1284  0.0342 -0.1771
22801W        W38695   3.392   8.751  12.529  0.3160 -0.0537  0.2617
22802W        W38696   7.038  11.498  12.758 -0.2372 -0.3097  0.1045
22803W        W38697   3.397   6.039  14.986  0.0658 -0.3574 -0.2335
22804W        W38698   4.943  10.876   5.928 -0.0047 -0.2585 -0.0955
22805W        W38699  11.528  16.948  10.394 -0.0892  0.2832 -0.2286
22806W        W38700  11.418   7.320  11.919 -0.1628  0.0465  0.1384
22807W        W38701  15.551  10.152  12.658  0.2114  0.2791 -0.0023
22808W        W38702   6.537  15.727   4.772  0.2657 -0.2853  0.0373
22809W        W38703   2.166   8.947   2.628  0.0069  0.3998  0.3997
22810W        W38704  18.301   7.970  12.629  0.0412 -0.3996  0.1790
22811W        W38705  11.471  17.019  15.069  0.0968  0.1899 -0.2148
22812W        W38706  14.783  17.594  11.776  0.0703 -0.0784  0.1264
22813W        W38707   3.038  16.370   0.619  0.0547  0.0318 -0.1265
22814W        W38708   8.439   9.769   1.226 -0.0270  0.1750 -0.2886
22815W        W38709  10.775   6.676   2.037 -0.0103 -0.3389 -0.0956
22816W        W38710  10.939  12.211  13.500  0.1309 -0.2021  0.0144
22817W        W38711  16.852  17.034   5.166  0.1570 -0.4194 -0.0888
22818W        W38712  15.538  11.244  10.405  0.1278 -0.0698  0.1214
22819W        W38713   7.900  10.856   2.738  0.2270 -0.2272  0.0911
22820W        W38714  17.245   4.940   3.281  0.4003  0.2044 -0.0540
22821W        W38715  12.753  14.399  14.180 -0.0424 -0.2718  0.1331
22822W        W38716   2.500  10.708   5.405 -0.0426 -0.1186  0.3401
22823W        W38717  16.445  12.534  11.440 -0.1553  0.0844 -0.1316
22824W        W38718  14.502   5.785  13.219 -0.0351 -0.1341 -0.3165
22825W        W38719  12.954  12.291   3.531 -0.3473  0.1560 -0.1864
22826W        W38720  13.592   4.260  11.991  0.1454 -0.0359  0.3020
22827W        W38721  17.347   1.554   3.928  0.2743  0.0450 -0.2273
22828W        W38722  13.074   7.267  10.406  0.1944  0.0053 -0.1565
22829W        W38723  11.554  18.687   1.929 -0.1180  0.0352 -0.0287
22830W        W38724  10.310  10.512  11.807  0.0037 -0.0710 -0.1275
22831W        W38725  11.161   3.783   4.214 -0.0413  0.3241  0.1446
22832W        W38726   7.570   0.760   4.175 -0.0416  0.3280  0.1614
22833W        W38727  19.064  10.148   3.550  0.0056  0.0128 -0.1250
22834W        W38728  13.298  17.956  12.262 -0.1341 -0.2549 -0.0936
22835W        W38729  16.633  15.957  15.150  0.1947 -0.1398  0.1546
22836W        W38730   5.419  18.412   0.236  0.1949  0.0082  0.1258
22837W        W38731  14.955   7.268  13.927  0.3421 -0.2421  0.1534
22838W        W38732  16.284  15.506   3.306 -0.2040 -0.2863 -0.0391
22839W        W38733   8.604   5.128   0.070 -0.1213  0.1179 -0.1262
22840W        W38734   5.946  11.845   0.917  0.3219  0.0766 -0.4510
22841W        W38735   8.374  18.738   1.212  0.1364  0.2325  0.2487
22842W        W38736  15.754   5.792   2.006  0.0153 -0.0538 -0.1048
22843W        W38737  15.097   2.785   2.997 -0.0042 -0.1146 -0.2634
22844W        W38738  19.150  18.869   4.914  0.2330  0.1744 -0.1368
22845W        W38739   5.116   5.264   1.253 -0.2924 -0.1139  0.2081
22846W        W38740   0.854  13.952  14.831  0.0413  0.2711 -0.0323
22847W        W38741   7.190  13.204  11.893  0.1178 -0.0696  0.2514
22848W        W38742  16.458   1.318   1.926 -0.0353  0.2000 -0.0296
22849W        W38743   6.360  10.128  13.869 -0.0426 -0.0781  0.0180
22850W        W38744   9.055   7.146  14.189  0.2808 -0.1943  0.1904
22851W        W38745   2.784   6.409  10.998 -0.3232  0.1359 -0.0766
22852W        W38746   4.644   8.192   2.075  0.2378 -0.0067 -0.0994
22853W        W38747  16.890   9.100   2.975  0.2398 -0.1281  0.2917
22854W        W38748  18.073  17.494  14.382 -0.1518  0.2171 -0.1840
22855W        W38749  10.524  13.926  11.322 -0.3575 -0.1137 -0.0901
22856W        W38750  18.747   8.666   0.017  0.3084 -0.1807 -0.2263
22857W        W38751   2.191   6.650  10.301 -0.0757 -0.0965  0.0133
22858W        W38752  17.972  13.147  12.482  0.0616 -0.1056  0.0560
22859W        W38753   6.231  15.197  14.405 -0.0838 -0.2075  0.0012
22860W        W38754   7.654  11.483   4.915  0.0621 -0.1358 -0.0685
22861W        W38755   3.092   9.146   3.161 -0.2999 -0.1716  0.3099
22862W        W38756   2.280   8.393  14.224 -0.1739  0.3778 -0.1098
22863W        W38757  15.435  17.086  13.841 -0.0037 -0.1348  0.0292
22864W        W38758  11.282   2.855   2.542 -0.0208 -0.4223  0.0319
22865W        W38759   6.196   7.041   3.304 -0.2568  0.1237 -0.0098
22866W        W38760   6.360   7.947  10.844  0.0827  0.0319 -0.2110
22867W        W38761  11.577   7.219   1.641 -0.3940 -0.0548 -0.1035
22868W        W38762   7.564  11.359   1.949 -0.1458 -0.0287 -0.0079
22869W        W38763   6.525   7.786   4.011 -0.0459  0.2220  0.0096
22870W        W38764   8.840   9.426  11.421 -0.1504  0.2360  0.1413
22871W        W38765  16.376  14.021  13.630 -0.1963  0.0947 -0.2216
22872W        W38766  13.636   1.290   3.552 -0.1998 -0.6343  0.1453
22873W        W38767   6.825  14.784  10.349  0.0831  0.0039  0.0628
22874W        W38768  13.613  14.422  11.699  0.0228 -0.2063  0.0713
22875W        W38769  18.066   4.405   0.298 -0.1135  0.0131  0.5937
22876W        W38770  14.527   0.866   0.371  0.3068 -0.1000  0.4458
22877W        W38771  15.223  17.854   3.876  0.0299 -0.2473 -0.4162
22878W        W38772  14.755  11.832  14.395 -0.0406  0.2379  0.1959
22879W        W38773  17.537   9.394   0.858 -0.0032 -0.1574  0.0280
22880W        W38774  12.701  10.937  13.607  0.0448 -0.1765  0.1726
22881W        W38775   9.748   7.301   4.673  0.2166 -0.0428 -0.1844
22882W        W38776  17.790  17.469  12.047  0.0985 -0.0023 -0.3795
22883W        W38777  19.048  13.775   0.663  0.2135 -0.0506 -0.0705
22884W        W38778   4.696   4.352  14.661 -0.1727  0.0772  0.1942
22885W        W38779   6.254   6.392   5.023 -0.2252 -0.0224  0.1042
22886W        W38780  13.735  17.876   0.029  0.1718 -0.0493  0.1147
22887W        W38781  13.428  18.232   0.592  0.0127  0.2994  0.3866
22888W        W38782  16.960   1.758   1.981  0.1523 -0.3224  0.4036
22889W        W38783  17.413  17.469  11.593 -0.1609  0.0195  0.1277
22890W        W38784   4.755  17.205   5.327  0.2417 -0.0035  0.1297
22891W        W38785   7.968  13.134  12.539  0.0897 -0.0666  0.3964
22892W        W38786  19.017  13.854   2.721  0.1089  0.3230  0.2734
22893W        W38787   8.621  13.965  13.600 -0.0849  0.2308  0.0244
22894W        W38788   0.958   7.362   0.761 -0.2410 -0.1361  0.2509
22895W        W38789   3.357  15.340   2.722  0.0589 -0.1131 -0.2128
22896W        W38790  14.274   5.620   3.330  0.0508  0.0088  0.2989
22897W        W38791  15.479  17.037  10.662  0.3092 -0.0679 -0.3962
22898W        W38792   9.376   1.607   2.151  0.3961  0.0975 -0.0052
22899W        W38793  15.260  15.344  10.373 -0.1477 -0.1543 -0.2635
22900W        W38794  16.956  12.244   4.141 -0.4463  0.0380 -0.0386
22901W        W38795  11.708  12.448   2.986  0.0155 -0.2822  0.0154
22902W        W38796  10.736  11.330   0.563  0.2246 -0.1527 -0.0504
22903W        W38797   9.394   0.362  13.003  0.0065 -0.2790  0.1470
22904W        W38798   6.656   6.908  14.906 -0.0393 -0.2248 -0.1917
22905W        W38799   1.487   1.277  11.909  0.2694  0.1347  0.4021
22906W        W38800  13.811   7.871  12.201 -0.2430  0.3202  0.3548
22907W        W38801  18.294   7.540  11.456 -0.1555  0.0861  0.1128
22908W        W38802   2.371   8.512   0.955  0.0148 -0.0883  0.1896
22909W        W38803   6.142  13.364   5.234  0.1628  0.3565  0.3314
22910W        W38804   0.169   2.882   5.191  0.1465 -0.3055 -0.0772
22911W        W38805   0.822   3.811  15.006 -0.1419 -0.0372 -0.2918
22912W        W38806   4.192   2.706   0.261 -0.0292 -0.0414  0.3054
22913W        W38807   6.856   0.361   3.799  0.2078  0.1544 -0.2300
22914W        W38808   0.519  15.623   4.504 -0.1605 -0.0660 -0.0321
22915W        W38809   8.283  10.827   4.318 -0.0078  0.1331  0.0777
22916W        W38810  11.369   7.067  11.409 -0.2454 -0.1551 -0.0199
22917W        W38811   7.280   3.107  13.264  0.0444  0.0514  0.1822
22918W        W38812   1.985  15.529  11.452 -0.2398 -0.0137 -0.2267
22919W        W38813   7.985   5.291   0.358 -0.0625  0.0812 -0.1300
22920W        W38814   4.630  17.386  11.494  0.2586  0.0637  0.1294
22921W        W38815   5.625   2.953  15.185 -0.0858 -0.2704  0.1704
22922W        W38816  11.865  14.371  11.467 -0.1980 -0.2029 -0.0014
22923W        W38817   7.306  13.316  13.313 -0.1233  0.0917 -0.0191
22924W        W38818   1.674  16.084   1.043  0.4845 -0.2913 -0.0775
22925W        W38819   9.376  16.411  13.009  0.1089  0.0633 -0.1108
22926W        W38820  12.052   5.627  10.491 -0.0597 -0.0857 -0.1344
22927W        W38821   9.649   6.753  11.268 -0.0133 -0.1348  0.0793
22928W        W38822  16.393   2.335  11.903 -0.1804  0.2017  0.1373
22929W        W38823  15.139   0.533  11.056 -0.1836  0.1029  0.3174
22930W        W38824  11.167   4.163  13.091  0.0370 -0.0830  0.3853
22931W        W38825   7.503   3.071   2.304 -0.0731 -0.1221 -0.5637
22932W        W38826  16.469  11.951   4.842  0.0970  0.2085  0.2789
22933W        W38827  16.582   3.674   0.462 -0.0204 -0.2154 -0.0946
22934W        W38828  11.871  12.912   4.009  0.1167 -0.2901  0.2769
22935W        W38829  17.982  11.237   3.086 -0.1044 -0.1211 -0.0725
22936W        W38830   7.745   9.776  13.818  0.0218 -0.0623 -0.0408
22937W        W38831   1.996  15.284   3.478 -0.2653  0.1772 -0.3349
22938W        W38832   4.282  14.353  11.580  0.1392 -0.0496  0.3138
22939W        W38833  10.434  16.103   2.108  0.1659 -0.2167  0.1020
22940W        W38834  16.229  17.015   1.460 -0.1372 -0.1162  0.1156
22941W        W38835  13.269   5.475  14.121 -0.1726 -0.2306  0.1935
22942W        W38836   3.646   9.205   9.813 -0.0524 -0.1489  0.0058
22943W        W38837   5.992   5.439   5.258  0.1088  0.1138  0.3530
22944W        W38838   6.836  15.344   3.748 -0.0124 -0.2770 -0.0313
22945W        W38839  15.412  10.538  10.769  0.0751 -0.0119  0.2824
22946W        W38840   3.153   6.774  10.005 -0.2366  0.1609 -0.2830
22947W        W38841  16.814  17.341  10.968 -0.4360 -0.3156  0.3765
22948W        W38842   1.101   5.030   3.470 -0.0863  0.0611  0.2569
22949W        W38843   2.037  16.891  15.186 -0.0720 -0.0972 -0.2509
22950W        W38844   6.297  13.082  11.338  0.0415 -0.3890  0.0500
22951W        W38845  12.620   9.851   2.976 -0.0846 -0.2281 -0.0343
22952W        W38846   2.223  19.169   1.241 -0.3820  0.0181  0.2708
22953W        W38847  16.256  14.416  11.210 -0.1623  0.1789  0.1316
22954W        W38848  14.416   2.539   1.415  0.3118  0.0150 -0.0622
22955W        W38849  12.700  16.407  14.803  0.1799  0.0840 -0.1168
22956W        W38850  12.667   2.636   3.071  0.1707 -0.0289  0.0732
22957W        W38851  13.787  11.861  13.178  0.0743  0.1164 -0.4158
22958W        W38852  14.261   2.788  12.762  0.0152 -0.0273  0.0101
22959W        W38853   1.231   1.198  14.960 -0.0851  0.2337  0.1385
22960W        W38854  18.701   8.173  12.032  0.3995 -0.2446 -0.1101
22961W        W38855   3.749  10.790   3.599  0.1110 -0.1585  0.3875
22962W        W38856   6.639   0.002   4.121 -0.1310  0.0023  0.2973
22963W        W38857  16.566  12.596  14.018  0.3705 -0.1311  0.0669
22964W        W38858   4.857   5.842   2.155  0.0092 -0.2521 -0.0221
22965W        W38859  16.883   3.963   4.280  0.0610  0.1705 -0.0410
22966W        W38860   3.606  15.403   5.633 -0.1639 -0.0034 -0.2570
22967W        W38861  16.816  10.347   4.730  0.1568  0.0072 -0.2576
22968W        W38862  12.238   8.743   4.558  0.4267 -0.0465  0.1754
22969W        W38863  10.820  11.242  12.401 -0.1792 -0.0392  0.0083
22970W        W38864  18.621   3.834  12.814  0.2345 -0.1342  0.0495
22971W        W38865  10.413   9.378   5.095  0.1803 -0.2515 -0.3784
22972W        W38866  12.822  10.750   1.486 -0.3469  0.2097 -0.3292
22973W        W38867  10.433   2.597   5.640  0.0587  0.4325 -0.0818
22974W        W38868  11.349   1.769  13.909  0.0701 -0.1646 -0.0457
22975W        W38869  13.688  14.245   1.861 -0.2875 -0.0451 -0.2910
22976W        W38870   0.999  15.975   4.893  0.2929  0.1893 -0.0729
22977W        W38871   6.357  18.345  11.398 -0.1262  0.3103  0.2108
22978W        W38872   9.020   3.631  12.100  0.1353  0.1174 -0.1462
22979W        W38873  14.116  11.463   0.569 -0.0317 -0.0192  0.1883
22980W        W38874   7.832   1.516   3.699 -0.0020 -0.1161  0.2601
22981W        W38875   2.565  16.591  14.032  0.0129  0.1422 -0.0092
22982W        W38876  16.271   8.584  14.467  0.2235  0.0995 -0.0457
22983W        W38877  17.693  11.935  13.542 -0.1935 -0.1167  0.1356
22984W        W38878   8.868   5.573   5.603 -0.0825  0.0087  0.0633
22985W        W38879   7.008   6.877   0.060 -0.2964  0.1957 -0.2345
22986W        W38880  13.065   5.951  13.314 -0.0972  0.2764 -0.2159
22987W        W38881  17.347  15.332   0.623  0.1876  0.2407  0.0522
22988W        W38882   4.402  16.288  14.824  0.0178 -0.0617 -0.0848
22989W        W38883   9.350  15.744  13.973  0.0538 -0.0589  0.0098
22990W        W38884   9.614  13.515   4.568  0.1116 -0.3018  0.3548
22991W        W38885  12.547   2.917   2.011  0.2510  0.0326  0.0191
22992W        W38886  16.451  11.413   4.195 -0.2385 -0.0546  0.0471
22993W        W38887  14.896   4.617  12.272 -0.3251  0.0374  0.3228
22994W        W38888  13.748  18.729  14.125  0.1775 -0.1767 -0.2872
22995W        W38889  13.884  16.173  13.465  0.3839  0.2996  0.0086
22996W        W38890  18.631  10.406  12.801 -0.0348 -0.4143  0.0482
22997W        W38891  11.054   1.940   2.284 -0.1492 -0.0317  0.1321
22998W        W38892  10.604  16.601   9.529  0.0540 -0.0259 -0.2972
22999W        W38893  10.789  18.281   0.823  0.1186  0.2035 -0.2033
23000W        W38894  14.059   4.978  11.335  0.1690  0.4102 -0.2687
23001W        W38895   9.685  17.872   1.583 -0.2812  0.2095 -0.0901
23002W        W38896  13.699   8.402   5.182  0.1647 -0.0412 -0.0949
23003W        W38897   5.371  17.028  14.130  0.1484 -0.2612  0.2512
23004W        W38898   3.201  18.203   2.717  0.3014 -0.1536  0.0194
23005W        W38899  12.532  12.339   1.357 -0.1777  0.2155  0.0252
23006W        W38900   2.284   7.256   1.353 -0.1184 -0.0794 -0.0317
23007W        W38901  15.735   9.749   0.277  0.0613  0.3988 -0.2938
23008W        W38902   1.194   4.211  10.698  0.0539  0.1280 -0.0282
23009W        W38903   2.132   6.159   2.764  0.0411 -0.1099 -0.2634
23010W        W38904  12.453   5.914   2.212 -0.2436 -0.0381  0.2622
23011W        W38905   4.850  11.300  11.874  0.0612  0.3787  0.0003
23012W        W38906  13.442  11.597   3.017 -0.3182 -0.2491 -0.1238
23013W        W38907  12.632  16.786  12.601 -0.0547 -0.1365  0.0098
23014W        W38908   4.175  18.065   1.712 -0.1726  0.0522  0.2208
23015W        W38909  18.690   1.336  11.931  0.1884 -0.1094  0.0628
23016W        W38910  13.093   0.089  11.500  0.0655 -0.4637  0.1021
23017W        W38911  18.411   7.145   4.550  0.1697 -0.0616  0.2210
23018W        W38912   0.652   1.453   0.951  0.0379  0.1459 -0.0952
23019W        W38913   8.377   7.503  13.357  0.1216 -0.1782 -0.0211
23020W        W38914   8.889   9.865  11.651 -0.2212 -0.1810 -0.0420
23021W        W38915  15.768   4.463  14.808  0.0191  0.0801  0.1175
23022W        W38916  19.116  16.407  12.719  0.1155 -0.2065 -0.0207
23023W        W38917   2.062  14.614  13.395 -0.1713  0.0054  0.0300
23024W        W38918  14.451   6.786  14.934  0.0631  0.0065 -0.1945
23025W        W38919   9.566   4.646   1.033 -0.1710 -0.2745 -0.0051
23026W        W38920   3.525   4.778   0.255 -0.0570  0.6426 -0.0337
23027W        W38921  12.668  11.493  12.604 -0.0098  0.1306  0.0282
23028W        W38922  14.732   2.131   1.497 -0.1955  0.0515  0.0503
23029W        W38923  10.872   1.587  14.142  0.3136 -0.0199 -0.0771
23030W        W38924   8.302  14.636  13.949  0.3709  0.3664 -0.0343
23031W        W38925   7.219  18.658   2.837 -0.0458  0.1813 -0.0089
23032W        W38926  18.443   6.037  13.489 -0.1669  0.1433  0.1760
23033W        W38927  16.830  16.807   2.610 -0.0688  0.0345  0.0567
23034W        W38928  16.048   5.274   4.870 -0.0445  0.1910  0.0537
23035W        W38929  13.556  11.763  13.690 -0.3117 -0.1471  0.0942
23036W        W38930   9.066  12.201   2.164 -0.1664  0.1710 -0.2454
23037W        W38931   2.060  12.275   2.031 -0.1969 -0.0187 -0.1277
23038W        W38932   7.989   3.747   4.038  0.2825 -0.2251 -0.1236
23039W        W38933  11.106  17.226  11.115 -0.0751  0.0954  0.0572
23040W        W38934   7.272  12.077  12.690  0.1805 -0.2898  0.1463
23041W        W38935   7.984   5.917   3.431  0.0946 -0.0332 -0.0819
23042W        W38936  17.401  19.061   2.490 -0.1493 -0.0151  0.4138
23043W        W38937   3.390  14.652   1.466  0.1604  0.2142  0.2436
23044W        W38938   3.033  10.678  12.409  0.0874 -0.0878  0.0127
23045W        W38939  14.725   1.968  11.613  0.3469 -0.2548  0.2693
23046W        W38940  18.217   6.733   4.614 -0.2977  0.2050 -0.0354
23047W        W38941  19.138  10.382   5.468  0.2406  0.0247 -0.2400
23048W        W38942  12.628   4.747   2.903 -0.2092 -0.1915  0.1488
23049W        W38943   9.253   6.837  10.854  0.0973  0.4922  0.0159
23050W        W38944   7.504  18.134  14.684  0.2195 -0.0594 -0.0353
23051W        W38945  17.178  15.374  13.860  0.0655  0.4963  0.4812
23052W        W38946   7.379   3.142  12.249  0.2482 -0.2276 -0.3566
23053W        W38947   9.521  11.174   4.326  0.3958  0.1120 -0.0355
23054W        W38948   5.732  11.918   3.984  0.0829 -0.3197 -0.0192
23055W        W38949   6.627   9.048   3.807 -0.0558 -0.2164  0.2456
23056W        W38950   6.489   1.916  14.253  0.0644 -0.4278 -0.1886
23057W        W38951   8.430  11.485  10.651 -0.1853  0.0435 -0.0005
23058W        W38952  10.042   1.677   3.286  0.1565  0.1431 -0.2297
23059W        W38953   8.320  17.490   0.248  0.0938 -0.0262 -0.0639
23060W        W38954   7.490  12.059   0.197  0.0764  0.2047 -0.2857
23061W        W38955   8.841  11.689  14.983  0.2399  0.2249 -0.0851
23062W        W38956  12.010  16.872  10.358 -0.3344  0.1032 -0.0554
23063W        W38957   0.429  13.810  13.575 -0.4091 -0.1106  0.0264
23064W        W38958  18.843   6.294   1.094 -0.3602  0.3069 -0.0795
23065W        W38959   1.133  15.147   1.935  0.1584 -0.2231 -0.1865
23066W        W38960  12.481  13.375  14.993  0.2897  0.0620 -0.4630
23067W        W38961   2.510  14.509   2.042  0.3108  0.2228 -0.2781
23068W        W38962  18.450  17.225   4.476 -0.1159  0.2444  0.0278
23069W        W38963  13.044  15.482   0.484 -0.2419  0.3836 -0.1888
23070W        W38964   6.137   1.248   3.419  0.1576  0.2243  0.1437
23071W        W38965  11.240   3.334   0.688 -0.3166  0.0682  0.1443
23072W        W38966  14.157   7.018   3.599  0.5112 -0.1634  0.1126
23073W        W38967   0.705   6.489   0.096 -0.1912 -0.3692  0.2572
23074W        W38968   0.820   4.396   2.573 -0.4701 -0.2860 -0.0049
23075W        W38969  15.874  16.325  12.673  0.2241  0.0649 -0.1537
23076W        W38970   8.007  15.098  10.654  0.0372  0.0764  0.1907
23077W        W38971   5.505   4.609  14.325  0.2758  0.1107 -0.4741
23078W        W38972   0.338  11.305   2.363  0.1402 -0.0435 -0.2022
23079W        W38973  10.796   8.269  11.100 -0.4515  0.2125 -0.3757
23080W        W38974  14.380  10.421  13.564  0.2825  0.3836  0.0504
23081W        W38975   7.703  15.926   3.658 -0.0633  0.2232 -0.1992
23082W        W38976  11.981  17.377  12.022 -0.0915 -0.1259  0.0871
23083W        W38977   0.016   8.119  14.001 -0.2016 -0.0161 -0.3001
23084W        W38978   5.523  16.457   2.333 -0.1175  0.2398 -0.2534
23085W        W38979  15.671  10.127   4.319 -0.1405 -0.1945 -0.0059
23086W        W38980   2.369  18.530  12.214 -0.0739  0.2093 -0.1808
23087W        W38981   2.243   4.252  13.284  0.0047 -0.0254 -0.1582
23088W        W38982  17.033  16.555   3.564 -0.0501  0.0191  0.3056
23089W        W38983  13.824  16.162   0.472 -0.0843 -0.3714 -0.2720
23090W        W38984  18.072   2.943   2.108 -0.4143 -0.0298  0.0645
23091W        W38985  16.174   9.803  11.732 -0.2335 -0.0385  0.0973
23092W        W38986  11.823   7.806   9.452 -0.1503  0.1460 -0.1426
23093W        W38987  12.964  14.285   3.211  0.2800  0.2966 -0.0788
23094W        W38988   5.360  14.929  10.767 -0.2304  0.0921 -0.0548
23095W        W38989  11.738  15.360   3.669 -0.1335  0.1045 -0.0001
23096W        W38990   5.307   3.389   2.231  0.1249 -0.3648 -0.3813
23097W        W38991  14.460   0.864   4.618  0.0225 -0.0314  0.2008
23098W        W38992  17.219  12.561   1.491 -0.1388  0.1926 -0.1596
23099W        W38993  14.052   0.163   4.903 -0.0584  0.1611  0.1012
23100W        W38994   1.586  12.436   1.970  0.1306  0.2053  0.1069
23101W        W38995   8.262   6.642  13.084  0.3903  0.0130 -0.0688
23102W        W38996   1.227   6.907   1.651 -0.3931  0.2367  0.1123
23103W        W38997  17.825   1.111   2.746 -0.0752  0.3650  0.3090
23104W        W38998  10.475   2.639   0.042 -0.2724  0.2442 -0.0247
23105W        W38999   5.617   0.690   4.242  0.0221 -0.0606  0.0448
23106W        W39000  12.937  15.861  11.955  0.2845 -0.0337  0.1696
23107W        W39001   3.618   2.797  10.826 -0.0902  0.0877  0.1593
23108W        W39002  13.393  17.695   2.038 -0.2840 -0.0345  0.4665
23109W        W39003   6.453   2.113  13.773  0.4441 -0.0927 -0.0337
23110W        W39004   7.193   3.691   3.107 -0.0090 -0.1354  0.1086
23111W        W39005   1.930  10.112   3.871  0.2710 -0.0145  0.0484
23112W        W39006  17.905  10.617   3.891 -0.1324  0.2698  0.0686
23113W        W39007  10.295  19.119   3.167 -0.0280  0.2865 -0.2218
23114W        W39008   3.519  10.580   2.856  0.0329 -0.1892  0.1027
23115W        W39009   0.388   7.707   9.758  0.0633 -0.2355  0.1238
23116W        W39010   1.014   5.021  11.535 -0.0861 -0.3235  0.0038
23117W        W39011   3.955   9.251  11.202  0.0220  0.1510 -0.3785
23118W        W39012   2.765  18.254  10.119 -0.0487  0.0177  0.2284
23119W        W39013  17.810   1.509   4.091 -0.1324 -0.1319 -0.0437
23120W        W39014   0.159   2.334   0.754  0.3870 -0.0631  0.0932
23121W        W39015  12.274   7.300   4.591  0.0837 -0.0919  0.2463
23122W        W39016   4.836   9.669  13.196  0.1806  0.1146  0.2521
23123W        W39017   3.005   5.937   1.080 -0.3950 -0.2653 -0.0634
23124W        W39018  14.737   9.394   2.995 -0.0149 -0.1848 -0.1809
23125W        W39019  12.106   9.273  14.446  0.2864 -0.3454  0.2371
23126W        W39020   0.493   4.726  12.367 -0.1849  0.1459  0.2745
23127W        W39021  15.729  15.253  12.090 -0.0060 -0.0236 -0.0435
23128W        W39022   7.547   4.831  11.179  0.1724 -0.1752  0.2105
23129W        W39023   5.597   1.328   4.797 -0.3228  0.1872 -0.2394
23130W        W39024  11.597   3.515   4.031  0.2960  0.0414  0.1457
23131W        W39025  18.053   0.817  14.639  0.3588 -0.0790  0.0221
23132W        W39026   3.251  14.972   0.471  0.0496 -0.1583 -0.0237
23133W        W39027   8.956   7.858   3.493 -0.2465  0.0351 -0.1292
23134W        W39028  15.361   9.725   4.977 -0.1937  0.0148 -0.4147
23135W        W39029  16.268   1.105   2.890 -0.1173 -0.2522  0.0819
23136W        W39030  12.185  18.656  11.505  0.0669  0.2814 -0.2706
23137W        W39031   2.876  11.199   4.001  0.3354  0.2609 -0.0219
23138W        W39032   1.445  11.375   4.067 -0.3743  0.0597 -0.1027
23139W        W39033  14.694   9.216  13.176  0.2515  0.2569 -0.0962
23140W        W39034   3.942   3.610   1.331  0.2094 -0.1161 -0.1091
23141W        W39035  11.665   2.430  10.361 -0.0787 -0.0222  0.2965
23142W        W39036   4.307   5.282  11.957 -0.1134  0.0750 -0.0983
23143W        W39037  14.209  17.796   0.849 -0.2375  0.1498 -0.1554
23144W        W39038   8.027  11.027  11.596 -0.2460  0.0545 -0.0323
23145W        W39039   2.495   5.185  14.438 -0.1109  0.0116 -0.0194
23146W        W39040   3.719  11.545   2.977  0.3868 -0.0450  0.2917
23147W        W39041  14.823   8.172  12.698  0.0125 -0.3474 -0.1384
23148W        W39042  13.456   8.837  14.852  0.4887  0.3236 -0.1534
23149W        W39043   0.107   7.563  12.582  0.1236 -0.0826 -0.1871
23150W        W39044   1.503   5.116   4.661 -0.0103  0.2689  0.3334
23151W        W39045  10.298  13.922   1.321 -0.2558 -0.0494  0.0858
23152W        W39046   7.672   8.527  13.357 -0.2361 -0.1554 -0.0277
23153W        W39047  18.824   4.531  11.616  0.4146  0.0192 -0.0869
23154W        W39048   5.235   7.337   0.415  0.0090 -0.2014 -0.2885
23155W        W39049  13.182   9.798  11.709  0.1081  0.0342  0.0709
23156W        W39050  14.116  13.364   4.577  0.1038 -0.0338 -0.0327
23157W        W39051  16.851  16.356  10.137 -0.0025 -0.0407  0.2174
23158W        W39052  18.861  10.580  15.183  0.3239 -0.0700  0.4478
23159W        W39053  16.179  14.372   0.134  0.1811  0.4777  0.1482
23160W        W39054  16.431  14.344   4.041  0.0344 -0.0120  0.1104
23161W        W39055  13.525   5.364   1.481 -0.1570 -0.1745 -0.1914
23162W        W39056   7.252  16.119   0.759 -0.1295 -0.2489  0.2877
23163W        W39057   6.698   1.657   0.046  0.0637  0.0220 -0.1269
23164W        W39058   7.175   6.901  11.573 -0.0186  0.1104  0.0555
23165W        W39059   9.107   6.275   5.210 -0.0762 -0.1500  0.3764
23166W        W39060  16.080  18.701  15.037 -0.1576 -0.1377  0.0940
23167W        W39061   8.918  13.722   3.419 -0.2540  0.0978  0.1151
23168W        W39062  11.782   9.123   0.659  0.1262 -0.2291  0.0179
23169W        W39063   7.483   9.366   2.229 -0.2069 -0.3599  0.0489
23170W        W39064   8.651  12.029  11.083  0.1167  0.2824  0.3700
23171W        W39065  10.707  17.076   9.731 -0.2597  0.1526  0.0716
23172W        W39066  10.884   1.933  11.618  0.0969 -0.1445 -0.1976
23173W        W39067  16.632   5.063   3.290  0.0717  0.3380  0.1224
23174W        W39068   3.527   4.398   3.865 -0.1906  0.0083  0.1442
23175W        W39069  10.828  16.626   4.712  0.0407  0.1303  0.1600
23176W        W39070   1.411   2.734   2.307 -0.1112 -0.0694 -0.0277
23177W        W39071   0.382   3.228   4.699 -0.1313 -0.0178  0.1178
23178W        W39072  11.923   1.185   5.625  0.0610 -0.2242 -0.2520
23179W        W39073  18.533  13.070  13.383  0.0862  0.3970  0.1270
23180W        W39074   6.134  11.440   5.518  0.0701 -0.1496 -0.1118
23181W        W39075  18.696   2.337   3.551 -0.0914  0.0386 -0.0470
23182W        W39076   5.554   7.072  11.773  0.2419  0.1307  0.0301
23183W        W39077   0.330   8.030   4.265  0.3308  0.0646 -0.0353
23184W        W39078   1.932  18.669  12.648  0.0167 -0.1827  0.0499
23185W        W39079   3.346   4.916  10.520 -0.1726  0.2260  0.1221
23186W        W39080   5.798   9.741   1.661  0.2761 -0.0615  0.1805
23187W        W39081   8.924  12.946   1.697 -0.0828 -0.2330 -0.0443
23188W        W39082  11.669  17.693   4.580  0.1683 -0.2212 -0.2444
23189W        W39083  14.415  12.739  11.292 -0.0254 -0.1113 -0.0915
23190W        W39084   8.120   6.959  15.150  0.2092 -0.0450 -0.1474
23191W        W39085  10.802   4.835  14.235  0.2139 -0.1969  0.0233
23192W        W39086  18.301   4.339  15.043 -0.2285 -0.1318  0.0367
23193W        W39087   2.348   2.982   3.177  0.1287 -0.1133  0.2006
23194W        W39088  17.357   1.297   2.498  0.0670  0.2497  0.3708
23195W        W39089   2.703   3.094  12.282 -0.0851 -0.0660  0.2696
23196W        W39090   3.697  15.142  11.560  0.1330 -0.0597  0.1448
23197W        W39091   1.683   7.391   0.040 -0.1934 -0.1432  0.1112
23198W        W39092  17.379  10.785   2.619 -0.2445  0.2903 -0.0061
23199W        W39093   0.492   8.802   0.265 -0.0599  0.1218 -0.4113
23200W        W39094   7.520  18.628  12.151  0.1168  0.1078  0.0747
23201W        W39095   5.684   5.258   4.879  0.0603  0.0223 -0.1628
23202W        W39096  16.077   3.904   3.069  0.3827  0.0984  0.1887
23203W        W39097  17.419   4.270  12.242 -0.1138  0.0971  0.3058
23204W        W39098   5.869   2.849   3.176  0.0753 -0.0489 -0.1687
23205W        W39099   8.211   2.584  14.859 -0.0390 -0.1189 -0.2536
23206W        W39100   8.340   3.451   0.327 -0.2166 -0.0419  0.1965
23207W        W39101  16.650  13.249   0.933 -0.2258  0.0938  0.0246
23208W        W39102   4.985  12.901   3.083 -0.0952 -0.2060 -0.1831
23209W        W39103  17.915   1.302  11.469 -0.0038  0.1983 -0.1803
23210W        W39104   0.759  10.501  14.715 -0.1123  0.0347  0.1401
23211W        W39105  18.466   7.886  14.058 -0.1050 -0.1402 -0.2440
23212W        W39106   8.441   0.327   2.490 -0.0875 -0.1504  0.4907
23213W        W39107  10.397  19.109   9.395 -0.0221  0.0195 -0.0291
23214W        W39108  16.459   1.173   2.419 -0.0901  0.0359  0.2005
23215W        W39109   8.396  13.404  12.519  0.3769  0.2641  0.1298
23216W        W39110   7.281  13.153   2.911  0.1219 -0.2716  0.1580
23217W        W39111  15.825   2.965  14.209 -0.0869  0.3049  0.2090
23218W        W39112  10.104  11.217   0.485 -0.1205  0.1267 -0.3667
23219W        W39113   9.737   1.593   4.516 -0.3271 -0.2373  0.0460
23220W        W39114  18.733  15.020   2.992 -0.1140  0.0845 -0.0903
23221W        W39115   8.440  10.461  13.250  0.3169 -0.2445  0.1697
23222W        W39116  15.277   1.774  11.624  0.1018 -0.1715 -0.0851
23223W        W39117  12.391  14.872   1.280  0.3713  0.0083 -0.1750
23224W        W39118  12.267   3.229  15.035 -0.1810 -0.0506 -0.3070
23225W        W39119  13.477   2.831  14.387  0.5295 -0.0742  0.0228
23226W        W39120  12.728   7.646  13.318  0.3235 -0.0139 -0.0366
23227W        W39121  12.261  16.147  14.617 -0.0959  0.0310  0.5244
23228W        W39122  10.057   4.762  12.705  0.0431 -0.0078 -0.0617
23229W        W39123  11.218   5.453  12.431  0.0712 -0.0042 -0.1155
23230W        W39124   7.200   5.787  10.070  0.0991 -0.0378  0.0794
23231W        W39125   5.363   4.634   3.945 -0.2280 -0.1599 -0.1091
23232W        W39126  15.814  15.908   0.841 -0.1486  0.0774  0.0430
23233W        W39127   4.576   3.518  13.999  0.0604 -0.1375 -0.2324
23234W        W39128  12.707   8.495   2.647 -0.0122 -0.0026 -0.1700
23235W        W39129   8.834   7.642  13.210  0.0899 -0.1409  0.0208
23236W        W39130  18.374   6.825  15.069 -0.0460 -0.0559 -0.2249
23237W        W39131   3.678   9.466   4.776  0.2093  0.2591  0.1104
23238W        W39132   2.511  10.622   3.090  0.0883  0.1734 -0.0516
23239W        W39133  12.347   8.904  13.611 -0.1090 -0.0169 -0.1382
23240W        W39134  11.300   6.598  14.219 -0.1679 -0.0857  0.3557
23241W        W39135  15.656  11.600   1.922  0.3929 -0.2325 -0.3181
23242W        W39136  18.227   9.048  11.244 -0.0582  0.0220 -0.1221
23243W        W39137   4.085   1.874  13.703  0.1430  0.0435  0.1764
23244W        W39138   4.889  15.857   1.054  0.0510  0.0108 -0.0415
23245W        W39139   1.428   3.243   3.869  0.0762  0.0378  0.2974
23246W        W39140  12.573   4.989  11.531 -0.4211 -0.1414 -0.0107
23247W        W39141  12.300   8.573   3.115 -0.0311 -0.0992  0.3531
23248W        W39142  12.728  11.242  10.741  0.1576 -0.2014  0.3298
23249W        W39143  15.645  11.659   2.940 -0.0799  0.0444 -0.0242
23250W        W39144   1.131   3.880   4.506 -0.0103  0.0601 -0.3921
23251W        W39145   1.349  13.144   3.784 -0.0342  0.1945 -0.1209
23252W        W39146  11.404  16.497  11.294  0.1290 -0.0111  0.0817
23253W        W39147  14.497   3.359   4.773  0.0537  0.0345  0.1624
23254W        W39148  10.197   1.256   1.909 -0.3808  0.1421  0.0400
23255W        W39149  12.452   1.029  10.817 -0.1561  0.0681  0.0782
23256W        W39150  10.872   9.043   0.844 -0.0060 -0.2724  0.2020
23257W        W39151   9.362   2.765   1.013  0.0077  0.0685 -0.2577
23258W        W39152   2.771   1.966   0.526 -0.1097  0.2307 -0.3707
23259W        W39153  15.722   5.094   4.400  0.1227 -0.4120 -0.1287
23260W        W39154  18.289  11.836   4.497  0.1689 -0.1403  0.2118
23261W        W39155   9.150   2.096   3.687  0.1118  0.1554  0.1946
23262W        W39156  16.587  12.575   4.093 -0.0162 -0.0517  0.1283
23263W        W39157  10.086  18.182  12.732  0.0729 -0.2672 -0.1822
23264W        W39158  12.734  13.259  14.172 -0.2917  0.0361  0.2740
23265W        W39159   1.912   3.194  13.513  0.3164  0.0357 -0.1982
23266W        W39160   9.508  15.840   2.176 -0.0009  0.1030  0.0697
23267W        W39161  11.618   7.735  11.022 -0.0299  0.1563 -0.0745
23268W        W39162  18.250   6.519   2.967  0.0149 -0.0854  0.0249
23269W        W39163  14.594   7.677  14.502  0.0775 -0.3727  0.0242
23270W        W39164   2.230  14.718   2.496 -0.2961 -0.1783 -0.0325
23271W        W39165   3.585   9.396   3.229  0.0884  0.1125 -0.2682
23272W        W39166  10.034  17.000   3.899 -0.0279 -0.1145  0.1543
23273W        W39167  12.173  19.125   0.982 -0.4114  0.2496  0.0279
23274W        W39168   0.684  11.868   3.570  0.1091  0.3682  0.3857
23275W        W39169  16.400   7.946   3.317  0.1411 -0.1510  0.2155
23276W        W39170   6.205   7.987  12.817 -0.0450 -0.3955 -0.1759
23277W        W39171  13.846   9.019   0.494  0.1351  0.2229 -0.0942
23278W        W39172  12.276  13.249   1.537  0.2427  0.0141  0.2098
23279W        W39173   8.270   1.159   0.763  0.1278  0.0730  0.2453
23280W        W39174  18.307  17.364  11.971 -0.0068  0.4059  0.3995
23281W        W39175   3.602  14.656  13.791  0.1851 -0.2306 -0.2276
23282W        W39176   5.076  14.663  12.052 -0.2127  0.0237  0.4024
23283W        W39177   2.259  16.438   5.728 -0.2692 -0.1193  0.0310
23284W        W39178  16.661   1.011   1.544 -0.1531 -0.2395  0.3556
23285W        W39179   9.373  18.451  11.127  0.1031 -0.1877  0.3116
23286W        W39180  16.437  16.707  13.245  0.2106 -0.1442  0.1249
23287W        W39181   1.145   3.039  14.213 -0.0121 -0.0323  0.1413
23288W        W39182   1.048   0.638   1.337 -0.0302 -0.2584 -0.0943
23289W        W39183   1.634   6.164   0.154 -0.1205 -0.0109  0.1954
23290W        W39184   3.862  18.130  12.898  0.0529  0.3725  0.4878
23291W        W39185   7.609   0.599  13.698  0.0335 -0.0755  0.1262
23292W        W39186   6.010   7.822   0.583 -0.2757  0.0490 -0.1710
23293W        W39187  10.685  16.646   5.634 -0.0586  0.1113 -0.0888
23294W        W39188  15.747  15.350  10.601  0.2811 -0.0384 -0.2080
23295W        W39189   3.829  11.854  11.544 -0.0353  0.1136  0.0660
23296W        W39190   2.031  15.735  11.939  0.1652 -0.0307  0.0676
23297W        W39191   9.521   4.950   4.054 -0.1088 -0.0146  0.1956
23298W        W39192   9.932   5.432   4.619  0.2570 -0.1224  0.0775
23299W        W39193   9.398  13.878  11.999  0.0563  0.1913  0.1381
23300W        W39194   9.455   9.676   1.864 -0.1449 -0.2543  0.2064
23301W        W39195  11.564  11.484   4.455 -0.2320 -0.0140  0.0046
23302W        W39196   3.869   4.182   0.062 -0.2952  0.0083 -0.2772
23303W        W39197   7.731   2.721  13.181  0.0713 -0.0493 -0.0692
23304W        W39198  19.097   3.171   0.434  0.0894 -0.0899  0.0132
23305W        W39199  16.563   9.247   0.296  0.2591  0.0407 -0.0777
23306W        W39200   9.248   9.831   4.150 -0.0036  0.2779  0.0373
23307W        W39201   0.253   7.258  14.126 -0.3316 -0.0084  0.0488
23308W        W39202  15.956  16.366   1.452 -0.0842 -0.1311 -0.3316
23309W        W39203  16.778   5.372  13.761  0.2350 -0.3706  0.0824
23310W        W39204  16.355  17.955   4.711  0.1142  0.1200  0.3866
23311W        W39205   3.508   9.590  11.416  0.2758  0.0258 -0.2837
23312W        W39206  12.438  13.402   2.123 -0.0411 -0.0947 -0.0403
23313W        W39207  18.802  13.724  12.360  0.1911  0.0359 -0.0038
23314W        W39208  12.449  17.788   4.609 -0.0368  0.0935 -0.2607
23315W        W39209   4.767   4.738  15.007 -0.0623 -0.1210 -0.0162
23316W        W39210   6.590   7.712   3.133  0.0366  0.0418  0.0505
23317W        W39211  17.050   4.169  11.500 -0.0142  0.1992  0.0552
23318W        W39212  16.234   8.185  11.261 -0.2456 -0.0766  0.1354
23319W        W39213  19.134  15.434   4.360  0.0433 -0.1712 -0.1419
23320W        W39214   3.532  12.554   0.046 -0.1235 -0.1645 -0.1307
23321W        W39215  18.990  14.628   3.318 -0.0935 -0.1323 -0.1361
23322W        W39216  10.372  11.508  11.511  0.0363 -0.1610  0.1466
23323W        W39217   1.313  17.722   4.231 -0.1541  0.0359 -0.0809
23324W        W39218   9.863  17.115  11.924 -0.2431 -0.4108  0.0606
23325W        W39219   2.225  19.066  10.861  0.1326 -0.0948 -0.3337
23326W        W39220   6.827   7.619   0.871 -0.2871  0.2220 -0.3594
23327W        W39221  14.274  13.967   2.640 -0.1596  0.2983 -0.0041
23328W        W39222  14.804  16.051   2.005  0.0823 -0.3576  0.2254
23329W        W39223   0.202   3.883  10.313  0.2715  0.1422  0.0479
23330W        W39224   7.966   2.908  12.281  0.1236 -0.1475 -0.0075
23331W        W39225  11.294  10.373   4.346  0.2065  0.0915 -0.1380
23332W        W39226   1.006  15.155   0.011 -0.2001 -0.1822  0.2823
23333W        W39227   3.670   7.186   3.775  0.0689 -0.0896  0.2092
23334W        W39228   2.003  18.773   1.132 -0.1337  0.0290 -0.2245
23335W        W39229  16.210   1.722  12.689  0.3432 -0.2446 -0.1369
23336W        W39230   2.380  19.059   3.665 -0.0408  0.2216  0.3396
23337W        W39231   3.567  13.468  13.999 -0.2824  0.1528 -0.2347
23338W        W39232   4.295   8.126   9.382  0.2536  0.0745 -0.1964
23339W        W39233  13.211   2.432  11.822 -0.1152 -0.1844  0.2734
23340W        W39234   4.108   6.650   3.795  0.3785  0.3789 -0.1733
23341W        W39235  11.658   5.449   2.211  0.0359 -0.0163 -0.1625
23342W        W39236  10.160  10.836  10.938  0.1945 -0.3924 -0.3089
23343W        W39237  17.460   4.060   4.806  0.4578 -0.0010 -0.0690
23344W        W39238  18.319   5.911  13.949  0.1283 -0.1678  0.4087
23345W        W39239  15.024  12.757   4.746  0.2009  0.1066 -0.4633
23346W        W39240   2.633  14.177   4.719 -0.4602 -0.2167  0.1078
23347W        W39241  11.328  11.548   2.945  0.1989  0.0110 -0.0100
23348W        W39242   4.837   0.198  10.638  0.0351  0.1683  0.0234
23349W        W39243  15.342  16.887  14.744  0.1121  0.1746  0.0864
23350W        W39244   3.789   1.238  12.408 -0.0647 -0.0889 -0.0181
23351W        W39245   7.203  12.230   4.002  0.0515  0.1811 -0.1774
23352W        W39246  18.024  18.691  12.573 -0.1545 -0.2386  0.1056
23353W        W39247  13.432   3.323  14.428  0.1695  0.1897 -0.0320
23354W        W39248   3.599   4.381   2.890 -0.0973  0.0670  0.1793
23355W        W39249   6.095   7.599   3.140 -0.1139 -0.5562  0.0634
23356W        W39250   9.109   7.819   1.750  0.3238 -0.1813  0.2377
23357W        W39251   9.250   7.547  12.867 -0.1950 -0.0355 -0.1186
23358W        W39252   2.456   7.494  14.849 -0.3183 -0.0226 -0.2398
23359W        W39253  15.323   7.101  14.864 -0.0451 -0.0016  0.3081
23360W        W39254  10.857  13.567  12.193 -0.2229  0.3891  0.1012
23361W        W39255   9.191  16.853   9.508  0.1872 -0.3435 -0.3007
23362W        W39256   1.180  12.108  10.843  0.5144 -0.0703 -0.1618
23363W        W39257   3.115  16.528   2.651  0.4791  0.0206 -0.3636
23364W        W39258   6.184   9.097   0.807 -0.1073  0.4427  0.0283
23365W        W39259   6.324   6.551   4.199  0.0085  0.1494 -0.0111
23366W        W39260  15.086  18.192   2.497  0.0614 -0.2165  0.0049
23367W        W39261   4.911  12.441  13.575 -0.2441 -0.0144 -0.0915
23368W        W39262   9.538  19.144  11.016 -0.0924  0.2110 -0.0294
23369W        W39263   2.182   0.991   2.838 -0.2595 -0.0686 -0.0297
23370W        W39264   6.181   1.851   0.475  0.1576  0.0655  0.2590
23371W        W39265   5.389   9.588  12.010  0.2864  0.0601 -0.0924
23372W        W39266   5.231   6.527   0.208 -0.0763 -0.0421 -0.1173
23373W        W39267  10.315  17.097  12.112 -0.2517 -0.3727 -0.2254
23374W        W39268   0.691  11.313   0.061  0.7420  0.2403 -0.1320
23375W        W39269   0.500  17.980   1.397 -0.0747 -0.0401  0.2503
23376W        W39270  10.756   3.066  12.402 -0.0093 -0.0358 -0.0273
23377W        W39271  15.283   8.405  10.686  0.1889  0.5038 -0.1342
23378W        W39272   7.548   1.210  11.868  0.0920  0.0900  0.0378
23379W        W39273   0.615   3.218   4.065  0.3437  0.1410 -0.3812
23380W        W39274   4.175   8.503   3.565 -0.0090  0.0193  0.0520
23381W        W39275   2.426   9.405  11.562  0.0591  0.1248  0.2063
23382W        W39276   6.647  15.826  11.014  0.0687  0.1323 -0.1967
23383W        W39277  12.084  12.507   2.209 -0.1316  0.2037  0.1880
23384W        W39278   0.418   7.251  13.444 -0.0900  0.0938 -0.4615
23385W        W39279  19.047   7.238   3.058  0.1223 -0.2544 -0.1425
23386W        W39280  14.389   2.349   4.513  0.0387  0.0145 -0.0999
23387W        W39281  16.268   5.434   1.811  0.0323  0.3548 -0.2932
23388W        W39282  18.321  13.556  13.359 -0.0735  0.0212  0.1721
23389W        W39283  18.411   7.340   1.742  0.0080  0.0390 -0.0206
23390W        W39284  18.282  18.916  13.351  0.1328  0.3476  0.0321
23391W        W39285  11.428   1.977   9.487 -0.2892 -0.0326 -0.0116
23392W        W39286   7.157  11.308   2.270 -0.2751 -0.2182 -0.0013
23393W        W39287  16.805   8.166   0.712 -0.2106 -0.0967  0.0786
23394W        W39288  16.878   1.542   2.502  0.1179  0.3066  0.0678
23395W        W39289   8.407   6.955  10.268  0.0345 -0.1241  0.0503
23396W        W39290  11.582  17.957   2.585 -0.3111  0.4019 -0.2655
23397W        W39291  17.487   1.840  12.303 -0.0951 -0.3215 -0.1075
23398W        W39292   5.407   2.869   0.668  0.2230 -0.1233  0.0121
23399W        W39293   6.516  10.771   2.360 -0.1523 -0.0698  0.3481
23400W        W39294   8.259  19.005  15.025 -0.1519  0.1040 -0.0015
23401W        W39295   8.958   1.109   4.147 -0.1534  0.1197  0.0730
23402W        W39296  12.001  11.397   1.137 -0.3003  0.0580  0.0571
23403W        W39297  10.274   7.066   0.850 -0.1067 -0.3178 -0.1482
23404W        W39298  18.992   6.973  14.178  0.3434  0.1172  0.1346
23405W        W39299   4.162   1.879   1.594  0.2912  0.2959  0.1927
23406W        W39300   3.126  12.245   0.346  0.1691 -0.0186 -0.3338
23407W        W39301  18.742   6.128  11.828 -0.2043 -0.2442 -0.1783
23408W        W39302  12.897  18.963  10.647  0.3342  0.3331 -0.3613
23409W        W39303  17.201  14.402  11.353  0.1685 -0.2719  0.0148
23410W        W39304  12.908   8.011   0.628 -0.0426  0.1480  0.2604
23411W        W39305   1.731   0.951   9.747  0.0128  0.0381 -0.2736
23412W        W39306  17.830  12.851   1.193 -0.0630  0.1108 -0.1518
23413W        W39307   9.271  15.708  11.934 -0.1262  0.2215 -0.1260
23414W        W39308  13.505   4.715  12.679  0.1376  0.0702  0.2619
23415W        W39309   0.406  18.700   4.955  0.1480 -0.1084  0.0181
23416W        W39310   1.338  14.858  12.497  0.0132  0.1321  0.1199
23417W        W39311   1.048  18.531  12.725 -0.0822 -0.0634  0.1043
23418W        W39312   7.596   8.360   2.402  0.0127 -0.0452  0.1730
23419W        W39313  16.309  12.909  14.686  0.1170  0.0681  0.1967
23420W        W39314   4.869   0.469   1.197  0.0574  0.0031 -0.1637
23421W        W39315   8.050   9.968   3.084 -0.0356 -0.2576  0.1423
23422W        W39316   1.567   4.564   0.524 -0.1358 -0.1557  0.3932
23423W        W39317  13.965  14.156  14.884 -0.3869 -0.1113 -0.1929
23424W        W39318   1.249   7.385   2.461 -0.1762 -0.2658  0.1140
23425W        W39319  19.082  18.984  12.289 -0.1788  0.3658  0.1557
23426W        W39320   4.171   7.442  11.772  0.0614  0.0344 -0.1762
23427W        W39321   6.233  14.540   3.804  0.4317 -0.1536 -0.0378
23428W        W39322  17.095   3.459   0.604  0.0990 -0.0412 -0.1360
23429W        W39323  17.231   3.584  14.744  0.3968 -0.0227 -0.1156
23430W        W39324   7.436   8.076  14.800  0.0666 -0.2161  0.0092
23431W        W39325   6.950  16.817  14.650 -0.0158 -0.0414  0.2218
23432W        W39326  10.822   5.269  11.688  0.1197 -0.0650 -0.2723
23433W        W39327  12.326   6.126   0.655 -0.1654  0.0624  0.2226
23434W        W39328  11.194  19.072   0.180 -0.0568 -0.1762 -0.1137
23435W        W39329   3.974   4.647  12.408  0.1119  0.2033 -0.0654
23436W        W39330   3.370   7.902   2.943  0.4899 -0.0960 -0.2742
23437W        W39331   5.894  11.528   3.609  0.0362 -0.0351 -0.1422
23438W        W39332   4.069   4.209  10.326 -0.1637 -0.0044  0.0633
23439W        W39333  10.198  10.204  14.521 -0.2300  0.0280  0.0291
23440W        W39334  14.439   2.739  13.637  0.0591  0.2490  0.1651
23441W        W39335  18.503   7.642   4.357  0.3711  0.3279  0.0929
23442W        W39336  14.964  18.305   4.371 -0.0178 -0.2200 -0.0563
23443W        W39337  10.592   1.576   1.753 -0.0443 -0.2024 -0.1890
23444W        W39338   5.980  14.915   2.732 -0.1993  0.2911 -0.0239
23445W        W39339  12.278   4.704  13.208  0.4673 -0.0193 -0.0322
23446W        W39340  11.902   2.402  11.669 -0.0507 -0.0187 -0.1546
23447W        W39341   6.056   5.919  15.183 -0.0893  0.0318  0.0201
23448W        W39342   5.921   3.980  14.530  0.1269 -0.2808 -0.4009
23449W        W39343  12.101   0.801   2.085 -0.0039  0.2703 -0.2601
23450W        W39344  13.872   6.207   0.480 -0.0103 -0.0384  0.1216
23451W        W39345   1.071  13.223   4.801  0.2398 -0.2909 -0.1623
23452W        W39346   3.807   8.363  13.016 -0.0969  0.0737  0.2245
23453W        W39347   9.398   0.100   2.964  0.2965  0.1067 -0.1157
23454W        W39348  13.158  10.017   3.213  0.0024 -0.0169 -0.3252
23455W        W39349   4.950   2.000  14.625 -0.1435  0.0916  0.3034
23456W        W39350   0.302   5.894   3.278  0.2553 -0.1452 -0.3332
23457W        W39351   0.015  12.170   1.409 -0.0147  0.1918 -0.1190
23458W        W39352  19.185   7.099   2.150 -0.0958  0.3522 -0.2121
23459W        W39353  10.935  10.042   5.456  0.0052 -0.1878 -0.0251
23460W        W39354  16.255   7.652   2.952 -0.1070  0.1986 -0.0888
23461W        W39355   5.435   0.365  12.965 -0.3837  0.0155  0.1673
23462W        W39356   2.284   5.534  10.457  0.0143 -0.1197 -0.1778
23463W        W39357  18.701  16.305  14.716 -0.0963 -0.3500 -0.0119
23464W        W39358  13.104  19.009  12.223  0.0839 -0.1667 -0.3098
23465W        W39359   2.451  15.010  13.128  0.0866  0.2256 -0.1541
23466W        W39360   2.574  14.361  13.765 -0.1506 -0.0465 -0.1888
23467W        W39361  16.064  13.479   3.292  0.2228  0.0087 -0.2409
23468W        W39362  14.464  14.595   2.026 -0.1085 -0.1847  0.0321
23469W        W39363   2.705   6.473   5.081  0.0227  0.1828  0.0231
23470W        W39364  16.953  11.820   4.654  0.0448 -0.2242 -0.0585
23471W        W39365   4.099  17.828  14.425  0.0641 -0.0365  0.3814
23472W        W39366   2.062  18.681   2.693 -0.0938  0.1241  0.0361
23473W        W39367  10.036   9.183   4.364 -0.5510 -0.0400  0.1993
23474W        W39368  16.283   6.163   0.006  0.1214  0.0486  0.0902
23475W        W39369  16.412   4.555   2.192  0.0792  0.0679 -0.1058
23476W        W39370   4.848  14.760  12.488 -0.2505 -0.1801 -0.1346
23477W        W39371  11.642  12.457   1.950 -0.1191  0.0158 -0.2563
23478W        W39372   1.517  17.875  13.660 -0.0941 -0.0741  0.1580
23479W        W39373  18.774   0.522  12.480 -0.0703 -0.0885  0.1760
23480W        W39374   0.084  10.804   1.672  0.1667 -0.0953 -0.1302
23481W        W39375  12.621   5.166  10.179  0.1105  0.0851 -0.3238
23482W        W39376  16.103  16.418   4.510  0.1869 -0.2559  0.0014
23483W        W39377   2.157  16.347  14.332 -0.3012 -0.0888  0.0138
23484W        W39378  19.038   1.560  14.658  0.0448 -0.1223  0.1875
23485W        W39379   8.158  13.247  13.030 -0.3004 -0.2382  0.1374
23486W        W39380  17.261  17.582  10.963  0.0869  0.1505 -0.0326
23487W        W39381   9.011   1.694  11.999  0.0560  0.1649 -0.0779
23488W        W39382  17.123   9.139  10.577 -0.1726  0.2731 -0.1954
23489W        W39383  16.844  16.759  11.602 -0.1008  0.1008  0.1312
23490W        W39384   2.383   1.172   1.198  0.1146 -0.0414  0.4688
23491W        W39385  14.796   1.917   1.972 -0.0540 -0.0757 -0.1164
23492W        W39386   6.857  10.439   2.621 -0.0874 -0.0286 -0.0975
23493W        W39387   3.538   2.899   1.861  0.1144 -0.3911  0.3843
23494W        W39388  13.904  13.735   4.215 -0.2140 -0.2125 -0.1340
23495W        W39389  17.700  12.349  13.812  0.2779  0.0191 -0.3210
23496W        W39390   3.159   0.194  12.103  0.1902  0.1070 -0.2913
23497W        W39391   7.041   5.494   3.329 -0.1668  0.0320  0.1897
23498W        W39392  15.989   4.590   6.275  0.0796  0.1235  0.1676
23499W        W39393   1.793   3.169   2.602 -0.1927  0.0659 -0.1296
23500W        W39394   4.267   8.370   1.336 -0.1557  0.0542  0.0177
23501W        W39395  12.233  15.184  13.525 -0.3465 -0.0229  0.2681
23502W        W39396  13.678   6.213  12.283 -0.1114 -0.0670  0.1709
23503W        W39397   2.270  16.432   0.197 -0.2256  0.0604 -0.3686
23504W        W39398  19.182   1.391   0.757 -0.0041 -0.1138  0.1697
23505W        W39399   3.365   3.105   0.904 -0.0991 -0.1766  0.2659
23506W        W39400  11.000  12.858   0.842  0.0166  0.3974 -0.0074
23507W        W39401  12.838  18.362  13.689  0.1162 -0.0652  0.0358
23508W        W39402   6.741  13.614   5.370  0.2800  0.1857 -0.1435
23509W        W39403  14.235  16.218   3.530  0.2131  0.0827 -0.4089
23510W        W39404   1.828   6.521   2.731 -0.0386  0.0102  0.1002
23511W        W39405  10.632   5.005   4.694 -0.1919  0.0443  0.3289
23512W        W39406   5.732  17.819   1.340 -0.2825 -0.5556 -0.3322
23513W        W39407   3.283  14.913   4.373  0.2354  0.1037 -0.2377
23514W        W39408  16.891   2.786   1.308  0.1124  0.0388 -0.1186
23515W        W39409   0.843  16.369   5.721 -0.0479 -0.2358 -0.1180
23516W        W39410  15.931   8.543   0.638 -0.2016  0.0767 -0.1025
23517W        W39411  18.046   3.757  11.195 -0.2741 -0.0187 -0.0344
23518W        W39412  18.730   0.737  11.301  0.0889  0.0787 -0.3285
23519W        W39413   7.069  16.256   2.492 -0.0316 -0.0067 -0.0387
23520W        W39414   3.986   1.296  10.846  0.0247 -0.2317  0.4332
23521W        W39415  10.161  15.820   5.618  0.1296  0.1671 -0.0396
23522W        W39416   5.641   3.972  15.117  0.0408  0.1136  0.1315
23523W        W39417  10.792  16.756   2.240 -0.1665 -0.0049 -0.1690
23524W        W39418  12.577  15.931  13.515  0.0638 -0.6147 -0.2401
23525W        W39419  17.274   0.770  10.851 -0.1110  0.1300 -0.0680
23526W        W39420   8.442   4.273  11.632 -0.3123 -0.0673  0.1727
23527W        W39421   0.776  18.972   3.320 -0.5980  0.0844 -0.4572
23528W        W39422   5.139   3.390  10.368 -0.0231  0.6541 -0.2195
23529W        W39423   2.139   2.024   4.474 -0.2925  0.0578  0.0711
23530W        W39424   4.842  13.941   1.707  0.1568  0.1692 -0.0451
23531W        W39425  14.395   0.391   0.183  0.0820  0.2600  0.3299
23532W        W39426  14.224   5.773  13.632 -0.2375  0.4560 -0.3018
23533W        W39427   3.172  18.060   1.806  0.5514 -0.0328 -0.2634
23534W        W39428   7.107   2.967   1.811 -0.1281 -0.1051  0.0386
23535W        W39429  17.447  12.101   1.245 -0.0356 -0.0306  0.0783
23536W        W39430   8.694   3.646   2.323  0.0423  0.4866 -0.3345
23537W        W39431   2.421   3.794   4.482  0.0352  0.2095 -0.1890
23538W        W39432   7.006  13.973  10.896  0.0654 -0.0565 -0.1936
23539W        W39433  13.846  14.006   1.416  0.1118 -0.0850 -0.1602
23540W        W39434  11.722   6.005   3.998  0.3223  0.2578  0.2287
23541W        W39435  19.059  17.819  12.778  0.0147 -0.0496  0.0799
23542W        W39436   8.455  18.443  11.056 -0.0196  0.0027 -0.2931
23543W        W39437   7.826   2.242   4.436  0.0521  0.0258  0.3248
23544W        W39438   1.710  10.336  14.597 -0.1264  0.2746  0.2073
23545W        W39439   0.808   0.755   3.549 -0.0619  0.1374  0.3528
23546W        W39440   0.369   3.169   2.136  0.3120  0.2702  0.2148
23547W        W39441   3.422   9.852  10.746  0.2071 -0.1843  0.2850
23548W        W39442   5.496   6.644  12.456 -0.1844 -0.1896  0.2971
23549W        W39443  10.705   1.762  13.222  0.0885  0.1904 -0.1600
23550W        W39444   5.951   1.897  11.528  0.1628  0.0047  0.0685
23551W        W39445   9.579   4.723   4.635  0.0836  0.3501 -0.0072
23552W        W39446   7.609  10.729  13.702 -0.2991  0.2457  0.1061
23553W        W39447  15.286  13.582   0.614 -0.1954 -0.2695 -0.4976
23554W        W39448   5.100  18.354   1.066  0.0588  0.5005 -0.3457
23555W        W39449   3.256  15.188  10.734  0.0788 -0.2959 -0.1873
23556W        W39450   6.339  13.127  10.847 -0.0306 -0.3295  0.1934
23557W        W39451   4.460  14.750   1.791  0.0863 -0.0543 -0.1616
23558W        W39452   9.195  12.105  10.691 -0.3152 -0.1668 -0.1168
23559W        W39453  11.176   8.003   1.493  0.0813 -0.1446 -0.2944
23560W        W39454  11.680   8.689   2.854  0.0974 -0.0171  0.0862
23561W        W39455   0.067  16.764  14.384  0.0630 -0.0357  0.1752
23562W        W39456   8.281  17.293  13.405  0.0043 -0.2649  0.2768
23563W        W39457  12.895   2.098   4.952  0.0457 -0.0581  0.2560
23564W        W39458  13.459  15.623  14.736  0.1952  0.2328  0.2781
23565W        W39459   6.875  18.581  12.877  0.0113  0.1890  0.1892
23566W        W39460   3.946   2.923   3.213  0.1732 -0.3643  0.0774
23567W        W39461   6.437   2.045   0.029  0.0517 -0.0088  0.1056
23568W        W39462   8.667   4.535  14.298 -0.1160  0.1709  0.1070
23569W        W39463   2.727   3.942  14.071 -0.1701  0.0817  0.1433
23570W        W39464   4.447   5.844  11.326 -0.0627  0.0054  0.3968
23571W        W39465  15.402  17.177   3.469 -0.2696 -0.0737  0.0826
23572W        W39466   1.081   6.426   0.557 -0.0510  0.1801  0.0635
23573W        W39467  15.320   2.325   5.091 -0.2290 -0.0535 -0.0749
23574W        W39468  10.425  10.501   0.252  0.0745 -0.0136  0.1455
23575W        W39469  10.978  12.867   4.568 -0.1175 -0.0805  0.2537
23576W        W39470   1.053   5.251  12.470  0.1252  0.0346 -0.4948
23577W        W39471  15.088  10.486  12.410  0.2001 -0.1476  0.0320
23578W        W39472  13.661  12.527  13.070 -0.1669  0.2361  0.1913
23579W        W39473   1.416  13.154  12.865  0.0672  0.0730 -0.1687
23580W        W39474  17.961  17.614   5.671  0.2904  0.3332 -0.0978
23581W        W39475  18.585   6.681   1.196  0.0960  0.0699 -0.3518
23582W        W39476  18.454  17.331   2.845 -0.1420 -0.0913  0.0068
23583W        W39477  14.450   6.177   3.028  0.0746  0.0929  0.0256
23584W        W39478  11.842   2.960  11.580 -0.2723  0.1906  0.0377
23585W        W39479   2.907   2.367   0.295  0.2857 -0.0549 -0.1627
23586W        W39480   0.049   4.872  12.356  0.3566  0.0685  0.3946
23587W        W39481  15.683  11.840   0.809  0.3036 -0.1600 -0.0576
23588W        W39482  11.685   4.074   2.322  0.0381 -0.0910 -0.0773
23589W        W39483  13.791  18.149   3.612  0.2248 -0.1353  0.2353
23590W        W39484  19.022  13.253   2.170  0.2339 -0.1602 -0.1793
23591W        W39485   9.719  18.477   3.118  0.0410 -0.2212  0.0097
23592W        W39486   1.709  18.346  14.929  0.1646 -0.0682 -0.1386
23593W        W39487   8.138  18.257   0.962  0.1779  0.0355  0.0587
23594W        W39488   4.350   2.427   1.216 -0.1646 -0.2474  0.1761
23595W        W39489  18.367   7.596  12.903  0.0660 -0.1614 -0.0781
23596W        W39490   7.977   4.004  13.642  0.2619  0.0959 -0.1159
23597W        W39491   1.507   5.746  13.421 -0.1615 -0.0919  0.3259
23598W        W39492  17.999  17.853   4.733 -0.1612  0.0293  0.0181
23599W        W39493   6.679  19.185   1.706 -0.0105 -0.3473  0.2019
23600W        W39494   9.975   9.649  11.987 -0.0423 -0.2538 -0.1107
23601W        W39495   1.136  16.047   1.889 -0.1460 -0.2589 -0.2879
23602W        W39496   5.163  10.838  12.006  0.0024  0.3532  0.1568
23603W        W39497   4.012   8.365   3.108 -0.0482 -0.0356  0.2161
23604W        W39498   9.269  10.436  10.978 -0.1645 -0.0394  0.1572
23605W        W39499   6.899   6.488   3.148 -0.0805 -0.2117  0.3078
23606W        W39500   2.016  12.640   5.111 -0.0756 -0.1260 -0.2602
23607W        W39501   3.399  11.169   1.078 -0.2184  0.1606 -0.2316
23608W        W39502  17.284   4.406   5.063 -0.1890 -0.0268  0.0797
23609W        W39503  18.674   5.816   0.850 -0.0887 -0.0590  0.0882
23610W        W39504  17.307   4.700  10.964 -0.0926  0.0861 -0.1519
23611W        W39505  10.737  16.572  10.744 -0.0792 -0.1941 -0.1383
23612W        W39506   7.662  19.123  13.635 -0.0553  0.1264  0.0853
23613W        W39507  17.449  12.639  13.096  0.2044  0.1149  0.2319
23614W        W39508  12.387  11.533  14.656  0.1972 -0.0562  0.0398
23615W        W39509   6.460  16.733  14.495 -0.1993 -0.2079  0.0459
23616W        W39510  11.086  14.454   1.827  0.2485  0.0468 -0.3530
23617W        W39511   8.805   7.142   4.757  0.0169  0.2431  0.0409
23618W        W39512   8.174   7.988   3.150  0.2344 -0.0476  0.4034
23619W        W39513  15.482  17.169   4.562 -0.1903  0.3738  0.0469
23620W        W39514  11.633  15.949  10.213 -0.2721 -0.0427  0.0736
23621W        W39515  10.440  17.075   2.080 -0.1134  0.1635  0.0624
23622W        W39516  11.202   8.693  14.266 -0.1162 -0.0545  0.2062
23623W        W39517  10.399   5.685   1.237 -0.2627 -0.0873 -0.0090
23624W        W39518   0.057  17.154   2.628  0.0191 -0.0096 -0.3701
23625W        W39519   7.449   5.906  11.362  0.1168  0.2331  0.4246
23626W        W39520   1.231  15.678  14.769 -0.0502  0.1209 -0.1457
23627W        W39521  14.068  17.151   4.073  0.1844  0.1420 -0.0649
23628W        W39522  17.090  14.322   1.808 -0.0230  0.0585  0.2502
23629W        W39523   6.466   4.671  14.408  0.2007 -0.0341 -0.0631
23630W        W39524  10.305  16.174   4.094 -0.2311  0.1498 -0.0545
23631W        W39525  14.398  15.378   1.456  0.0127 -0.0470  0.0963
23632W        W39526  14.742  16.671   3.092  0.0763  0.1584 -0.0312
23633W        W39527   1.855   1.565  11.389  0.0110  0.2334 -0.1248
23634W        W39528   1.241   0.865  14.518  0.0702  0.1279  0.4390
23635W        W39529   3.247   7.315  14.544 -0.1380  0.3607  0.0032
23636W        W39530  16.611  18.403  13.320 -0.1852  0.0210 -0.1445
23637W        W39531   7.012  18.975   5.239  0.0908  0.1212  0.4611
23638W        W39532  13.615  14.940   1.648  0.2538  0.0201  0.0669
23639W        W39533   4.171  14.175   2.504  0.2435  0.3946 -0.1443
23640W        W39534  15.967  14.521   4.411  0.0280  0.0120  0.2450
23641W        W39535  13.101  11.977   0.681  0.0805 -0.0449  0.1134
23642W        W39536   1.087   1.158   1.738 -0.1268 -0.0077 -0.0888
23643W        W39537  10.316  10.023  10.667 -0.0033  0.0891 -0.2677
23644W        W39538  10.050  17.283  10.453  0.1464  0.1519  0.0017
23645W        W39539   5.438   3.207   4.361 -0.0280 -0.1538  0.0345
23646W        W39540   8.577  18.536   1.621  0.6103  0.0048 -0.2330
23647W        W39541   9.590  12.219  10.266  0.2041 -0.0616  0.1749
23648W        W39542  16.399  17.715   4.236 -0.2682  0.2509 -0.1085
23649W        W39543  16.821  13.897  10.910  0.2383  0.1374 -0.0994
23650W        W39544   7.059   6.868  13.030 -0.0809 -0.0677  0.0809
23651W        W39545  18.134  18.825  13.855  0.1328 -0.0565  0.0011
23652W        W39546  16.374   4.057  13.244 -0.0359 -0.0431  0.1034
23653W        W39547   0.179   2.651   4.647 -0.3361 -0.2709  0.0004
23654W        W39548  13.019  19.162   0.314  0.0089 -0.0822  0.2739
23655W        W39549  12.737  10.226   4.147 -0.0094 -0.1081  0.0574
23656W        W39550   3.887   0.774  10.748 -0.1706  0.2248  0.1461
23657W        W39551  12.928  14.487  13.653  0.3240  0.2800 -0.2118
23658W        W39552  12.856  10.021   5.534  0.2332  0.0263  0.1831
23659W        W39553   1.220   5.940   2.964 -0.3794  0.0716 -0.0751
23660W        W39554  18.476   0.967   0.845 -0.2823  0.1572  0.2572
23661W        W39555  12.172   5.557  13.587  0.1901 -0.0717  0.0862
23662W        W39556  16.024   6.618  12.668 -0.1123 -0.1713  0.0574
23663W        W39557   8.989  14.801   0.933 -0.1896 -0.3111  0.1406
23664W        W39558   1.713   8.352  12.002  0.4050 -0.2002  0.2495
23665W        W39559   2.589   2.828  11.781  0.0834 -0.0053  0.0189
23666W        W39560   4.262   4.192   1.134  0.0342 -0.0264  0.3184
23667W        W39561   8.564   8.413  12.903 -0.1335  0.0404 -0.3534
23668W        W39562  16.670   1.691   1.543 -0.0211  0.2121  0.3360
23669W        W39563   8.671  10.352  11.498  0.0371 -0.1884  0.0275
23670W        W39564  17.222   7.455   3.108 -0.0187  0.0900 -0.0888
23671W        W39565   2.111  18.922   0.299  0.1884 -0.2074 -0.0084
23672W        W39566  18.428   9.436  12.145 -0.1254 -0.0670 -0.1970
23673W        W39567  16.419   7.316   2.618 -0.3571  0.2558  0.2184
23674W        W39568  15.319   4.278   4.220  0.0889  0.4066 -0.1335
23675W        W39569  16.670  14.946   4.153 -0.0484  0.1351  0.3508
23676W        W39570   7.692  13.434  12.835 -0.2203 -0.0117  0.1414
23677W        W39571   2.127  18.314   4.140  0.0114 -0.4661  0.2421
23678W        W39572  13.662   2.833  11.000  0.1367 -0.0091 -0.1342
23679W        W39573   3.632  13.627  13.396 -0.1022  0.0860 -0.0465
23680W        W39574   0.902   9.653   4.831  0.0548  0.0619 -0.1774
23681W        W39575  16.405  16.999  12.252 -0.0480  0.0948 -0.3059
23682W        W39576   5.534  18.036   0.950 -0.0426  0.0593 -0.0420
23683W        W39577  14.279  14.284  12.772  0.1283 -0.0292 -0.1321
23684W        W39578  16.395  15.495  14.416  0.2584 -0.1691  0.0953
23685W        W39579   4.323  18.221   0.116  0.1826 -0.0494  0.0161
23686W        W39580  11.055  11.929  14.645 -0.1956  0.1152  0.1326
23687W        W39581   3.488   2.584   0.917 -0.0687  0.2410  0.0465
23688W        W39582   4.568  13.861  13.661  0.2082 -0.1206 -0.0165
23689W        W39583  12.877  10.631  12.888 -0.0426  0.0702  0.0237
23690W        W39584   7.938   3.118  11.300  0.2607  0.1852  0.0048
23691W        W39585  15.904   5.856   4.861 -0.0919 -0.1089  0.2259
23692W        W39586  11.126  11.477   9.769 -0.1733  0.0132 -0.2730
23693W        W39587   1.801  16.825  12.330  0.3246  0.4285 -0.5080
23694W        W39588  13.126   8.225  11.360  0.1222 -0.1488  0.1759
23695W        W39589   1.567   0.751   4.656  0.0900  0.0413 -0.0226
23696W        W39590  18.957  16.141   4.878 -0.2436 -0.1160 -0.0379
23697W        W39591   9.861   7.327   0.583 -0.0358 -0.1170 -0.0324
23698W        W39592  11.084  16.596   0.927  0.0732  0.3449  0.2773
23699W        W39593  13.864  12.071  12.703  0.2651  0.0773 -0.1170
23700W        W39594   8.667  13.931   3.041 -0.0765  0.4338  0.2198
23701W        W39595   1.552   5.062   1.475  0.0601 -0.0245  0.1839
23702W        W39596   5.537  11.262   1.818  0.0034  0.0460 -0.1154
23703W        W39597   6.007  10.647   3.113  0.2137 -0.1241  0.1340
23704W        W39598  19.128   0.158  13.498 -0.3043 -0.2796  0.0762
23705W        W39599   5.119  12.782   2.336 -0.1218 -0.0537 -0.0624
23706W        W39600   8.330   0.349   0.548  0.0321 -0.2381  0.2595
23707W        W39601  11.426  17.830   1.089  0.0134 -0.0601 -0.3366
23708W        W39602   5.812   2.340  13.184  0.1999  0.0796  0.4476
23709W        W39603   2.548   6.512  14.243 -0.2147 -0.0393  0.1279
23710W        W39604   8.964  14.014   1.665  0.0195 -0.2728  0.1823
23711W        W39605  18.137  16.570   5.011  0.0125 -0.2437  0.1612
23712W        W39606  11.751   6.286   2.658  0.0392  0.0668  0.0030
23713W        W39607   4.906  12.688   0.224 -0.2189  0.3186 -0.1648
23714W        W39608  12.439  13.559   3.027  0.4325  0.1834  0.3509
23715W        W39609  12.024   3.884  11.186 -0.3826  0.0710 -0.1355
23716W        W39610  11.789  16.436   5.038  0.1560  0.0928  0.1050
23717W        W39611  16.029   6.097  11.911 -0.0928  0.2425  0.0909
23718W        W39612  17.916  15.603   0.634  0.1461  0.1664  0.0362
23719W        W39613   6.304   8.867  11.298  0.1646  0.0171 -0.0459
23720W        W39614  16.103   7.594  11.317  0.2563 -0.1603  0.0634
23721W        W39615  12.003   4.402   4.931 -0.3549 -0.0142  0.0694
23722W        W39616   4.986   9.952   0.003  0.1739 -0.0159  0.0983
23723W        W39617   8.653   7.302   3.542 -0.0659 -0.0996 -0.3701
23724W        W39618  15.154  16.553   4.367 -0.1670 -0.1846 -0.0301
23725W        W39619   0.327  14.841  12.148  0.2605 -0.1979  0.2849
23726W        W39620   2.541   8.098  12.961  0.0743  0.1106 -0.3559
23727W        W39621   8.242  15.264   2.591 -0.1954  0.2110  0.2037
23728W        W39622  11.351   2.781   3.049 -0.1116 -0.0844 -0.1570
23729W        W39623   5.777  10.089  13.373 -0.0262  0.2794 -0.3034
23730W        W39624  17.042   1.168   3.865 -0.3527  0.0305  0.1353
23731W        W39625   4.626  18.155   1.248  0.3773  0.0220 -0.4727
23732W        W39626  12.589  13.274  13.169 -0.0400 -0.0559  0.4669
23733W        W39627   5.892   8.273  12.441 -0.1297 -0.2963 -0.0657
23734W        W39628  16.000   4.811  13.472  0.0255  0.3620 -0.1579
23735W        W39629  13.411  17.021   3.623 -0.0344  0.0614  0.0075
23736W        W39630   1.962  11.607   0.452 -0.1432 -0.0591  0.1205
23737W        W39631   4.446  16.739   3.686 -0.1656  0.0471  0.1502
23738W        W39632  10.396   9.162  14.051  0.1095  0.1386 -0.1150
23739W        W39633  17.271   2.177   0.688 -0.4045  0.0839  0.0939
23740W        W39634  14.676  15.980   1.450  0.2544 -0.0450 -0.2658
23741W        W39635   0.150  16.396   5.139  0.0061  0.2059 -0.1881
23742W        W39636   7.884  10.268  13.973 -0.0185  0.0948  0.1293
23743W        W39637   6.144   7.461   4.163 -0.1078  0.4692 -0.1089
23744W        W39638   7.927  15.530   4.482 -0.1625  0.2435  0.2324
23745W        W39639  17.865   9.318   4.730  0.1905  0.1689 -0.1579
23746W        W39640   2.075   0.301   3.177  0.2158  0.1260  0.1788
23747W        W39641  15.522   3.416   4.597 -0.2343 -0.0115 -0.1724
23748W        W39642  13.370   1.451   3.008 -0.0127 -0.0801 -0.1147
23749W        W39643   4.046  14.165   2.017 -0.0266 -0.1285  0.1297
23750W        W39644  15.614  13.421   3.644  0.1987  0.1078  0.1029
23751W        W39645   0.494   6.074   4.267 -0.0734  0.1239  0.2968
23752W        W39646   8.875   3.022   1.896  0.1670 -0.3434  0.4374
23753W        W39647   1.342   3.851  14.095 -0.0841  0.4478 -0.0745
23754W        W39648  11.695  15.702   4.134  0.0409 -0.0105  0.2232
23755W        W39649   7.279   5.470  12.922 -0.2567 -0.1970  0.2890
23756W        W39650  10.202  15.196   3.858  0.0034 -0.0004 -0.0248
23757W        W39651  10.867  15.487  14.097  0.2016  0.0698  0.0549
23758W        W39652   2.577   9.863  14.136  0.3745  0.0342  0.1043
23759W        W39653  15.471   5.090  14.873 -0.3582  0.0445 -0.1165
23760W        W39654  14.084  18.459  12.565  0.0909 -0.3368  0.2012
23761W        W39655  19.111   4.986   9.732 -0.3882  0.4558  0.0885
23762W        W39656   3.883  16.517  14.153  0.1060  0.2587  0.2584
23763W        W39657  18.392  16.791  13.328  0.1319 -0.1033  0.1676
23764W        W39658   6.100  14.340  14.560 -0.1763  0.0167 -0.1008
23765W        W39659  12.451   1.482  13.294  0.1564 -0.1650  0.3078
23766W        W39660  17.551  13.207   2.555  0.2698 -0.0247  0.3826
23767W        W39661   6.762   1.562   0.777 -0.1177 -0.2075 -0.2879
23768W        W39662   2.969   5.751   3.763  0.1049 -0.0722 -0.0522
23769W        W39663   1.171   5.510   3.684 -0.0110 -0.4022 -0.0253
23770W        W39664  17.094   7.241  10.968 -0.2379 -0.1245  0.0872
23771W        W39665   2.378  16.498   2.049  0.2216  0.1108 -0.2902
23772W        W39666   3.714   0.044   4.104 -0.3095 -0.2003 -0.0260
23773W        W39667   3.969  18.341  14.380 -0.0510  0.1827 -0.1831
23774W        W39668   1.739  11.936   4.158  0.0259  0.0216 -0.3753
23775W        W39669   2.074  15.984   2.255 -0.4445  0.2339  0.0342
23776W        W39670  18.501  17.041  15.136  0.2709  0.0956 -0.1090
23777W        W39671   4.737   5.673  14.153  0.2426  0.0714 -0.0507
23778W        W39672  17.536   4.136   0.989  0.0546  0.1168  0.2916
23779W        W39673   6.515   5.346   5.208 -0.0610  0.1203  0.0834
23780W        W39674  14.014   4.985  13.682  0.1626 -0.2447  0.3084
23781W        W39675   5.213   6.050  15.088 -0.2219  0.4951 -0.0857
23782W        W39676   2.930  17.893  12.799  0.1843 -0.3546 -0.1137
23783W        W39677   0.547  16.128   4.736  0.1795 -0.1374  0.0553
23784W        W39678   4.581  16.315  10.113  0.0951  0.0382  0.1868
23785W        W39679  15.425   4.892   1.931  0.2986 -0.0629 -0.1341
23786W        W39680   4.966   5.407   4.233  0.1599 -0.3046 -0.4231
23787W        W39681   5.336  17.012  13.270 -0.0064 -0.0918  0.0280
23788W        W39682  17.752  17.076   1.080 -0.0114  0.1766  0.1611
23789W        W39683  13.945   5.299  11.751  0.0963  0.1485 -0.0922
23790W        W39684   4.735  15.207   0.326  0.0231 -0.1547 -0.0083
23791W        W39685   1.209   9.608  10.264  0.0689 -0.2782 -0.1978
23792W        W39686   7.080  10.975  12.795  0.0102 -0.3462 -0.2006
23793W        W39687  13.507  12.581   2.201 -0.1325 -0.2508  0.0257
23794W        W39688   0.800  11.405   2.233  0.3686 -0.2991  0.0543
23795W        W39689   1.387   1.053   1.146  0.4102 -0.0435  0.0142
23796W        W39690  17.119  15.078   3.381 -0.0018  0.1091  0.1768
23797W        W39691  18.339   3.257  11.831  0.0143  0.3499  0.4358
23798W        W39692   6.674   0.363   4.412  0.2410  0.0638  0.4519
23799W        W39693   4.234  11.773  13.485 -0.0921 -0.0694 -0.0223
23800W        W39694  16.965  12.336   2.587 -0.1214  0.2491 -0.1128
23801W        W39695  15.078  16.429   3.886  0.0362 -0.1969 -0.2702
23802W        W39696   1.570  11.491  12.741 -0.1288 -0.2573  0.2756
23803W        W39697  11.990   4.736   0.240  0.0784 -0.1214  0.1799
23804W        W39698   4.789  11.627   0.744 -0.1686 -0.0103 -0.1184
23805W        W39699   2.619  16.677  10.764  0.2563 -0.0018  0.2025
23806W        W39700   7.043   7.333   2.817  0.0207  0.2058 -0.2186
23807W        W39701  10.502   5.006  12.969 -0.2937  0.2098 -0.2328
23808W        W39702   5.486   5.636   1.030 -0.1488  0.0328 -0.1055
23809W        W39703  18.457   9.913  10.969 -0.1259  0.0341 -0.0117
23810W        W39704  18.766   4.829  10.994  0.0242 -0.0084  0.1417
23811W        W39705  11.327   4.270  11.075 -0.0176  0.0081  0.0609
23812W        W39706   0.733   5.647  12.988  0.2223  0.0050  0.1368
23813W        W39707   3.901  11.944  12.074 -0.0277 -0.0314 -0.0667
23814W        W39708   4.357  16.342   9.519  0.0649 -0.0866  0.2427
23815W        W39709  12.894   0.375   3.106  0.2325  0.2026 -0.1536
23816W        W39710  11.793  15.559   3.166 -0.0857 -0.3990 -0.4526
23817W        W39711  15.521   8.869  10.795  0.0582 -0.0016  0.1321
23818W        W39712  18.241  15.664   5.907 -0.0849  0.3365  0.0866
23819W        W39713   2.673  18.562  11.231  0.3042 -0.0019  0.0701
23820W        W39714   7.244  14.592  13.682 -0.0838 -0.1021 -0.2175
23821W        W39715   9.571   4.618  13.404 -0.0292 -0.0461 -0.0969
23822W        W39716  14.965   0.677   3.300 -0.1046 -0.0937 -0.0363
23823W        W39717  13.194   2.191  13.309  0.2889 -0.2507 -0.2895
23824W        W39718  15.550  11.686  12.839 -0.4033 -0.0107 -0.2967
23825W        W39719  12.099  18.731  13.451  0.1087  0.0292 -0.1755
23826W        W39720  11.882   2.451  14.573  0.0663 -0.1919 -0.1802
23827W        W39721  17.849  12.571   4.195 -0.0481 -0.2894 -0.0509
23828W        W39722  18.962   1.685  11.582 -0.0092  0.0788  0.3853
23829W        W39723   4.988  10.791   0.450  0.2029 -0.2316 -0.0030
23830W        W39724   2.730  15.152   5.251  0.2394 -0.1376 -0.0615
23831W        W39725  14.186  11.777  13.482 -0.0567  0.1780 -0.0692
23832W        W39726   4.333   8.519  13.127  0.3124  0.0467  0.0683
23833W        W39727   0.485  10.152   2.235  0.0297 -0.0576 -0.0005
23834W        W39728   3.696  12.997  10.913  0.3035 -0.0381  0.4232
23835W        W39729   1.939  18.099   3.642 -0.1665 -0.0074 -0.2050
23836W        W39730   3.567   6.673  12.466 -0.0385  0.2983  0.1448
23837W        W39731   2.213  15.982   5.579 -0.0496 -0.0722  0.0480
23838W        W39732  13.191   4.213   1.060 -0.0540 -0.0568  0.0080
23839W        W39733  18.938  17.313  12.538  0.2221  0.1182  0.3366
23840W        W39734   4.548  19.146  13.306 -0.2796 -0.1345 -0.2367
23841W        W39735   5.762   0.002   3.716 -0.0122  0.1680 -0.1296
23842W        W39736  17.033   8.583   4.372 -0.1825  0.0932 -0.0397
23843W        W39737   0.038  14.719   1.005  0.0664 -0.0532  0.2339
23844W        W39738   0.310   8.331  14.489  0.0258  0.2238 -0.1723
23845W        W39739   6.746   0.185  12.077 -0.1837 -0.3414  0.0956
23846W        W39740  10.354  16.897   1.541 -0.2380 -0.1212  0.0544
23847W        W39741  16.688   6.829   3.595 -0.3232 -0.2998 -0.2390
23848W        W39742   9.193  13.763   2.950 -0.4236  0.3697  0.0903
23849W        W39743  14.829   8.139   3.902 -0.0118  0.0779 -0.5096
23850W        W39744   4.617   7.376  14.842 -0.2507 -0.2256  0.0515
23851W        W39745  12.524  17.790  11.046  0.0175  0.2119  0.4829
23852W        W39746   6.128   4.759  13.056  0.0233  0.1639 -0.2006
23853W        W39747  11.557  12.363  14.528 -0.1241 -0.2097 -0.0191
23854W        W39748   6.984   0.275   2.061  0.2837 -0.2041 -0.0711
23855W        W39749   8.368  15.337  15.085  0.1036  0.0970  0.2812
23856W        W39750  13.659  17.307   3.930  0.0623 -0.1139 -0.0030
23857W        W39751   1.505  17.396  13.256 -0.4554  0.3214  0.1419
23858W        W39752  10.316  17.665  13.887  0.0904  0.0782 -0.1453
23859W        W39753  17.231  14.364  14.119  0.0472 -0.1419  0.0696
23860W        W39754   0.845  14.714  12.441 -0.2493 -0.0092  0.0382
23861W        W39755  18.466   2.702  11.730  0.0457 -0.2333  0.0558
23862W        W39756  12.124   0.806  12.987  0.1239  0.0222  0.0697
23863W        W39757  16.688  16.148  11.679 -0.1042  0.2039  0.2286
23864W        W39758   9.086   3.665   1.517  0.0781  0.1024 -0.0564
23865W        W39759   0.751   5.294   0.103 -0.0942 -0.2917 -0.0470
23866W        W39760  18.714  14.500   4.364  0.1323 -0.2105  0.2047
23867W        W39761  15.256   0.986   2.979 -0.0889 -0.2376  0.0609
23868W        W39762  12.802  10.202   3.608 -0.0597 -0.0938  0.2877
23869W        W39763   8.834   7.055  11.078 -0.0510  0.0948 -0.0871
23870W        W39764   3.215  15.724   3.071 -0.0891 -0.0545 -0.1402
23871W        W39765   7.424   7.707   2.515  0.1997 -0.1248  0.1683
23872W        W39766  13.606   1.222   1.920  0.0346  0.2684  0.0721
23873W        W39767  13.297   5.453   4.646 -0.0586  0.1593 -0.3039
23874W        W39768  15.815   7.989   4.843 -0.1745 -0.1528 -0.2601
23875W        W39769  10.045  11.663  14.258 -0.0132 -0.1101  0.1894
23876W        W39770   3.284   7.849  11.898  0.0621  0.0069  0.2517
23877W        W39771   9.220   4.052   3.815 -0.0602 -0.1879  0.2853
23878W        W39772  15.165  10.097   5.461 -0.0371 -0.0930  0.1251
23879W        W39773  10.215   6.364  13.399 -0.0080 -0.3558  0.2799
23880W        W39774   9.535   3.728   4.378 -0.1981 -0.0099 -0.0066
23881W        W39775   1.715  10.898  12.856 -0.0037 -0.0886 -0.0487
23882W        W39776  14.098  18.000  14.342  0.1768 -0.2008  0.1372
23883W        W39777   8.608   6.765   5.036 -0.2677  0.1276 -0.2022
23884W        W39778   2.706  14.523  13.270 -0.0911  0.2233 -0.0530
23885W        W39779   8.818   7.830   0.024 -0.1341  0.0770  0.1787
23886W        W39780  18.522   0.152   3.795 -0.0938  0.0235  0.0283
23887W        W39781   3.848   7.824  13.217  0.1157 -0.1086  0.1206
23888W        W39782  15.588   6.441  14.668  0.0319 -0.0934 -0.2142
23889W        W39783  13.721   1.330   4.831  0.4259 -0.3064 -0.0666
23890W        W39784   3.097   9.534   4.032  0.1261 -0.1918 -0.0346
23891W        W39785  14.860   3.514   5.124  0.1964 -0.1485  0.1890
23892W        W39786   3.026   6.688  13.332 -0.0341 -0.0588 -0.0465
23893W        W39787  11.346  14.704   4.781 -0.1175 -0.1334 -0.1948
23894W        W39788   3.476  11.536  13.515  0.0320  0.2559 -0.1942
23895W        W39789  14.469  11.876   1.361  0.3677 -0.0492 -0.0991
23896W        W39790   2.653  10.536  12.719  0.0047 -0.3168 -0.1968
23897W        W39791  13.868   8.031   5.508  0.0074 -0.3323  0.0489
23898W        W39792  14.190   8.438  15.123 -0.0939  0.0254  0.2114
23899W        W39793  12.647   1.863   5.869 -0.0576 -0.1144  0.2449
23900W        W39794   8.516  16.692   0.626  0.0762 -0.1649  0.3856
23901W        W39795  10.890  14.629   3.537 -0.4657  0.3677 -0.2508
23902W        W39796   1.568   5.850  11.286  0.0901  0.2023 -0.1521
23903W        W39797  10.051  18.846  10.491  0.0537  0.2490  0.0548
23904W        W39798   4.340   8.436   0.811  0.1790  0.2157 -0.2601
23905W        W39799   8.786  14.095   3.741 -0.0270  0.2970  0.0564
23906W        W39800   8.778   2.863   1.396  0.0027  0.2040  0.0544
23907W        W39801   8.123  19.090  14.528 -0.0583  0.0155  0.0552
23908W        W39802   1.080   5.896  12.688 -0.1465  0.2163  0.1638
23909W        W39803  16.975   5.485   4.364  0.0714  0.0672  0.0617
23910W        W39804  12.393   0.895  15.109  0.0529  0.0177  0.0478
23911W        W39805   7.286  15.586   3.744  0.2743 -0.0112 -0.0139
23912W        W39806   8.892   8.599   4.181 -0.0671  0.1895  0.0372
23913W        W39807  11.474  14.729   0.331  0.1658 -0.2548  0.3393
23914W        W39808  13.231   6.945   0.392  0.2614 -0.1452 -0.1081
23915W        W39809   0.120   8.779  12.139 -0.3204 -0.2884 -0.0106
23916W        W39810   4.614   1.528  13.274  0.1372  0.2959  0.0712
23917W        W39811   0.876  16.171  14.217  0.3704 -0.0095  0.0411
23918W        W39812  10.174  15.566   4.837  0.1131 -0.0548 -0.3395
23919W        W39813   1.387   2.385  10.988  0.1233 -0.0923  0.3499
23920W        W39814  19.140  19.099   4.445 -0.0108  0.1704  0.3526
23921W        W39815   2.010  17.084   4.551  0.1921  0.0365  0.3594
23922W        W39816   5.128  15.125  12.791  0.3878 -0.0367 -0.1957
23923W        W39817   4.461  16.956  12.840 -0.0762  0.1142  0.1436
23924W        W39818  15.909  10.096  14.587  0.0742 -0.1608  0.1012
23925W        W39819  16.542   2.397   3.149  0.0491 -0.2986  0.1858
23926W        W39820   6.937   4.391   4.071 -0.0886 -0.0790  0.0470
23927W        W39821   3.546  16.217  11.515  0.3433 -0.2092 -0.0698
23928W        W39822   1.359  15.517   5.124 -0.0627  0.0771 -0.0663
23929W        W39823   9.671   2.351   2.674  0.1726 -0.2581  0.3231
23930W        W39824  13.427  11.752   1.298  0.0822 -0.1101  0.1143
23931W        W39825   0.685   3.574   2.840 -0.0166 -0.0283 -0.0279
23932W        W39826   4.617   2.923  11.133 -0.2749 -0.0728  0.0087
23933W        W39827  13.080   4.660   2.051  0.1876 -0.1882  0.2537
23934W        W39828  13.362  18.548   4.626  0.0843 -0.0006  0.1920
23935W        W39829  11.346   9.366   5.253  0.2455  0.1294 -0.2976
23936W        W39830  15.217   2.432   0.653  0.2074  0.0253 -0.1209
23937W        W39831   9.887   9.425  11.561  0.0475 -0.1415 -0.0554
23938W        W39832   7.751   2.120   0.765 -0.1061 -0.0174 -0.0407
23939W        W39833   4.295  14.926  10.139 -0.1827  0.0016 -0.0544
23940W        W39834  11.173  10.811  12.524 -0.2070  0.4215 -0.3062
23941W        W39835   2.259   3.881  14.111 -0.1330 -0.1785  0.0696
23942W        W39836  11.140   7.880   4.154 -0.1332  0.0365  0.0129
23943W        W39837  10.040  13.712   4.304 -0.0514  0.0242 -0.0649
23944W        W39838   1.950   7.729   5.415 -0.1357  0.0101 -0.1831
23945W        W39839   6.741   1.744   5.266 -0.0454  0.3767  0.2712
23946W        W39840  11.522   2.610  11.325 -0.1866  0.0625  0.2103
23947W        W39841   9.878   2.248   0.496 -0.4030 -0.0692  0.0406
23948W        W39842   8.014  12.641  11.598 -0.0013  0.0769 -0.0576
23949W        W39843   9.143  13.847   9.260 -0.0260 -0.3167  0.0184
23950W        W39844   2.320  11.270   0.636 -0.0552  0.1588  0.2923
23951W        W39845  11.134  15.753   4.680  0.0824 -0.3492 -0.0674
23952W        W39846   0.544  13.345   9.956 -0.2482  0.0977 -0.1870
23953W        W39847  14.817   0.550   1.493  0.0869 -0.2375 -0.2665
23954W        W39848   6.453  14.020  13.436 -0.1232  0.0807 -0.1195
23955W        W39849  16.267   0.438   4.763 -0.2112  0.1480  0.0109
23956W        W39850   3.459  17.613  10.921 -0.1078 -0.2743 -0.1402
23957W        W39851  10.938  11.697   5.643  0.2542  0.1035  0.0852
23958W        W39852  12.485  18.182   2.059  0.2961  0.5702 -0.0423
23959W        W39853  15.059  15.242   2.039 -0.1725 -0.0105  0.2908
23960W        W39854  14.511  14.140   5.001 -0.1128 -0.0410  0.0701
23961W        W39855  12.980  11.804   2.952  0.0095  0.0770  0.0463
23962W        W39856   5.368   4.478  11.898  0.1076 -0.0317 -0.2221
23963W        W39857  11.534  16.700  11.722  0.2917 -0.0128  0.1377
23964W        W39858   3.039  10.651  14.512  0.0266 -0.2015 -0.1421
23965W        W39859  11.092   3.360   5.608 -0.0511 -0.0799  0.1320
23966W        W39860  15.028   6.491  12.808 -0.0005  0.1333 -0.1619
23967W        W39861   8.123  19.188  12.976 -0.2990  0.1351  0.2332
23968W        W39862   7.613   0.328   1.883 -0.0754 -0.0993 -0.1032
23969W        W39863   6.069   4.477   3.527  0.1433 -0.0766  0.0645
23970W        W39864   2.811   0.070  14.550  0.2277 -0.2171  0.3558
23971W        W39865   7.938   4.138   2.117 -0.0912  0.0802 -0.3902
23972W        W39866  14.785   6.396   0.117  0.1689 -0.0499 -0.0476
23973W        W39867   2.498   8.139  12.165 -0.0826 -0.2160 -0.3277
23974W        W39868   8.962  16.100   4.301 -0.2739  0.2363 -0.1522
23975W        W39869  13.995  17.039   1.464 -0.4181  0.2052 -0.5696
23976W        W39870  14.984  10.013  13.510 -0.1570 -0.1094 -0.1137
23977W        W39871   9.356   8.015  12.527 -0.1361 -0.1662 -0.1339
23978W        W39872  12.944   4.636   4.505 -0.1431 -0.1085  0.0655
23979W        W39873  10.596  11.359  15.122 -0.2040  0.3726  0.4536
23980W        W39874   1.657   4.688   3.642 -0.0405  0.2828  0.2676
23981W        W39875   2.386  16.835   2.876  0.0829 -0.5632 -0.1310
23982W        W39876  10.933   1.229  12.630  0.0121  0.0162 -0.3841
23983W        W39877  14.346   3.038  13.207  0.1647  0.3970 -0.4442
23984W        W39878   6.220  19.143  12.691  0.0020  0.0699 -0.1598
23985W        W39879  10.931  10.586   0.089  0.0276 -0.0541 -0.1393
23986W        W39880   7.722  12.997  15.007 -0.0945  0.1183 -0.1173
23987W        W39881   9.902   0.468  12.662 -0.2087  0.1986 -0.2663
23988W        W39882   0.060  19.184   3.949  0.4543 -0.1131  0.0872
23989W        W39883  14.603   6.385   4.251  0.0730 -0.1201 -0.0989
23990W        W39884   2.145   2.905   4.385 -0.5950  0.1329  0.2539
23991W        W39885   5.089  17.856   0.961  0.0490  0.2658 -0.0056
23992W        W39886   7.149  18.025   2.784  0.0637  0.3363  0.1094
23993W        W39887  16.790  17.761  14.484  0.1381  0.2807  0.2485
23994W        W39888   1.957  15.659   1.901  0.0511  0.1573  0.2244
23995W        W39889   2.950   2.288  14.832  0.0205 -0.1301 -0.1873
23996W        W39890   1.138   4.829  14.737 -0.5707 -0.2837 -0.0527
23997W        W39891   3.945   2.532   9.952 -0.2204  0.4738  0.1981
23998W        W39892   4.774  19.032  15.179  0.0234  0.1239 -0.2647
23999W        W39893   4.624   4.164  13.914 -0.0968 -0.1802  0.0664
24000W        W39894  12.639  18.175   3.460  0.0925 -0.2491  0.0512
24001W        W39895   0.550  13.614   2.535  0.2013  0.0387  0.1272
24002W        W39896   9.614   4.061   2.136 -0.3169 -0.2966  0.0206
24003W        W39897   7.170   8.444  10.923  0.1353  0.0808  0.1399
24004W        W39898   2.567   2.754  11.342 -0.4011 -0.3206  0.2920
24005W        W39899   8.068  11.312   4.131  0.0704  0.1515  0.1107
24006W        W39900  14.057  17.539  11.093 -0.2171  0.0629 -0.2776
24007W        W39901  18.808  14.459  12.482  0.1742  0.0214  0.2336
24008W        W39902   9.872  13.201  11.446  0.1815 -0.2164  0.0590
24009W        W39903  13.281   9.451   4.521 -0.1898 -0.1047 -0.3003
24010W        W39904   5.945   1.551  11.167  0.0218  0.2328  0.0883
24011W        W39905  12.772  10.441   4.636 -0.0437  0.0187  0.0672
24012W        W39906   1.452   3.373   1.342  0.0866 -0.0777  0.2887
24013W        W39907   6.877  18.778  13.394 -0.2317  0.0477 -0.1991
24014W        W39908   5.937  11.454   4.198  0.1542 -0.2913 -0.1571
24015W        W39909   0.794  15.561   2.568  0.1443  0.0407  0.0071
24016W        W39910  11.539  13.309  15.166 -0.1575 -0.2916  0.1451
24017W        W39911   4.054  10.714  13.526 -0.2366 -0.1512  0.0455
24018W        W39912  15.984  10.915   2.578 -0.0082  0.0085 -0.0266
24019W        W39913  11.112   9.782   0.844 -0.5598  0.1451 -0.0488
24020W        W39914  17.579   8.336   3.326  0.0223  0.2763 -0.2165
24021W        W39915   9.645   4.961  11.703 -0.0694 -0.0301  0.0637
24022W        W39916   7.387  18.254   4.340  0.0218  0.1267 -0.2947
24023W        W39917  18.156  15.433  12.974 -0.1170 -0.1708  0.1531
24024W        W39918  11.810   0.241  10.861  0.0198  0.0115 -0.2114
24025W        W39919   3.877   8.888  12.870 -0.0386  0.0983  0.2079
24026W        W39920   8.928  11.688  10.908  0.0493 -0.1970  0.2681
24027W        W39921   8.269   9.526  13.101  0.0435 -0.1211  0.0197
24028W        W39922   7.048   6.218   1.780 -0.2048  0.1136  0.1612
24029W        W39923   9.920   7.053  12.986  0.3141 -0.2069 -0.2118
24030W        W39924   6.505  15.252   2.088  0.1537  0.2564 -0.0495
24031W        W39925   6.563   1.889  11.743  0.2172  0.0534 -0.1162
24032W        W39926   7.898  18.338   3.109 -0.1309  0.0232  0.1513
24033W        W39927   4.795  11.860   2.360  0.1267 -0.1340  0.2464
24034W        W39928   1.660   0.359  15.096  0.1340  0.1121 -0.2521
24035W        W39929   1.571  18.916   4.860 -0.0145 -0.1894 -0.0448
24036W        W39930   0.359   9.174  12.659  0.1467  0.3188 -0.1692
24037W        W39931   2.432   3.348   4.213  0.0978  0.0742  0.2003
24038W        W39932  16.216   8.133   5.663 -0.0365  0.2500 -0.2189
24039W        W39933   4.497  10.391  11.344 -0.0281 -0.3168  0.0025
24040W        W39934  14.323   3.482   6.252  0.1945 -0.0809 -0.0023
24041W        W39935  10.858   8.645   4.690 -0.0831 -0.3327  0.0454
24042W        W39936   6.556   7.807  10.355  0.1239  0.5047 -0.0874
24043W        W39937  12.068   9.792  13.511  0.0297 -0.0870 -0.1287
24044W        W39938   2.335  14.708   1.236 -0.0844 -0.2252 -0.3547
24045W        W39939  13.200  10.966   1.882  0.2832 -0.1089 -0.1042
24046W        W39940   2.978   1.312   5.649  0.4482  0.0052  0.2705
24047W        W39941   5.290   1.226   4.315 -0.0362  0.2265 -0.3555
24048W        W39942   2.660   0.182   2.018  0.0034 -0.1184 -0.0208
24049W        W39943   5.123   5.354   2.801  0.3641  0.2486 -0.0938
24050W        W39944  19.154  14.957  13.869 -0.1993  0.0936  0.4447
24051W        W39945   8.905   8.718   3.144 -0.0228  0.3477  0.0316
24052W        W39946  11.630  12.394  12.340  0.0610 -0.1072 -0.1670
24053W        W39947  16.193  15.974   0.519 -0.1147  0.2039 -0.2284
24054W        W39948   9.314   1.205  14.992 -0.0753 -0.0964  0.3966
24055W        W39949  14.683  14.896   3.430 -0.0737  0.3657  0.0120
24056W        W39950   1.217   6.469   1.451 -0.0581  0.5213  0.2503
24057W        W39951   3.447  15.426   0.534  0.0846 -0.0513  0.1945
24058W        W39952  13.389   4.936   4.820 -0.1787  0.0272  0.2551
24059W        W39953   2.955  11.524   4.426 -0.0561 -0.0731 -0.4045
24060W        W39954   2.101   5.780  11.345 -0.0781  0.2594  0.2692
24061W        W39955  11.207  15.362   2.318 -0.3936  0.0843 -0.0863
24062W        W39956  14.452  17.198  11.857 -0.1027 -0.0291  0.1059
24063W        W39957   7.285   2.288  11.960  0.1668  0.1856  0.0326
24064W        W39958   4.558  17.199  14.985 -0.1393 -0.0340  0.1595
24065W        W39959  17.302  18.216   3.475 -0.1696 -0.1693  0.1533
24066W        W39960  15.688   6.894   9.753  0.0407  0.1568 -0.1709
24067W        W39961   7.518  12.592   4.867  0.0918 -0.0636 -0.0458
24068W        W39962  10.502  18.719  10.698  0.4975 -0.2445  0.1852
24069W        W39963  10.807  12.121   2.648  0.0285 -0.5016 -0.0287
24070W        W39964  12.019   4.421   2.046  0.0911 -0.1745  0.7661
24071W        W39965  14.715  13.051   3.649 -0.0696 -0.1193 -0.3422
24072W        W39966  12.974  10.998   5.582 -0.1548 -0.1658  0.0285
24073W        W39967   0.364  18.135   2.784 -0.1481  0.2562 -0.0067
24074W        W39968   1.885   3.599   4.324 -0.0603 -0.3469 -0.2499
24075W        W39969   0.240   8.220  11.459 -0.2098 -0.2590  0.0863
24076W        W39970   1.950  16.820   0.987 -0.0413 -0.2282 -0.2298
24077W        W39971  14.903   3.406   1.295  0.1277  0.1475 -0.0878
24078W        W39972   4.040   0.609   0.985  0.2785 -0.2572  0.0491
24079W        W39973  16.827   9.303  12.498 -0.1463  0.5109 -0.0125
24080W        W39974   3.472   4.964  13.593 -0.1693 -0.2102 -0.2997
24081W        W39975   4.478   4.705   5.427 -0.4881  0.0341  0.1578
24082W        W39976   9.718  17.399   0.790 -0.1531 -0.1703  0.2654
24083W        W39977  17.759   8.400   1.184 -0.2282  0.3435 -0.2027
24084W        W39978  11.182  10.088  11.003 -0.0455  0.4506  0.0401
24085W        W39979   5.913  14.125   0.712  0.1838 -0.2332 -0.2540
24086W        W39980   1.010  11.003  11.182  0.1747 -0.1185 -0.2205
24087W        W39981  13.622   5.810   4.983  0.2658  0.4715 -0.1811
24088W        W39982   6.577   5.653   3.094  0.1637 -0.1661 -0.1188
24089W        W39983   6.050   6.685   3.821  0.0263 -0.0832 -0.1781
24090W        W39984   1.785  12.916  11.108 -0.4158  0.1596  0.0822
24091W        W39985   0.571  10.446   5.643  0.1773  0.0192  0.0049
24092W        W39986   1.914   1.002   0.950 -0.1815  0.1286 -0.2662
24093W        W39987  13.793   9.505  13.236  0.0464 -0.3039  0.5129
24094W        W39988  18.329   9.010  15.141  0.0348 -0.1019  0.1487
24095W        W39989   5.192   3.494   3.240  0.2470 -0.1609  0.2367
24096W        W39990  11.467   9.649  14.320 -0.0587 -0.2573  0.2362
24097W        W39991   5.821   7.922  15.118 -0.3174 -0.0160  0.4077
24098W        W39992  10.345   6.952   2.469  0.0927 -0.3404  0.1896
24099W        W39993  14.575   2.622   0.160  0.0461  0.0028 -0.2097
24100W        W39994   6.729  18.696   1.820 -0.0413  0.0962  0.1082
24101W        W39995  17.411  14.443  10.744  0.2622 -0.1558  0.0993
24102W        W39996   4.161  13.276  15.128  0.2242  0.0049 -0.2511
24103W        W39997  15.394   6.643  12.076 -0.0084 -0.2145 -0.0173
24104W        W39998   8.413  14.961   1.092  0.1018 -0.0881  0.2701
24105W        W39999   1.982   8.218  14.805  0.0978 -0.0125 -0.0443
24106W        W40000   3.565  15.916  12.353 -0.1957 -0.4820  0.0911
24107W        W40001   6.455   1.736   2.381 -0.2146 -0.1576  0.2389
24108W        W40002  11.066   8.374  10.619 -0.2364  0.0902  0.1190
24109W        W40003  10.391  14.085   0.242 -0.0785  0.0658 -0.0300
24110W        W40004  12.945  10.732  14.127  0.1779 -0.0630  0.3418
24111W        W40005   2.508   3.376   2.386 -0.2301 -0.1437  0.1399
24112W        W40006  15.379  10.305  14.691 -0.2539  0.0096  0.0857
24113W        W40007   0.030  14.390  14.454  0.1410  0.4682  0.2454
24114W        W40008   2.585  15.627   2.098  0.0822 -0.5029 -0.3922
24115W        W40009  12.310   4.335   1.505  0.2716 -0.0891 -0.2057
24116W        W40010  19.024   1.979   4.813  0.2164 -0.1261 -0.1894
24117W        W40011   9.210   5.634  12.944 -0.3775  0.0923 -0.1164
24118W        W40012   4.035  16.387   4.516  0.0303  0.0282  0.1686
24119W        W40013  14.460   2.732   4.147 -0.0732  0.3425 -0.1582
24120W        W40014  10.427  16.737  11.124  0.0371 -0.4054  0.3946
24121W        W40015   3.019  17.085   4.217  0.2161 -0.3098 -0.1125
24122W        W40016  15.670  12.131  10.871  0.1441 -0.2044 -0.1783
24123W        W40017   5.409   0.040   1.745 -0.0556  0.0019  0.0699
24124W        W40018   1.665  11.386   0.050 -0.3156  0.2207  0.1503
24125W        W40019  18.198   0.163  13.730 -0.0135 -0.2087  0.1232
24126W        W40020  15.801   1.293  13.642  0.7383  0.1977 -0.1363
24127W        W40021   2.891   9.997  10.658  0.2371 -0.0590 -0.3130
24128W        W40022   3.357  12.729  14.737  0.1963 -0.0193 -0.3736
24129W        W40023  16.493   7.969   3.833 -0.0505  0.2087  0.2187
24130W        W40024  17.942   5.548   4.882 -0.1068 -0.1060  0.4008
24131W        W40025  16.024  10.983   1.351 -0.0485 -0.3319 -0.0929
24132W        W40026  18.043   3.171   1.594  0.1045  0.2865  0.2744
24133W        W40027  17.069   2.164   1.637 -0.0878  0.1059  0.0018
24134W        W40028   6.710  16.682  13.372 -0.0106 -0.0429  0.1815
24135W        W40029   3.867  17.829  11.272 -0.1194 -0.3522  0.3269
24136W        W40030  12.751   7.019  14.604 -0.3160 -0.2461 -0.0558
24137W        W40031   4.259  10.104   4.920  0.4724 -0.0433  0.1197
24138W        W40032   8.677  12.715  13.125  0.3304 -0.0871  0.5239
24139W        W40033   3.322  11.405   1.503 -0.2558 -0.0379 -0.0614
24140W        W40034   8.024  12.690   0.683  0.0276 -0.4055 -0.0456
24141W        W40035   9.907   6.479   3.773 -0.0484 -0.1194 -0.2353
24142W        W40036   2.979  16.342  13.128 -0.0776  0.0557  0.1969
24143W        W40037   7.541  12.807   2.217  0.0957 -0.2374 -0.3747
24144W        W40038  19.090   7.742   2.321 -0.3465  0.2325 -0.3819
24145W        W40039   0.720  10.374  10.518  0.0161  0.2333 -0.0207
24146W        W40040  11.891   9.716   2.324 -0.2496 -0.1838  0.1006
24147W        W40041   9.086  10.765  14.957  0.0225 -0.3415  0.2370
24148W        W40042   6.940  10.297  12.958 -0.1332  0.1420 -0.1429
24149W        W40043  17.777   2.448   2.627  0.2170  0.0723 -0.0882
24150W        W40044   9.211   3.494  11.132 -0.3750  0.2759 -0.2928
24151W        W40045   7.538  19.018  11.759 -0.0226  0.3829 -0.0770
24152W        W40046   4.973  13.731  11.225 -0.0261  0.2013  0.2558
24153W        W40047   1.121   7.086   5.226  0.0978  0.2355 -0.0693
24154W        W40048   7.679  13.821   5.553  0.3134 -0.0908  0.0683
24155W        W40049  13.568  16.543  14.285 -0.0188  0.0132  0.0598
24156W        W40050  13.961  11.026  10.414 -0.4251  0.1615  0.2217
24157W        W40051   3.013   2.530   9.518 -0.0206 -0.0153 -0.2329
24158W        W40052  12.244  15.007  15.080 -0.1545  0.0269  0.0381
24159W        W40053   1.048   8.092   1.144 -0.4410 -0.4240 -0.2170
24160W        W40054  11.428  18.796  13.203  0.0290  0.1526 -0.1369
24161W        W40055   4.061  12.184   4.205 -0.4758 -0.1639 -0.0031
24162W        W40056   4.203  14.677   6.040 -0.4205 -0.0029 -0.2584
24163W        W40057  11.791   0.492  11.779  0.0660 -0.1236  0.2187
24164W        W40058  12.418  18.846  12.054  0.1107 -0.2750  0.2330
24165W        W40059   4.200   3.253   1.154  0.2235  0.3770  0.1177
24166W        W40060   8.764  13.376   0.312  0.0148  0.1450 -0.1039
24167W        W40061  16.471  19.150   3.939  0.1952  0.1518  0.2284
24168W        W40062   2.854   1.043   9.799  0.1479  0.2380 -0.3339
24169W        W40063  15.581  18.812  12.959  0.0366 -0.0876 -0.2788
24170W        W40064  10.356  13.910   2.204  0.3777  0.0431  0.1100
24171W        W40065  13.264   4.024  11.619 -0.0034 -0.0310 -0.1757
24172W        W40066  18.792  10.831   2.305  0.1424 -0.0959 -0.2188
24173W        W40067  11.723   7.579  11.574  0.1925 -0.2732 -0.2053
24174W        W40068  18.551  10.090   9.927  0.0062 -0.0336  0.2204
24175W        W40069  13.075   5.287   0.898 -0.0683  0.0237  0.0389
24176W        W40070  10.695  13.866  13.552  0.3269 -0.2318 -0.0771
24177W        W40071  11.408   3.364  10.113 -0.1997 -0.2776 -0.0204
24178W        W40072   1.673   2.434   3.810  0.1180  0.2577 -0.0513
24179W        W40073  12.390   9.770   4.964  0.2131 -0.2309 -0.0163
24180W        W40074  13.319  10.547   2.962 -0.1536 -0.1981  0.1690
24181W        W40075   7.207  13.847   2.948  0.0672 -0.3007 -0.3554
24182W        W40076   2.457   2.921  12.830 -0.5057 -0.0615 -0.1211
24183W        W40077   6.367   9.161   1.458 -0.1699 -0.0244  0.2370
24184W        W40078  10.337  14.812  13.557  0.2486  0.0460 -0.0554
24185W        W40079  18.791   4.512   3.890 -0.1590 -0.2471  0.2045
24186W        W40080   5.085  10.725  11.189 -0.2208 -0.1980  0.0169
24187W        W40081   4.305  15.024   0.038  0.0362 -0.1615  0.1290
24188W        W40082  18.212  15.135   1.756 -0.2073 -0.2442  0.0228
24189W        W40083  15.121   3.429   2.104 -0.2483 -0.1315 -0.1062
24190W        W40084   3.751  17.282  11.138 -0.2047 -0.1704 -0.0583
24191W        W40085   1.250  14.414   4.387 -0.2707 -0.0773  0.2089
24192W        W40086  13.066   1.807   0.825  0.1526 -0.1191  0.2070
24193W        W40087   7.330  12.529  11.127  0.1845  0.2426  0.1214
24194W        W40088  10.819  14.056  10.830  0.2771 -0.1989  0.0851
24195W        W40089   5.544  19.010   2.192  0.0369  0.1271  0.0466
24196W        W40090   8.610  17.566  14.118  0.1476 -0.5542  0.0860
24197W        W40091  16.075   4.162  10.899  0.0190  0.1421  0.2287
24198W        W40092  15.488  12.032  12.426 -0.1224  0.1484  0.2846
24199W        W40093   6.224   1.059   1.459 -0.1790  0.0432 -0.0121
24200W        W40094  16.362   1.824  14.086  0.3480  0.0861  0.1745
24201W        W40095  15.147   7.445   0.087 -0.0055  0.2577  0.1163
24202W        W40096   7.330   9.350  10.253  0.1215  0.0967  0.2989
24203W        W40097  17.219  10.376   2.148  0.1814  0.0069  0.3763
24204W        W40098  12.139  12.612  12.085  0.2371  0.2384  0.0831
24205W        W40099   6.160   7.313   2.383  0.0652 -0.2929  0.2112
24206W        W40100   8.780   0.183   4.860 -0.0182 -0.0102  0.2938
24207W        W40101  14.881   2.753  13.828  0.0960  0.2357  0.3726
24208W        W40102   3.179  11.405   1.972  0.0694 -0.2844  0.1972
24209W        W40103  14.831  10.525  14.749 -0.0961  0.4353  0.2572
24210W        W40104  15.752   1.788  13.785 -0.1885  0.1215 -0.0437
24211W        W40105   0.019   4.767   4.555 -0.0362 -0.1293 -0.0348
24212W        W40106  17.783   1.125  11.949 -0.3440  0.0301 -0.1903
24213W        W40107  16.252   2.801   0.012 -0.0651 -0.1234 -0.1719
24214W        W40108  16.599   8.990  12.140 -0.1069 -0.1709 -0.2853
24215W        W40109  16.572   8.153  12.229  0.2180 -0.1354  0.0181
24216W        W40110   0.909   3.362   5.665 -0.0628  0.2228  0.2737
24217W        W40111  15.394   1.961  14.195  0.1535 -0.1510 -0.0228
24218W        W40112   3.360  18.696   0.613 -0.2597  0.0357 -0.2063
24219W        W40113   7.768   5.843  10.926  0.0442  0.3116  0.0319
24220W        W40114   9.765  16.762  14.395 -0.2232 -0.2386 -0.0391
24221W        W40115   7.797   7.646   2.837  0.2128 -0.3702 -0.1762
24222W        W40116  14.120  18.913   4.636  0.0080 -0.0899 -0.1524
24223W        W40117   5.241  17.420  13.721  0.3647  0.0079  0.0435
24224W        W40118  13.316   0.764   0.826 -0.0941 -0.0186 -0.0092
24225W        W40119   8.672  10.346  12.399 -0.1263 -0.0062 -0.2823
24226W        W40120  16.386   8.808   2.065 -0.0340 -0.0278 -0.4072
24227W        W40121   7.821  17.662  13.008 -0.3551  0.0439  0.2287
24228W        W40122   2.909   9.784  13.293  0.0347 -0.0189 -0.0381
24229W        W40123   5.577  15.672   2.412  0.1223 -0.0260  0.0595
24230W        W40124  12.523   8.150   5.397 -0.1972 -0.1873  0.2727
24231W        W40125   3.577   7.519   1.865 -0.0998  0.0949 -0.0500
24232W        W40126  13.403   2.905   2.433 -0.1508 -0.0701  0.1608
24233W        W40127  12.643   0.125  10.894  0.4012  0.0126  0.1193
24234W        W40128  17.842   4.218  12.493 -0.0405  0.1664  0.0597
24235W        W40129   3.639  13.480   3.299 -0.2392  0.2078  0.2759
24236W        W40130  10.186   9.541  13.733  0.2179 -0.2433 -0.0360
24237W        W40131  10.359   0.584   4.268  0.0413  0.0587  0.2851
24238W        W40132   2.179  13.559   2.574 -0.0512 -0.1834  0.1630
24239W        W40133  13.683   1.476  13.807 -0.0180 -0.0931  0.0818
24240W        W40134   0.837   3.726  11.157 -0.1997  0.3581 -0.5822
24241W        W40135  15.587   3.054   2.051  0.0912 -0.2553  0.1264
24242W        W40136   3.793   6.320   1.210 -0.0580 -0.1067  0.0736
24243W        W40137   5.634  14.072   0.168  0.1843 -0.1383 -0.0449
24244W        W40138   1.458  10.275   2.213 -0.0824 -0.0455 -0.0705
24245W        W40139  10.772   9.594  11.822 -0.1951 -0.1520 -0.0323
24246W        W40140  18.085   7.448  10.106 -0.2217 -0.1502 -0.0459
24247W        W40141  10.791   1.632   4.291  0.2667  0.1887 -0.1041
24248W        W40142   4.766  19.118   1.113 -0.0222  0.3120  0.0213
24249W        W40143  16.684   2.548   0.003 -0.0749  0.0206 -0.2709
24250W        W40144  12.229   2.030  11.728  0.1974 -0.0675 -0.0072
24251W        W40145  16.578   2.353   2.529  0.1036  0.3842 -0.0093
24252W        W40146  11.608  15.955   4.929  0.1073 -0.0252  0.2331
24253W        W40147   9.083  13.022   4.059  0.0254  0.0726  0.0107
24254W        W40148  13.603  15.094   2.267  0.0250 -0.4175  0.0488
24255W        W40149   6.024   2.866  14.168  0.0079  0.2072 -0.0346
24256W        W40150   8.034  18.608  14.193  0.0881 -0.0442 -0.0333
24257W        W40151   8.851  12.900  11.329 -0.0303  0.0735 -0.0718
24258W        W40152   1.565   0.701  10.205  0.0063 -0.0607 -0.1487
24259W        W40153  10.639   4.049   0.179 -0.0166 -0.1818 -0.0310
24260W        W40154  13.283  18.231   0.134 -0.2120  0.1425 -0.0626
24261W        W40155  10.373   6.620   1.748  0.0682  0.0018 -0.3830
24262W        W40156  15.848   2.502  14.913 -0.0587  0.1373  0.1119
24263W        W40157   1.463  11.805  13.283  0.0504  0.0543  0.1581
24264W        W40158  10.677  19.037   1.587  0.0338  0.1775 -0.1514
24265W        W40159  17.887   8.220   0.357  0.1243  0.0288  0.3010
24266W        W40160   9.608   3.965   1.284  0.1458  0.1834 -0.1478
24267W        W40161   6.562   5.012   2.587  0.2053  0.2811  0.0266
24268W        W40162  10.010   7.128   4.277 -0.4298  0.0307  0.0297
24269W        W40163  11.136  18.609  11.549  0.2683 -0.0125 -0.1311
24270W        W40164  11.542   6.637  11.701  0.0366  0.0505 -0.0268
24271W        W40165   9.375  12.111  12.587 -0.1123 -0.0318 -0.1779
24272W        W40166   2.933   8.055  11.122  0.0276  0.1266 -0.0739
24273W        W40167  18.797  15.154  14.133  0.1095 -0.3867 -0.2552
24274W        W40168   8.037   1.688   0.851  0.1100 -0.3196 -0.4048
24275W        W40169   2.201  16.807   0.508  0.0443  0.1589  0.4573
24276W        W40170   1.491   7.489  14.762  0.4460 -0.1347 -0.2345
24277W        W40171   4.283   0.920  11.618 -0.0377  0.1421 -0.2178
24278W        W40172   2.164  14.777  13.915 -0.3103  0.2401  0.0759
24279W        W40173   3.665   6.134  10.784 -0.0758  0.0613 -0.0588
24280W        W40174  18.237   5.033  11.542  0.0181 -0.0467  0.2929
24281W        W40175   0.551   1.554  13.667  0.2673 -0.5871  0.0033
24282W        W40176   6.749   7.704  11.119 -0.2838 -0.2128  0.4547
24283W        W40177   8.425  12.901   0.859 -0.2477  0.1611 -0.0553
24284W        W40178  15.393  19.099  14.767 -0.3407  0.0839  0.0484
24285W        W40179  15.084   1.559   4.864 -0.2724  0.2263  0.0178
24286W        W40180  11.722   6.234   3.488  0.0567 -0.3216 -0.1405
24287W        W40181   1.124  16.469  13.452 -0.1631 -0.0879  0.0592
24288W        W40182   0.124  17.965   0.150 -0.0782  0.2263 -0.1473
24289W        W40183  14.188  13.029   1.835  0.1540 -0.2633 -0.0970
24290W        W40184   2.525   6.795  11.446  0.0290  0.4729 -0.2125
24291W        W40185  11.573  18.923  14.923 -0.1092 -0.1368 -0.1107
24292W        W40186   3.021   9.240   1.942  0.0876  0.0299 -0.1928
24293W        W40187   1.333  14.613  12.922 -0.1430 -0.0507  0.0970
24294W        W40188  14.905  15.792  13.314  0.0491  0.2705 -0.0746
24295W        W40189   4.612  17.395  12.699  0.0120  0.0703 -0.0657
24296W        W40190   6.164   3.519   4.971  0.0494  0.2874  0.0007
24297W        W40191  15.411  16.444   1.486  0.0873 -0.3402 -0.0734
24298W        W40192  10.780   5.422   2.626  0.1135  0.2126 -0.0057
24299W        W40193   2.045   3.838   1.544 -0.0715  0.1339  0.1698
24300W        W40194   0.280   4.004   5.108 -0.2838  0.2133 -0.2201
24301W        W40195  19.030  10.769   9.341  0.0124 -0.0180  0.3507
24302W        W40196   1.429  13.534   3.430 -0.1402  0.2187  0.1370
24303W        W40197   8.500   4.304   3.401  0.3988 -0.1288 -0.0034
24304W        W40198  10.373  13.529  13.189  0.0214  0.5094 -0.1325
24305W        W40199   7.544   1.737  14.121  0.3853 -0.2736  0.1612
24306W        W40200   5.772  16.701  10.044 -0.1094  0.0453  0.2134
24307W        W40201  17.639   0.285   0.231 -0.0014 -0.0624 -0.0483
24308W        W40202  12.654  13.396  12.238  0.2408 -0.0422  0.0580
24309W        W40203   1.706   1.005   2.552 -0.3590 -0.2187 -0.0862
24310W        W40204  16.196  14.241   2.792 -0.0286 -0.2852 -0.0187
24311W        W40205   2.057   4.520   1.343  0.1889  0.0457  0.1036
24312W        W40206  13.763  14.775   3.597  0.5343 -0.2306  0.0780
24313W        W40207  12.798  15.939   1.494  0.3403  0.0220 -0.2538
24314W        W40208   1.521  13.588   3.958  0.2251  0.2159 -0.1103
24315W        W40209   5.206   9.888  12.474 -0.0644 -0.1436 -0.2433
24316W        W40210   2.574  12.632  14.256 -0.1907  0.3380 -0.0208
24317W        W40211   6.979  13.308   4.602 -0.1256  0.1127  0.3635
24318W        W40212   1.689  10.175   2.732 -0.1008 -0.0532  0.1699
24319W        W40213   9.213  16.453  11.640 -0.0695  0.1468 -0.1155
24320W        W40214   2.735   8.278  14.012 -0.1075  0.1044 -0.1022
24321W        W40215   2.617  17.293  13.384 -0.1333 -0.2896  0.1420
24322W        W40216   6.120   2.527  12.709 -0.1958  0.1033  0.1817
24323W        W40217  14.234   6.439   2.630 -0.1389  0.1387 -0.0716
24324W        W40218   3.870  12.880   4.486  0.3210 -0.1499 -0.1793
24325W        W40219   2.340   9.629   5.066 -0.0946 -0.3735 -0.1351
24326W        W40220  13.341  10.151   0.332  0.0147  0.1684  0.0568
24327W        W40221   0.031   1.411   2.060 -0.1140 -0.4101  0.2294
24328W        W40222   2.221   2.596   3.440  0.4544  0.0049 -0.3503
24329W        W40223  13.319  12.025  11.993 -0.0409  0.4481  0.2018
24330W        W40224   5.135  14.791   3.408  0.1231 -0.1207 -0.3099
24331W        W40225   8.645  16.072   0.495 -0.0276  0.1312  0.1881
24332W        W40226   3.919  10.601   1.861  0.2248  0.2234 -0.1938
24333W        W40227  13.773   4.710   5.192  0.0348 -0.1705  0.4323
24334W        W40228   3.172   5.887  12.394 -0.1152 -0.1278  0.0526
24335W        W40229   4.573   8.788   2.771  0.1832  0.1447  0.1034
24336W        W40230   5.448  12.984  11.026  0.0491  0.0280 -0.1402
24337W        W40231   3.551   5.871  10.251 -0.2002  0.0362  0.0775
24338W        W40232  11.008  17.902   4.257  0.1257  0.1214  0.1171
24339W        W40233   2.130  11.040  13.279 -0.2030 -0.1237  0.1177
24340W        W40234   7.370   8.038  12.195  0.0723 -0.2197  0.0210
24341W        W40235  11.316  15.580  12.970 -0.3170 -0.0311  0.0544
24342W        W40236  14.410   8.700  14.667 -0.0034 -0.1462 -0.3654
24343W        W40237   6.500  17.348  13.018 -0.1012  0.0511  0.2719
24344W        W40238  17.932  18.365  14.008 -0.1291  0.0426  0.1147
24345W        W40239  10.522   9.467   4.299  0.1522 -0.1915  0.1537
24346W        W40240   3.627   1.295   0.947 -0.0101 -0.0098 -0.1390
24347W        W40241  11.023   5.530  13.925 -0.1748  0.3268  0.1007
24348W        W40242  11.090  17.504  12.534 -0.0983 -0.1127 -0.0992
24349W        W40243   4.026  12.475   3.209  0.1143 -0.1016 -0.4280
24350W        W40244   0.986  15.142  12.214  0.1920  0.1722 -0.0851
24351W        W40245  12.521   5.390   1.190  0.6370 -0.4774  0.2589
24352W        W40246   4.071   5.606   0.165  0.0056  0.1637 -0.1132
24353W        W40247   6.717   1.093  10.545 -0.0591 -0.0627  0.1360
24354W        W40248  15.877  15.411   2.434 -0.0131  0.0466 -0.0025
24355W        W40249   0.747   4.529   5.679 -0.2187 -0.1941 -0.1864
24356W        W40250  17.804  14.401  15.056 -0.3801  0.0198 -0.1129
24357W        W40251  12.807   4.973   1.231  0.0528 -0.1436  0.3505
24358W        W40252  15.532   7.165  11.805 -0.1718 -0.1189 -0.1392
24359W        W40253   0.969   4.308   4.299  0.2380  0.0063 -0.0740
24360W        W40254   9.123   4.177  12.061  0.0856 -0.0557  0.1232
24361W        W40255   3.643  19.074   1.897 -0.0227 -0.2016 -0.2828
24362W        W40256  17.939  12.092   3.559 -0.1248 -0.1463 -0.3354
24363W        W40257  11.472   2.055   5.828  0.0780 -0.0419  0.0239
24364W        W40258   3.943  11.288  14.967  0.0212 -0.1864  0.1031
24365W        W40259  12.398   4.849   5.119 -0.2892  0.0168  0.4310
24366W        W40260   7.126  17.265   5.371  0.1465 -0.1412  0.0450
24367W        W40261  16.912  10.978   0.818  0.1574  0.1151  0.0599
24368W        W40262  18.821   6.684  13.761 -0.0920 -0.2272 -0.2587
24369W        W40263  16.942   9.417   4.525 -0.1409  0.3108  0.0414
24370W        W40264  13.527   2.573  11.446  0.1523 -0.0302  0.2632
24371W        W40265  12.146   8.954   4.975  0.0822  0.5761  0.0649
24372W        W40266   1.809   2.906  13.092 -0.1373 -0.1729 -0.1668
24373W        W40267  13.111  18.232   3.351  0.1423 -0.0451 -0.1867
24374W        W40268   0.899   6.006  10.824 -0.0112  0.1257  0.1065
24375W        W40269  18.922  17.700  10.214 -0.1467 -0.3435 -0.0114
24376W        W40270  13.895   3.633   1.481 -0.2255  0.2425 -0.1513
24377W        W40271   5.606   5.290  15.129 -0.4394 -0.0849 -0.1777
24378W        W40272  18.104   3.991   9.870 -0.1618  0.0801 -0.1532
24379W        W40273   6.592  16.354  11.170  0.3560  0.2616  0.1838
24380W        W40274   7.958  13.511   0.137 -0.2027  0.0532  0.2592
24381W        W40275   3.497  13.613  14.529 -0.0077 -0.1041 -0.0133
24382W        W40276   3.565   7.419  11.506 -0.1395 -0.0838 -0.0469
24383W        W40277  12.160   0.355  13.279  0.0068 -0.0681  0.0781
24384W        W40278  11.613   0.444   2.189  0.1349 -0.0951  0.1328
24385W        W40279  18.511  12.777  13.797 -0.0117  0.1824  0.1769
24386W        W40280  13.984   7.775  12.640  0.0142  0.0838  0.2048
24387W        W40281   4.207  12.855   1.824 -0.1220 -0.2474 -0.4337
24388W        W40282  10.529   5.976  13.262  0.4229  0.3521  0.1383
24389W        W40283   6.224  18.143   0.365  0.3029 -0.0317  0.0839
24390W        W40284  10.858   7.751   3.365  0.2842 -0.0870 -0.0504
24391W        W40285  16.850  15.928   1.976  0.2383 -0.0793 -0.0442
24392W        W40286   6.989  19.076  11.334  0.1773  0.0814  0.1746
24393W        W40287   5.336   9.531  15.088  0.0075 -0.2029  0.1289
24394W        W40288  12.243   8.913   2.731  0.0417  0.1254  0.0147
24395W        W40289   1.256  17.228   2.393 -0.1114  0.0075  0.5495
24396W        W40290   5.625   4.251   0.761 -0.0724  0.2362 -0.0292
24397W        W40291  12.153   2.736  12.655 -0.0733 -0.4504 -0.4589
24398W        W40292  15.346   4.861   3.142 -0.2757 -0.3052 -0.0132
24399W        W40293   2.718  11.411  10.710  0.2326  0.0714 -0.1145
24400W        W40294  12.443  19.188   4.314  0.2577  0.0338  0.0301
24401W        W40295  18.295  12.446  14.095  0.1239 -0.0735  0.1697
24402W        W40296  15.792  16.306  12.142 -0.1942 -0.0065  0.0362
24403W        W40297   2.055   5.237  10.811 -0.1533  0.0842  0.1943
24404W        W40298  12.386  11.316  13.905 -0.0304  0.5061 -0.0553
24405W        W40299   3.954   7.948   1.372  0.1515  0.0800 -0.0155
24406W        W40300  18.173   1.672  11.913  0.2736 -0.0437  0.1681
24407W        W40301   0.521   8.897   3.438  0.2754 -0.0203  0.0784
24408W        W40302   0.006  18.181   5.779  0.0933  0.2833 -0.0195
24409W        W40303  17.734   6.925   2.317 -0.0167  0.0850 -0.2695
24410W        W40304  18.848   2.340   2.266 -0.1273 -0.4252  0.0113
24411W        W40305  11.450  15.837   1.177  0.1756 -0.1118 -0.1656
24412W        W40306  13.509   4.439   2.236 -0.2747 -0.2345 -0.2705
24413W        W40307   9.320  15.931  11.305 -0.2939  0.0038 -0.0030
24414W        W40308  14.123   5.766   2.789  0.1759  0.1988  0.0105
24415W        W40309  17.102  14.250  13.630 -0.1027  0.1119  0.1802
24416W        W40310  18.108   0.019  15.131  0.3552  0.1237  0.0199
24417W        W40311   1.211  10.585  13.908  0.4183 -0.2159  0.0712
24418W        W40312   4.090   6.484  10.912 -0.2104  0.1904  0.1288
24419W        W40313   7.509  14.758   2.521  0.0435  0.0922  0.0088
24420W        W40314  12.421  12.971  13.869 -0.4459 -0.2358 -0.0895
24421W        W40315   0.452   8.365  13.137  0.2673  0.4473 -0.0689
24422W        W40316   6.516  15.348   0.048  0.0553 -0.2799 -0.2826
24423W        W40317  10.301  17.290   2.819  0.1250 -0.4139  0.1995
24424W        W40318  15.636   8.807  12.679  0.1889  0.1992  0.1301
24425W        W40319  15.222   1.270   4.063 -0.0601  0.2343 -0.0332
24426W        W40320   3.787  14.604   1.138 -0.0911  0.1181  0.1608
24427W        W40321  12.360  12.207   0.841  0.0211 -0.3513 -0.1124
24428W        W40322  11.289   7.072   1.002  0.1076  0.2420  0.5235
24429W        W40323   7.028  17.796   4.656  0.0834  0.2025  0.1065
24430W        W40324   9.366   6.050   9.484 -0.1418 -0.0522 -0.0160
24431W        W40325   9.452   7.908   2.657  0.2256 -0.0722  0.1078
24432W        W40326   6.426  11.379   0.199  0.1681  0.2424 -0.2227
24433W        W40327  16.905   5.998   0.113  0.0925 -0.0262  0.0219
24434W        W40328   6.211   4.952   0.279 -0.0349 -0.0314  0.0566
24435W        W40329   8.636  14.407   1.900 -0.1308  0.1026  0.5677
24436W        W40330  13.961   3.993  11.749  0.1265  0.0515  0.1636
24437W        W40331   6.849  12.022   4.491 -0.0564 -0.0491 -0.0894
24438W        W40332   3.467  17.045   5.703  0.2635 -0.2765  0.1091
24439W        W40333  12.672   7.572   0.507 -0.0034  0.0192 -0.1111
24440W        W40334  17.049   6.613   0.709 -0.1068  0.0303  0.0298
24441W        W40335  16.452  11.285  10.184 -0.0123  0.3112  0.1756
24442W        W40336   3.751   9.555   0.040  0.0850  0.1067  0.0460
24443W        W40337   3.193  15.370  11.515  0.2922  0.1092  0.0260
24444W        W40338   7.300  16.927   4.614  0.1034  0.2170  0.1700
24445W        W40339   7.131  16.589  12.889  0.3664 -0.2705 -0.5981
24446W        W40340   1.323   7.807  13.771 -0.1332 -0.2161  0.0861
24447W        W40341  19.167  18.429   2.484 -0.3063 -0.0384  0.0114
24448W        W40342  13.410  19.123  13.699  0.1836  0.1301  0.3583
24449W        W40343  13.670  14.124  12.604 -0.3860 -0.2149 -0.5417
24450W        W40344   4.506   0.997   2.010 -0.1546 -0.1089 -0.2255
24451W        W40345   7.603   9.059   4.150  0.0122  0.0887  0.2961
24452W        W40346  16.785  12.644   0.158  0.1021 -0.3185  0.1457
24453W        W40347  19.070   5.636   3.483 -0.2135  0.0986 -0.0205
24454W        W40348  16.827   5.128   2.026 -0.1084  0.2504  0.3150
24455W        W40349  11.658   7.640   5.119  0.1216  0.1624 -0.0761
24456W        W40350   8.166   8.086  12.110  0.0591 -0.0309 -0.2477
24457W        W40351   9.366   5.185  14.135 -0.0854  0.1194 -0.5176
24458W        W40352   8.675   2.529  14.991 -0.2225 -0.3330  0.0556
24459W        W40353  17.578  18.583   2.205 -0.1083  0.0938 -0.6334
24460W        W40354   4.859  17.701  13.132 -0.2153 -0.1667 -0.0526
24461W        W40355  14.014  11.146  11.911 -0.0391  0.1017  0.0464
24462W        W40356   9.150  15.656   4.183  0.3318 -0.0641  0.3074
24463W        W40357   0.445   7.417   0.561  0.0712  0.0453  0.0928
24464W        W40358  15.276   2.058   1.119  0.1943  0.1978 -0.0127
24465W        W40359   3.087   4.159  13.796 -0.2798 -0.2851 -0.0844
24466W        W40360   0.831  16.453  12.651 -0.1632  0.0235  0.1437
24467W        W40361   4.517  18.444   1.817 -0.2637  0.2999  0.2758
24468W        W40362   2.240  10.937  11.862 -0.1119  0.2094 -0.1476
24469W        W40363  14.585   4.232   0.338  0.0649  0.0281 -0.1724
24470W        W40364  17.389   8.677   4.719  0.0585 -0.1222  0.0949
24471W        W40365  18.844   2.689   3.806 -0.1684  0.3708 -0.0460
24472W        W40366  19.141  11.340   4.254  0.1456  0.0680  0.0934
24473W        W40367   6.010   9.380  12.151 -0.0140  0.0597 -0.0239
24474W        W40368  16.526   2.004  11.083  0.0652  0.0354 -0.0192
24475W        W40369  18.474   6.846   5.191 -0.2917 -0.2313  0.0302
24476W        W40370  18.075   1.600  12.473 -0.1493 -0.2048 -0.0768
24477W        W40371   3.955  17.096   1.788  0.1982  0.1926  0.1575
24478W        W40372   8.740  18.085   4.895  0.1583  0.1692 -0.0945
24479W        W40373  11.549   7.429  14.885 -0.1651 -0.2135 -0.1606
24480W        W40374  14.485  10.770  14.993  0.3518 -0.3548  0.3617
24481W        W40375   1.388  14.471  10.453 -0.4284  0.0426  0.1516
24482W        W40376   6.131  12.587  10.596 -0.3781  0.2221 -0.1661
24483W        W40377   2.952   6.727   0.809 -0.0193 -0.1885 -0.1624
24484W        W40378  12.732  11.150   4.658  0.0077  0.3399 -0.1828
24485W        W40379   9.662  18.772   0.106  0.0303  0.1756 -0.1064
24486W        W40380   9.078  14.049  13.697  0.0963 -0.0603  0.1272
24487W        W40381   5.037  13.609  13.651 -0.2985 -0.0921 -0.0377
24488W        W40382   5.881  14.829   4.381  0.0305 -0.0427 -0.2394
24489W        W40383  14.452   3.218   2.910  0.0731  0.1012 -0.1219
24490W        W40384  13.833   8.884  15.148 -0.5790  0.4709 -0.1428
24491W        W40385  17.708   4.240   2.633  0.2322 -0.2444  0.0436
24492W        W40386  13.277   3.707  14.692 -0.3574  0.0691 -0.1308
24493W        W40387   1.843  18.286  11.564  0.0906  0.2384  0.1232
24494W        W40388  13.251  12.569  14.517 -0.0019  0.1268 -0.2083
24495W        W40389  11.046   6.396  12.621 -0.4181  0.1277 -0.3315
24496W        W40390   2.060  18.368   3.194 -0.2590 -0.3008 -0.4524
24497W        W40391  16.884   3.187  12.403  0.1556  0.1087  0.0805
24498W        W40392  16.860   0.134  13.550 -0.0260 -0.1468  0.2574
24499W        W40393  12.030   6.102   4.382 -0.0667  0.2574  0.1185
24500W        W40394   6.470   7.742  14.847 -0.4126 -0.3608  0.1154
24501W        W40395  11.535   8.074   2.720 -0.1723  0.3449 -0.0569
24502W        W40396  18.810  10.909  11.569 -0.1682 -0.2008  0.0243
24503W        W40397  18.637  11.305   3.849  0.0352 -0.0796 -0.1097
24504W        W40398   0.203   1.821  11.367  0.0058  0.1857  0.0158
24505W        W40399  12.885   7.568  14.860 -0.2137  0.1743  0.1029
24506W        W40400   6.325  18.088  15.014  0.0217  0.0879 -0.2257
24507W        W40401   7.636  11.065   0.190 -0.0411  0.1423  0.0139
24508W        W40402   4.643   5.196   4.540  0.0001 -0.0973 -0.1404
24509W        W40403  10.578  17.447  14.840  0.2955 -0.2759  0.1182
24510W        W40404   8.778   9.172  12.348  0.3442 -0.1892  0.4332
24511W        W40405  16.916   5.660  12.589 -0.1018 -0.3009 -0.4109
24512W        W40406   6.019  12.092  13.209 -0.2952  0.0721 -0.0032
24513W        W40407   1.086  16.732  11.197  0.2292  0.1559  0.4032
24514W        W40408  16.653   5.485   2.384 -0.1607 -0.0723 -0.0280
24515W        W40409   7.881  10.276  11.217  0.2131  0.1561  0.0139
24516W        W40410   7.222  11.799   4.197  0.1786  0.0118 -0.1291
24517W        W40411  16.774  13.999   2.205 -0.0199  0.1821 -0.2116
24518W        W40412   5.068  11.780   1.158 -0.1644  0.3981 -0.0567
24519W        W40413   6.544   8.161  13.648 -0.1598 -0.0866 -0.1553
24520W        W40414  16.647   0.492  14.399 -0.5992  0.0570 -0.0878
24521W        W40415   3.039   5.845   3.290  0.2840  0.0790 -0.2051
24522W        W40416   0.026  10.157  13.309  0.0474  0.2659 -0.1086
24523W        W40417   8.610  14.203   0.462 -0.0565  0.1644  0.0916
24524W        W40418   4.752   4.872   2.434  0.1727 -0.1411 -0.1851
24525W        W40419  12.116   6.971   0.790 -0.1100 -0.1921 -0.0712
24526W        W40420   0.430   3.026   2.818 -0.1081  0.1453 -0.3479
24527W        W40421  18.191  17.900   0.940 -0.0982 -0.1629  0.0661
24528W        W40422   0.669  17.123   0.938 -0.2388  0.3120  0.0321
24529W        W40423  11.993   0.063   1.504  0.2371  0.0182 -0.2032
24530W        W40424  10.501  12.579   0.376  0.1129  0.1820  0.1172
24531W        W40425  15.240   7.648  11.883  0.0020  0.1063 -0.0562
24532W        W40426  17.276   3.752  11.038  0.1947 -0.0568 -0.0920
24533W        W40427  17.220   9.914  11.625 -0.2848 -0.0124  0.0186
24534W        W40428  13.086   3.608   3.616 -0.0335 -0.2076  0.1508
24535W        W40429   1.364   2.302   0.678 -0.1682 -0.3241 -0.5403
24536W        W40430  18.464  16.269  13.439  0.0554  0.0135  0.1383
24537W        W40431  10.295  17.495   2.258 -0.0422 -0.0234  0.0896
24538W        W40432   2.550   5.441  11.398 -0.3101 -0.0701  0.0418
24539W        W40433   0.156   3.411   1.743 -0.1322  0.0378  0.1841
24540W        W40434   7.044  12.413  10.474  0.2919  0.0993  0.1078
24541W        W40435  14.095   5.571   0.822 -0.2454  0.2337  0.0932
24542W        W40436  11.501  16.244   5.380  0.1014 -0.0384  0.0778
24543W        W40437   9.489  12.322  13.878 -0.1919  0.1570  0.0987
24544W        W40438   0.122  12.575  13.346 -0.1622  0.0814 -0.2562
24545W        W40439   7.762  16.720  15.130  0.1374  0.0269  0.1401
24546W        W40440  13.930   5.293   3.835  0.3226  0.1245 -0.3736
24547W        W40441   1.656   4.072   0.366  0.0567 -0.0037  0.0991
24548W        W40442  11.289   9.108   4.686 -0.2500  0.1658 -0.1009
24549W        W40443   3.609  18.126  10.914  0.0526 -0.0779 -0.0812
24550W        W40444   9.072   3.522   2.020 -0.1830  0.0399  0.2447
24551W        W40445   1.183   0.155   2.160 -0.3157 -0.0116 -0.0507
24552W        W40446  16.500  12.454   5.183 -0.3659 -0.3278  0.1287
24553W        W40447  11.101  11.104  11.304  0.2583  0.0194 -0.2151
24554W        W40448  14.743  14.081  14.408 -0.3737  0.1692  0.1896
24555W        W40449   7.563  12.157   2.899  0.1854 -0.1755 -0.0668
24556W        W40450   9.658   2.351   3.731  0.0705 -0.0913 -0.2034
24557W        W40451  10.754  13.129  11.796 -0.1685 -0.0636  0.1592
24558W        W40452  18.281   1.334   1.194  0.1856  0.0681 -0.2042
24559W        W40453   7.912   7.463   4.194  0.1838 -0.1595  0.1414
24560W        W40454  14.957   2.301   0.142 -0.0024 -0.2486  0.1761
24561W        W40455   7.642  10.186   3.801  0.1139 -0.1195  0.2293
24562W        W40456   5.303  17.466   4.301 -0.0029 -0.1933  0.0745
24563W        W40457   9.402   9.269  11.715 -0.0321  0.0810 -0.1448
24564W        W40458   1.445  17.523   3.769  0.3348 -0.0895  0.1323
24565W        W40459  10.047  13.516   0.348  0.0212  0.2523 -0.0100
24566W        W40460  16.330   9.894  10.497  0.0213  0.2254  0.1803
24567W        W40461   4.994   1.440   1.616 -0.0021  0.0753  0.0231
24568W        W40462  12.717   8.191   0.120 -0.0186  0.2550 -0.2672
24569W        W40463  11.531   8.574  11.447  0.2073  0.2460  0.1159
24570W        W40464   7.282  14.262   0.681 -0.1926  0.1046  0.2951
24571W        W40465  18.085   6.773  14.517  0.5034  0.3468 -0.1113
24572W        W40466   3.991  13.313   5.027 -0.0663 -0.0277 -0.2927
24573W        W40467   7.656   3.135  14.040  0.1930  0.0628 -0.0700
24574W        W40468   9.311  15.706   0.151 -0.0273 -0.2608  0.1347
24575W        W40469  13.853   9.882   2.287 -0.3734 -0.0402 -0.2120
24576W        W40470   2.871  14.105   2.774  0.0912 -0.1095 -0.1531
24577W        W40471  12.952  10.944   1.008  0.1231  0.1780  0.2177
24578W        W40472  16.159  10.988   4.301 -0.1131 -0.2764  0.0558
24579W        W40473   7.340   7.517  12.221 -0.5090 -0.3503  0.2809
24580W        W40474   9.283  16.101  10.829 -0.0811  0.2700 -0.1135
24581W        W40475  17.624  13.650   1.842  0.1721  0.0708  0.0651
24582W        W40476  18.409   3.260   1.251 -0.0231  0.2367  0.1678
24583W        W40477  14.817   4.914  14.942 -0.0998  0.2460  0.0801
24584W        W40478  18.445  17.381  14.807  0.2203 -0.3625  0.1284
24585W        W40479  13.163   9.868  15.088  0.0573  0.1202  0.0091
24586W        W40480   5.633  16.578  14.396 -0.2957 -0.0222  0.1580
24587W        W40481   3.035  11.375  13.039 -0.1673  0.0152  0.2473
24588W        W40482   3.257  15.561   3.567 -0.1643 -0.1568  0.0797
24589W        W40483   8.711  16.924  10.539 -0.1090  0.0043  0.1561
24590W        W40484  18.738   0.759   0.249 -0.5722 -0.0382  0.1623
24591W        W40485   6.227  16.762  10.955  0.0292  0.2486  0.2622
24592W        W40486  10.268  16.853  13.310  0.0822 -0.0927  0.1225
24593W        W40487   9.894  17.621   2.004 -0.1431  0.1611  0.1350
24594W        W40488   3.405  17.872  13.824  0.3382  0.1614  0.1849
24595W        W40489   5.436  12.754  12.783 -0.2227  0.2640 -0.2196
24596W        W40490   9.456   4.100  10.648  0.2524  0.0667 -0.0020
24597W        W40491  16.248  11.483  11.910 -0.3086  0.1749 -0.0704
24598W        W40492   6.109   0.272  12.265 -0.1336 -0.2660  0.1883
24599W        W40493  14.472  17.134  10.968 -0.2181  0.2271  0.0307
24600W        W40494   3.848   6.871   3.407  0.1431 -0.1613  0.0457
24601W        W40495   1.081   5.631   2.622 -0.1429  0.1126  0.0135
24602W        W40496  18.333  16.638  11.103 -0.3714  0.0458 -0.0773
24603W        W40497  17.744  13.610  13.283 -0.0776  0.0039  0.3229
24604W        W40498  14.895  10.066   2.696 -0.0919 -0.5408 -0.1292
24605W        W40499   2.463   2.304  13.419 -0.0316  0.0243  0.0569
24606W        W40500  18.115  11.705   0.547  0.3198  0.1830 -0.2518
24607W        W40501   2.808  17.955   2.182  0.0194  0.0500  0.0331
24608W        W40502   1.929   7.909  10.721 -0.1205  0.0392 -0.1908
24609W        W40503  11.993   4.181  12.954 -0.0317 -0.1067 -0.0322
24610W        W40504   2.842  18.229  14.825  0.0587  0.1491 -0.0665
24611W        W40505  18.409   1.934  13.572  0.0603 -0.0736  0.0896
24612W        W40506   2.156  10.032  12.768 -0.2011  0.0093 -0.1196
24613W        W40507   4.603   1.792   4.722 -0.1451  0.1435 -0.2792
24614W        W40508   1.948  17.539   2.444 -0.1466 -0.2379 -0.1033
24615W        W40509   0.031   9.964  13.845  0.0581  0.0330 -0.0132
24616W        W40510  18.165  10.841   0.230  0.1939 -0.1294  0.0882
24617W        W40511   4.026  16.284  13.255 -0.1212 -0.1239  0.0399
24618W        W40512   1.195   7.399  10.677  0.1985  0.0017 -0.1209
24619W        W40513   3.699  13.273   5.619 -0.0848  0.1806  0.0875
24620W        W40514   1.559   6.702  12.412 -0.1737 -0.0646 -0.0172
24621W        W40515  18.743   4.352  11.097  0.0960  0.2065  0.1945
24622W        W40516   4.290   7.434   1.093 -0.0055 -0.1165  0.1364
24623W        W40517  16.961  11.065  10.308 -0.4113  0.3173 -0.0878
24624W        W40518   6.465  11.567   0.801  0.1339 -0.0008 -0.3398
24625W        W40519  18.514  13.965   0.448  0.1166  0.2016 -0.0259
24626W        W40520   0.384  10.819   0.693 -0.0191  0.0269 -0.0024
24627W        W40521  15.940  14.613   3.475  0.1032 -0.0849  0.0351
24628W        W40522   5.245  18.981   4.365 -0.0795  0.1223  0.1616
24629W        W40523  15.200  11.501  12.252 -0.0066 -0.0671 -0.1431
24630W        W40524   8.662  17.062   3.661 -0.0211  0.0646  0.0516
24631W        W40525   1.737   8.446   1.810 -0.0996 -0.2265  0.1171
24632W        W40526  16.643   6.159   3.140 -0.2879 -0.2530  0.0690
24633W        W40527  16.339  10.966   1.724 -0.0779 -0.1377 -0.0592
24634W        W40528   3.550   8.648  13.729  0.0302  0.0391  0.0167
24635W        W40529  15.185  12.669  14.046 -0.0970 -0.0573  0.1160
24636W        W40530  16.626   6.638   5.422 -0.2392  0.1383 -0.2355
24637W        W40531   4.004   0.097   1.282 -0.0061 -0.0270  0.1926
24638W        W40532   4.187   8.862  12.022  0.0901 -0.1087  0.0124
24639W        W40533  17.829   8.000  10.802  0.0571  0.1025 -0.1592
24640W        W40534   7.182   4.038   3.830 -0.0844 -0.0782 -0.0373
24641W        W40535  10.440  15.592  11.947 -0.3415  0.0076  0.2518
24642W        W40536   6.680  18.756   2.654 -0.0035 -0.0979  0.2419
24643W        W40537   4.588  14.196   4.294 -0.0874  0.0051  0.2923
24644W        W40538   2.802   1.578  10.227 -0.1614 -0.1965 -0.0764
24645W        W40539   3.049  11.506  14.857 -0.0690 -0.0402 -0.1689
24646W        W40540  16.503   7.535   4.746 -0.3191 -0.1959  0.1472
24647W        W40541   5.855  13.085  14.534  0.0180  0.0985 -0.0552
24648W        W40542  14.562  14.127  11.869  0.2285 -0.2243 -0.1085
24649W        W40543   1.997  12.294  13.790 -0.0039  0.3500  0.3017
24650W        W40544  11.119  18.418   0.502  0.1105  0.1168 -0.1571
24651W        W40545  17.233  17.193   2.500 -0.2240 -0.1397 -0.2210
24652W        W40546   5.761  13.678  11.304  0.3301  0.1229  0.2780
24653W        W40547  11.916  15.440   0.541  0.1553 -0.1420  0.0937
24654W        W40548   8.740   3.347   1.154 -0.4973  0.0688 -0.1692
24655W        W40549  18.262  11.952   3.124 -0.0656 -0.0550 -0.1570
24656W        W40550  11.148   3.475   0.218  0.1425 -0.1333 -0.1266
24657W        W40551   8.922  18.444   4.516 -0.0249 -0.3262 -0.3965
24658W        W40552  14.133   2.680  11.733  0.5209  0.0672  0.3445
24659W        W40553  11.200   7.826   2.952 -0.2930 -0.0678 -0.0528
24660W        W40554   5.741  11.771   0.095 -0.3643 -0.3267 -0.1015
24661W        W40555  17.952   7.955  14.337 -0.1007 -0.0859 -0.2082
24662W        W40556   6.563  14.612  13.213 -0.0718  0.2678  0.1093
24663W        W40557  12.927   2.257  12.872  0.0748  0.4041 -0.2416
24664W        W40558  17.298   5.729  12.247  0.3993 -0.0251 -0.0173
24665W        W40559  16.143   5.553   5.268 -0.2508  0.1810 -0.1199
24666W        W40560  12.977   1.356  11.089  0.2913 -0.0833  0.0410
24667W        W40561   9.561   2.188   0.081 -0.6411 -0.1373  0.0368
24668W        W40562   0.752   7.677   2.088  0.2857 -0.0812 -0.3286
24669W        W40563   9.685   8.545  10.064 -0.0218 -0.2556  0.2803
24670W        W40564   9.384   7.791   4.201 -0.3434  0.0272  0.0179
24671W        W40565   8.164   3.543   4.432  0.5356  0.0565  0.2584
24672W        W40566   4.918  13.718  14.198  0.2817 -0.0893  0.0693
24673W        W40567   7.180  12.783  14.672 -0.2529  0.0132  0.0486
24674W        W40568  15.635  17.703   2.865 -0.3347  0.1008 -0.0724
24675W        W40569   7.806   8.953   3.407  0.0606  0.0564 -0.0467
24676W        W40570  14.323   4.585  12.186  0.0696 -0.0886  0.0178
24677W        W40571  17.454  13.939  11.765  0.1155 -0.1983 -0.2142
24678W        W40572   2.601   4.819   1.067  0.3812  0.0921 -0.1286
24679W        W40573   9.499  14.736   0.392  0.0473  0.1469 -0.5829
24680W        W40574  15.993  18.614  13.271  0.2189 -0.1711 -0.2200
24681W        W40575   8.861   1.083  13.883 -0.0880 -0.0026  0.5398
24682W        W40576   8.136  14.518   2.143  0.3903 -0.1978  0.0409
24683W        W40577   4.736  10.142  12.418 -0.4215 -0.3872  0.1786
24684W        W40578  13.260   8.382   2.826 -0.1481 -0.0549  0.1631
24685W        W40579   6.159  13.857  12.547 -0.0430  0.0098  0.0681
24686W        W40580   2.833   7.263   9.950  0.1834 -0.1580 -0.0054
24687W        W40581  12.645  14.066   0.269 -0.1614 -0.0496  0.3992
24688W        W40582  12.304  16.702   0.570 -0.0495 -0.0236 -0.1344
24689W        W40583   2.885   1.497   2.825  0.0902  0.0004  0.0661
24690W        W40584  12.756   3.839  10.876 -0.1585  0.0018  0.1080
24691W        W40585   0.617   5.495   4.226  0.0047 -0.0480  0.0287
24692W        W40586  18.659   9.510   8.538  0.1588  0.1265  0.3076
24693W        W40587  13.920   3.461  14.456 -0.1729 -0.3264 -0.3896
24694W        W40588   6.193   5.602  10.328 -0.1460 -0.1686 -0.1544
24695W        W40589   0.494  12.000   4.592 -0.0214 -0.1297  0.0463
24696W        W40590   9.677   7.048  11.649 -0.2109 -0.0039  0.0520
24697W        W40591   1.709  18.906  10.707  0.1959 -0.2833  0.4159
24698W        W40592   2.461  12.232   2.949  0.0366  0.3627 -0.0643
24699W        W40593   1.358  18.004   3.675 -0.1042  0.0286 -0.0496
24700W        W40594   9.695   0.457  10.167 -0.2024 -0.0365  0.1943
24701W        W40595  12.483   2.922  13.086  0.0663  0.0752  0.0350
24702W        W40596  15.297   6.410   0.284 -0.0631  0.1575  0.1089
24703W        W40597  12.078  19.018   0.499  0.0036  0.1260  0.1134
24704W        W40598  16.805  13.922  13.382  0.4009 -0.2501  0.1801
24705W        W40599   7.321   9.125  15.169  0.3956 -0.2981 -0.0617
24706W        W40600  17.429   9.966   0.885 -0.4044  0.3459 -0.2323
24707W        W40601   9.219   1.717  10.972 -0.1193  0.1153  0.0464
24708W        W40602  15.130  13.222   0.911  0.0434  0.0037 -0.0341
24709W        W40603   3.146   4.858   1.606  0.3755  0.0095  0.0423
24710W        W40604   6.040  11.105   4.519  0.3978  0.1655 -0.2400
24711W        W40605   8.463  11.247  14.930 -0.0458 -0.1817 -0.0358
24712W        W40606   5.314  11.239  11.716  0.1223 -0.1897  0.0002
24713W        W40607   5.484   6.802   2.937 -0.0890  0.1229  0.1740
24714W        W40608   7.264   4.449  13.665 -0.2831 -0.3330 -0.1630
24715W        W40609  17.156   7.776   1.801 -0.2957  0.4774  0.1423
24716W        W40610  11.395   3.119  11.821 -0.0228  0.0876 -0.0676
24717W        W40611   2.845  16.808   2.973  0.1025 -0.0599  0.0394
24718W        W40612   4.092  11.539   9.577 -0.2160  0.0532 -0.0005
24719W        W40613   6.349   2.674   4.270  0.0444  0.0433  0.1273
24720W        W40614  16.933   0.969  14.499 -0.1569 -0.0673  0.2130
24721W        W40615   8.913   0.521  12.870 -0.0900 -0.4026  0.2784
24722W        W40616  14.332   8.068  12.366  0.0759 -0.0828  0.0721
24723W        W40617  17.258  18.007   5.253 -0.0814  0.1818  0.2066
24724W        W40618  13.816  14.904  13.867 -0.0889  0.2197  0.2382
24725W        W40619   4.476  12.512   0.350  0.0541 -0.2394 -0.2364
24726W        W40620   7.367   7.621  13.465 -0.2870  0.0413  0.1626
24727W        W40621   7.216   3.200   3.232  0.1347 -0.1706 -0.0136
24728W        W40622  13.746   2.201  14.143  0.1217 -0.1344  0.0239
24729W        W40623  12.480  15.408  14.837  0.2694 -0.2136  0.0720
24730W        W40624   2.248   9.210   0.702 -0.0024  0.0115 -0.1310
24731W        W40625   9.340   4.710   9.517  0.0353  0.0087 -0.0287
24732W        W40626   7.537  14.434   1.629  0.0179  0.1296  0.1570
24733W        W40627  18.784   8.565  11.520  0.2816  0.1848  0.2924
24734W        W40628  14.508   0.441  14.803  0.2145  0.5737  0.0547
24735W        W40629   0.865  15.357  14.791 -0.1449 -0.0884 -0.0074
24736W        W40630   8.788  18.369   2.001 -0.2493  0.0787 -0.0684
24737W        W40631   2.240   9.712  12.010  0.0591  0.0432  0.0085
24738W        W40632   1.352   2.082   2.567 -0.0970  0.2282  0.3922
24739W        W40633  14.678   9.592  11.957  0.1185  0.2516 -0.0214
24740W        W40634   1.775   1.683  10.832  0.2299 -0.0730 -0.2191
24741W        W40635   9.645   4.375   2.828  0.1444  0.0070 -0.2018
24742W        W40636   7.383  13.803   1.169 -0.0827 -0.0588 -0.2340
24743W        W40637   3.037   2.035   1.908 -0.1440  0.3471 -0.2890
24744W        W40638  19.145  15.895  11.207 -0.1694 -0.0689  0.0399
24745W        W40639   6.909  12.842  13.150  0.0100 -0.0686  0.0063
24746W        W40640  17.671  13.984   3.614 -0.0113  0.2598 -0.1455
24747W        W40641  14.993  18.803   2.664  0.3402 -0.0731 -0.0953
24748W        W40642   2.875   6.613  12.756 -0.3466  0.4305 -0.0391
24749W        W40643  16.395  16.345   0.158  0.0206  0.0683  0.0271
24750W        W40644   1.563   9.285  10.556 -0.0024 -0.4138 -0.1111
24751W        W40645   4.683  12.507  10.732 -0.0906 -0.0907 -0.1534
24752W        W40646   0.663  14.521  11.881  0.3690 -0.0810 -0.0669
24753W        W40647  18.501  17.960   1.779 -0.1329  0.0825  0.3924
24754W        W40648   2.470   9.646   1.007  0.1871  0.1834  0.0116
24755W        W40649  13.099   5.760   4.997  0.3398 -0.3163 -0.0314
24756W        W40650   3.064   0.361  14.165  0.1215  0.1919 -0.2277
24757W        W40651   9.853  15.053  11.268  0.2178 -0.0052 -0.1600
24758W        W40652   9.473  17.019  14.618  0.0483 -0.0273 -0.1571
24759W        W40653   3.976  10.524   1.393 -0.1076 -0.1075 -0.0089
24760W        W40654   8.529  15.611  11.204  0.0669 -0.0122 -0.2584
24761W        W40655   3.861   2.975  14.435 -0.0898  0.1551 -0.0342
24762W        W40656  17.002  14.234  12.479 -0.0716 -0.1466 -0.1670
24763W        W40657  14.903  15.494  10.726 -0.0871 -0.2087  0.3305
24764W        W40658  14.033   3.369   4.633  0.0244 -0.1455 -0.4526
24765W        W40659  12.274  14.090  12.477  0.0146  0.0539 -0.1343
24766W        W40660  14.875  18.004   0.189  0.3341  0.0351  0.4104
24767W        W40661   8.955  14.355   9.405  0.0163 -0.1389 -0.2471
24768W        W40662  12.655   6.793   1.068 -0.0231 -0.1133 -0.0342
24769W        W40663  16.057   9.136   2.394  0.2765 -0.1437 -0.0704
24770W        W40664   7.863  12.923   2.701  0.1034  0.2055  0.4908
24771W        W40665  10.714   4.773   5.590 -0.1707 -0.3627 -0.1008
24772W        W40666   8.015  10.284  13.486 -0.1292 -0.3049  0.4932
24773W        W40667   3.608   4.697   1.807  0.1996  0.0447 -0.0809
24774W        W40668  15.506  15.957  11.197 -0.0168 -0.2651 -0.0316
24775W        W40669  13.015  16.844   2.035  0.3347 -0.1357  0.1812
24776W        W40670  17.450   8.180   3.784 -0.3988  0.2452 -0.0516
24777W        W40671   2.611  10.731   4.095 -0.0754 -0.0569  0.0598
24778W        W40672  13.145   2.378  13.785  0.1632 -0.0172  0.1700
24779W        W40673   8.150   7.255  12.539 -0.1152 -0.0466  0.1577
24780W        W40674   4.097   9.400  10.652  0.1736 -0.1226 -0.1132
24781W        W40675   1.844  12.920   0.312 -0.2041 -0.0244  0.0698
24782W        W40676  13.131  12.918  10.483  0.0285  0.2683  0.2542
24783W        W40677   7.770   2.663  11.111 -0.2445 -0.3160  0.2845
24784W        W40678   3.905   8.384   0.352  0.1501  0.0523 -0.0992
24785W        W40679   3.320  18.931  13.990 -0.2749 -0.0762 -0.4571
24786W        W40680  10.610  12.059   4.916  0.1581  0.1019  0.0057
24787W        W40681   7.729   0.658   3.449  0.0414 -0.1338 -0.0730
24788W        W40682   9.278  16.856  15.046  0.0494 -0.0709  0.0218
24789W        W40683  12.477   5.533  13.032 -0.2744  0.0819  0.0727
24790W        W40684  13.716  15.396   3.822 -0.0380  0.0266  0.1150
24791W        W40685   7.619  12.591  10.453  0.0096  0.2693 -0.0835
24792W        W40686  18.716  11.005   1.849 -0.2912  0.0682  0.0657
24793W        W40687   4.291   7.853   1.734 -0.1491 -0.1165  0.0471
24794W        W40688   0.967  16.190  13.056 -0.0342 -0.1211 -0.3292
24795W        W40689  15.838   7.517   3.235 -0.2958  0.1446 -0.0388
24796W        W40690   5.634  16.391   0.022  0.1869 -0.0880  0.3958
24797W        W40691   5.349   0.635  13.355 -0.4004 -0.0741 -0.1101
24798W        W40692  10.655  10.410  13.679 -0.1586 -0.0448 -0.2299
24799W        W40693  10.193   1.736   2.461  0.1615  0.0693  0.0925
24800W        W40694  14.638   5.712  10.906 -0.0559  0.3702 -0.0703
24801W        W40695  11.086   3.210   2.900 -0.1135  0.1483  0.0672
24802W        W40696   4.595   9.846  14.278 -0.2805 -0.4918  0.1339
24803W        W40697  16.413   0.334  13.914 -0.0640 -0.1006  0.1781
24804W        W40698   2.458  14.394  10.541  0.3744  0.1975 -0.1331
24805W        W40699   1.409   4.978   0.731 -0.2713  0.0193  0.2225
24806W        W40700   9.753   3.339  11.472 -0.1187 -0.1388 -0.0848
24807W        W40701   6.541  14.607   3.303 -0.0415  0.0504  0.0194
24808W        W40702  10.275  16.287  13.255 -0.0526  0.1201 -0.0452
24809W        W40703  14.020   7.977   1.930 -0.5002 -0.2791  0.1085
24810W        W40704  16.155   0.914   2.083  0.2760  0.0693  0.0864
24811W        W40705   7.591  17.751   4.677 -0.0752 -0.1928 -0.0282
24812W        W40706  12.457  14.762  13.261  0.0281 -0.1523 -0.0712
24813W        W40707   8.023   5.599   1.604  0.0148 -0.0472  0.4307
24814W        W40708  17.395   1.720   2.226 -0.0873  0.0507 -0.3712
24815W        W40709  16.553  18.596   3.281  0.0105  0.0207 -0.2180
24816W        W40710  11.497   4.181   0.911 -0.0714  0.1464 -0.0996
24817W        W40711   8.304   7.909   4.801  0.1752 -0.0353 -0.0265
24818W        W40712  10.566  13.989  12.394  0.0367 -0.1146 -0.1065
24819W        W40713   6.409   4.249   3.239  0.2052 -0.1557  0.0345
24820W        W40714  16.070  13.449   3.842 -0.2194 -0.0321  0.0486
24821W        W40715   6.703  19.146   5.647  0.3026  0.3512  0.1189
24822W        W40716   2.435   7.292  11.662 -0.1613  0.0334 -0.0172
24823W        W40717  16.222   3.373   0.083  0.0355  0.1782 -0.1695
24824W        W40718  14.341  11.358  14.464 -0.2126  0.0372  0.1018
24825W        W40719  14.255   8.611   4.474 -0.0716  0.1330 -0.4292
24826W        W40720   1.643  18.888   0.592  0.1287  0.1242  0.1333
24827W        W40721   0.368  16.894   2.044  0.0392  0.1923 -0.2477
24828W        W40722  19.077   2.191  12.104 -0.2116  0.1182  0.0704
24829W        W40723  17.687  13.915   0.122 -0.1075 -0.0097 -0.1509
24830W        W40724  12.338   3.788   1.983 -0.1995  0.0053  0.4376
24831W        W40725   8.664  13.253  13.003  0.1680 -0.0711 -0.2080
24832W        W40726   9.590   8.414  13.385  0.2380  0.0193 -0.1098
24833W        W40727   0.257   5.512  14.409 -0.4492 -0.3825 -0.2453
24834W        W40728  12.049  14.406  10.191  0.2628 -0.1565  0.1141
24835W        W40729  18.562  12.018  10.749 -0.1201 -0.2010  0.2480
24836W        W40730  18.806  13.608  14.198  0.1404 -0.0538  0.1873
24837W        W40731  18.380  16.011  11.934 -0.0062 -0.2438  0.0476
24838W        W40732  17.070  12.520   2.160 -0.1627 -0.3201  0.0111
24839W        W40733  16.091  11.178  12.453  0.2505  0.1139 -0.2377
24840W        W40734   8.610  12.008   1.949  0.0047 -0.0447 -0.1350
24841W        W40735   1.213  10.030   2.592 -0.2517 -0.4809  0.0160
24842W        W40736   1.282   5.857   4.524 -0.2662 -0.2470 -0.1552
24843W        W40737  13.376  18.114   3.798 -0.2916 -0.0390 -0.1630
24844W        W40738  17.716   2.613  13.500  0.6803  0.0832 -0.0979
24845W        W40739  12.304   3.094  10.114  0.2613  0.2647  0.2664
24846W        W40740  12.278   1.359  11.689 -0.2017 -0.1263  0.1034
24847W        W40741  17.618   6.524  11.076 -0.2256 -0.0414 -0.0360
24848W        W40742  17.059  11.407   3.591 -0.0465  0.2961 -0.3017
24849W        W40743   4.200  13.961   4.086 -0.2494  0.0665  0.0819
24850W        W40744   5.823  12.456  11.919  0.0092 -0.3057 -0.2163
24851W        W40745   7.852  11.225  13.866 -0.2596 -0.3021 -0.0959
24852W        W40746  17.884  18.120   5.842 -0.2078  0.0790  0.0392
24853W        W40747  16.891   2.691   2.909 -0.0447  0.0038  0.1319
24854W        W40748   9.876  11.378  13.906  0.1541  0.1242 -0.1692
24855W        W40749   9.194  13.701   4.425 -0.1379  0.1176 -0.2225
24856W        W40750   1.919  17.529  13.450  0.0445 -0.1695  0.1426
24857W        W40751  13.202  13.287   1.352 -0.0678  0.0465 -0.0393
24858W        W40752  12.422  14.714   3.836 -0.0884  0.0611 -0.5550
24859W        W40753   1.890   7.596   3.740  0.2002 -0.2561 -0.2980
24860W        W40754   9.484  13.534   9.596  0.1089  0.2081  0.1170
24861W        W40755   7.940   0.300   2.393 -0.0688  0.1010  0.0780
24862W        W40756  18.842   8.808   2.194  0.3229  0.0713  0.0782
24863W        W40757   0.243   6.478  12.605  0.1835 -0.0721 -0.1061
24864W        W40758   6.673   5.909   1.636  0.0111 -0.0691 -0.2423
24865W        W40759   2.277   6.949   0.219  0.0952  0.0105 -0.2702
24866W        W40760   3.363  16.454  12.186 -0.1742  0.2004  0.0886
24867W        W40761   1.447  13.765   2.584 -0.3218  0.0772  0.0513
24868W        W40762  14.025  18.098  10.976 -0.0516  0.0598  0.0538
24869W        W40763  10.560   1.485  12.821  0.3312 -0.2392  0.1955
24870W        W40764  16.794   1.128   2.829 -0.0211  0.0150  0.0349
24871W        W40765  14.157   6.240  12.221  0.2933 -0.4101 -0.0796
24872W        W40766  15.762   3.828   6.094  0.0276  0.0220  0.1933
24873W        W40767  17.433   5.846  14.340  0.1273  0.0794 -0.2223
24874W        W40768   7.711   9.477   2.942  0.0589  0.1905 -0.1588
24875W        W40769   6.973  17.197  13.776 -0.3055 -0.1478 -0.1400
24876W        W40770   3.306  12.631  11.095 -0.2195 -0.2941  0.1029
24877W        W40771  17.247  18.608  13.450  0.1481  0.0753  0.1589
24878W        W40772  13.361   8.946   0.492  0.0179  0.0414 -0.1215
24879W        W40773   1.076  11.076  11.753  0.1933  0.0391  0.3037
24880W        W40774   8.091   5.150   4.028 -0.4831  0.2138 -0.0297
24881W        W40775   1.416   4.303  11.630  0.1315 -0.1348  0.3507
24882W        W40776   8.371  10.193   0.065  0.2675  0.5237 -0.0877
24883W        W40777  15.835   9.621  14.953  0.0020 -0.1106 -0.2227
24884W        W40778  12.587  12.201   2.704  0.1592  0.3641 -0.0952
24885W        W40779  16.227  15.952  14.722  0.0203 -0.0584  0.0864
24886W        W40780  10.468  15.735   1.015 -0.1550 -0.3397 -0.2623
24887W        W40781   7.994   9.324  13.653 -0.0417 -0.4140 -0.2551
24888W        W40782  18.430  16.878   3.198 -0.1593 -0.0866 -0.1911
24889W        W40783   3.637  12.015   3.335 -0.1091 -0.1704 -0.0502
24890W        W40784   3.635  14.608  11.506  0.2621 -0.0818  0.3199
24891W        W40785   5.067   0.107  14.277  0.1341  0.1760 -0.0278
24892W        W40786  18.652  11.612  14.409  0.0643 -0.0003  0.1929
24893W        W40787   4.876   0.281   0.715  0.0124 -0.4177 -0.3422
24894W        W40788   9.199   2.988   4.801  0.1318  0.2657 -0.2090
24895W        W40789  11.742  11.854   4.075 -0.1362 -0.2528 -0.1732
24896W        W40790   9.014   2.313   0.145 -0.2941 -0.1236 -0.0213
24897W        W40791   6.977   0.254  10.899 -0.1226 -0.1044 -0.3092
24898W        W40792   3.208   3.216  12.408  0.0823  0.0646  0.0723
24899W        W40793  18.938   1.617   3.380 -0.0334  0.0743  0.0831
24900W        W40794   2.946  14.931   4.770  0.2654  0.1643  0.0290
24901W        W40795   7.051  16.104   3.513 -0.1162 -0.0134  0.2254
24902W        W40796   7.817   3.630  11.504  0.1352  0.4269  0.2164
24903W        W40797  12.048   8.850  14.640  0.2272  0.1709 -0.2318
24904W        W40798   1.674  15.971   3.092  0.1236 -0.0622  0.2939
24905W        W40799   8.232  17.945   4.082  0.2105 -0.0103 -0.2796
24906W        W40800   3.362  14.257   2.971 -0.2931  0.1302  0.1120
24907W        W40801   4.825  12.362   1.026 -0.0042  0.0361  0.0493
24908W        W40802  13.491  14.468  12.228 -0.0769 -0.3673 -0.2666
24909W        W40803  13.201  13.507  13.673  0.2311 -0.0167 -0.1698
24910W        W40804   2.859  14.339  11.792  0.3242 -0.1932  0.0636
24911W        W40805  16.704   9.730  11.797 -0.0701  0.0890 -0.2029
24912W        W40806  15.527  10.328   0.413  0.1316  0.2518 -0.2584
24913W        W40807  19.090   5.891   5.192 -0.1169 -0.1133 -0.1371
24914W        W40808   3.420   4.942  14.915 -0.1335  0.1361  0.0745
24915W        W40809   2.106   6.507  14.389 -0.1674 -0.0695  0.0328
24916W        W40810  16.384  10.117  11.408  0.0202  0.0082  0.0885
24917W        W40811   3.075   8.414  13.710 -0.0720  0.0558  0.1824
24918W        W40812  19.185   8.395  11.872 -0.0176  0.0605 -0.2563
24919W        W40813  16.708   9.087   0.785  0.2544 -0.0959  0.1268
24920W        W40814  18.168  10.765  10.961  0.1023 -0.1295 -0.0329
24921W        W40815  17.724   6.516  12.567 -0.1360  0.1336 -0.0554
24922W        W40816  15.303   6.200  12.359 -0.0273  0.0887  0.1989
24923W        W40817   3.375  10.690   5.494  0.0559  0.1246 -0.0219
24924W        W40818   3.126   0.371  12.583 -0.0690 -0.5912 -0.2100
24925W        W40819  17.649   6.094   3.509 -0.1948  0.1795  0.1485
24926W        W40820  18.968   9.979   2.846 -0.2003 -0.1580 -0.0718
24927W        W40821   6.368   8.578   4.093  0.1542 -0.2483 -0.0583
24928W        W40822   1.251   1.837   0.466 -0.1527 -0.0932 -0.1366
24929W        W40823   3.066   4.494   4.666  0.1478 -0.0870 -0.0295
24930W        W40824  15.832  18.342  12.305  0.2134  0.0839 -0.0513
24931W        W40825   5.059   9.949   1.143  0.2103  0.1334 -0.3727
24932W        W40826  10.621   6.780   3.359  0.1642  0.0166 -0.0818
24933W        W40827   3.476  17.404  13.580 -0.3231 -0.0030 -0.1253
24934W        W40828   1.297  12.580  14.682  0.2153  0.1267 -0.0604
24935W        W40829  17.754  11.700  13.997  0.3106  0.1137  0.4167
24936W        W40830   2.259  17.781   4.139 -0.2677  0.0793 -0.3199
24937W        W40831  12.720  12.287  14.426 -0.3505 -0.0198 -0.1083
24938W        W40832   7.440  15.216   5.205  0.0810 -0.0586  0.4517
24939W        W40833  14.271  12.485   4.468 -0.2862 -0.0085 -0.1797
24940W        W40834   9.524   0.428   1.930 -0.1355 -0.0369  0.0852
24941W        W40835   6.272   0.134  11.737  0.0803  0.0525  0.0590
24942W        W40836   7.938   9.769  12.682  0.2054  0.2854 -0.1642
24943W        W40837   6.027   4.224  13.069  0.1263 -0.2526  0.1843
24944W        W40838  11.667  18.314  13.468  0.2026  0.2280 -0.2431
24945W        W40839  10.451  17.289   4.392  0.1163  0.0865 -0.1275
24946W        W40840  15.072   7.783   2.530 -0.3054 -0.1975 -0.2798
24947W        W40841   0.664  18.688  15.093  0.2970  0.0904  0.1715
24948W        W40842   1.260   6.889   0.699 -0.1058  0.2586 -0.4046
24949W        W40843  16.581  16.166   2.376 -0.0162  0.0098  0.2041
24950W        W40844  16.828  14.323   3.114 -0.1004  0.1022 -0.0189
24951W        W40845   3.556  16.397  12.717 -0.3409 -0.0052 -0.1706
24952W        W40846  17.133  15.937  12.606  0.0681  0.0717 -0.1044
24953W        W40847   9.883   0.086   3.382 -0.0886  0.1180 -0.2766
24954W        W40848   2.585  17.691  14.130 -0.1542  0.3231 -0.1341
24955W        W40849   1.036  17.397  15.142  0.0034 -0.3187 -0.2793
24956W        W40850   8.122  14.194  14.235  0.1007  0.0279  0.2598
24957W        W40851  15.388   4.592  14.175 -0.0818  0.0763 -0.0536
24958W        W40852  18.863   5.671  11.521  0.1968  0.2266  0.0412
24959W        W40853   9.553  16.406   2.702  0.0705 -0.2782 -0.1082
24960W        W40854   9.930  17.223   4.454 -0.2482  0.2032  0.1707
24961W        W40855   8.727   8.737   1.098 -0.1125 -0.2183  0.0994
24962W        W40856   7.823  14.978  11.840 -0.5259 -0.3092 -0.1618
24963W        W40857   6.012   1.383  13.629  0.1655  0.2668 -0.1383
24964W        W40858  19.033  11.899   0.338 -0.0439  0.1311 -0.1167
24965W        W40859  12.521  18.909   2.781  0.0015  0.2818  0.1081
24966W        W40860  14.331   5.300   2.923  0.2322 -0.0649  0.0716
24967W        W40861   4.010   5.927  13.928  0.1379 -0.0615 -0.3114
24968W        W40862   9.239  16.920   2.407 -0.2270  0.2825  0.2006
24969W        W40863   0.350  13.394   0.714 -0.0825  0.3066 -0.0083
24970W        W40864  16.087  17.199   0.094 -0.0766 -0.1519  0.0138
24971W        W40865   6.578   8.567  14.217 -0.0062 -0.1152  0.2676
24972W        W40866   4.616   5.130  13.019  0.0971 -0.1788  0.1655
24973W        W40867  11.515  18.386  11.808  0.3971  0.1331 -0.2525
24974W        W40868  17.500   8.917   3.397 -0.1260 -0.2288 -0.1605
24975W        W40869   7.298   9.515  13.924  0.0887  0.0398  0.3447
24976W        W40870  17.604  18.183  12.697  0.0679  0.0335 -0.5959
24977W        W40871  17.637   0.920  11.487  0.0420 -0.2523  0.3331
24978W        W40872   2.860   8.475  13.216  0.1379 -0.0486 -0.1491
24979W        W40873  11.059  14.327   4.407  0.0336 -0.0268 -0.0963
24980W        W40874   0.113  15.456  11.477 -0.2303 -0.0512  0.0122
24981W        W40875   3.493  16.986   3.851 -0.1936 -0.4518  0.2276
24982W        W40876   6.445  15.716  10.621  0.0260  0.0072  0.1571
24983W        W40877   7.932   2.523  12.708  0.0447  0.0380  0.1199
24984W        W40878  16.068   7.109   3.493 -0.0755  0.0357  0.1627
24985W        W40879   4.461  15.703   4.391 -0.0132 -0.0205 -0.1112
24986W        W40880  11.323   2.856   2.015  0.1133  0.1055 -0.0684
24987W        W40881   1.314   5.637   2.196  0.0212 -0.1357 -0.0970
24988W        W40882   2.835   3.328  12.706 -0.0567 -0.1219  0.0950
24989W        W40883   4.575  13.577  12.488 -0.1134  0.1148  0.1989
24990W        W40884   2.025  11.715   2.169 -0.0105 -0.1248 -0.2160
24991W        W40885  11.291   1.108  11.681 -0.0591  0.1654  0.0573
24992W        W40886  12.901   4.938  12.867  0.3016 -0.0558 -0.1493
24993W        W40887  11.919   6.918   3.383 -0.2191 -0.2328 -0.0773
24994W        W40888  18.435  13.214   2.295 -0.2111 -0.0272 -0.2341
24995W        W40889   6.949  10.105   2.288  0.1884  0.1566 -0.2150
24996W        W40890   9.116  16.875   4.822  0.0057 -0.0589 -0.2402
24997W        W40891   1.028  12.864  10.617  0.1130 -0.1457  0.0956
24998W        W40892   4.379   3.090  12.427 -0.3373  0.0205  0.1161
24999W        W40893  15.556  18.699   4.305  0.0438  0.2072 -0.2589
25000W        W40894   6.976  12.850   0.570 -0.1932  0.3540  0.2389
25001W        W40895   4.620   2.150   0.801 -0.2105 -0.1796  0.0214
25002W        W40896   0.067   9.965  14.698  0.1462 -0.0442 -0.2955
25003W        W40897  17.549  18.964  14.536  0.0241 -0.1562 -0.2309
25004W        W40898  17.810  12.514   0.252  0.0199  0.1558 -0.2759
25005W        W40899  14.898  13.471  12.655  0.2032 -0.1200  0.1479
25006W        W40900   4.268   7.034   1.632 -0.1383 -0.2683  0.0437
25007W        W40901   2.202  16.858   2.413  0.0460 -0.1864  0.0265
25008W        W40902   2.049   8.221   5.417  0.4175 -0.2212  0.0634
25009W        W40903  16.912  12.220   1.677  0.0278  0.0604 -0.1041
25010W        W40904   0.323  16.610   3.991 -0.0582  0.0570 -0.4621
25011W        W40905   3.492  10.552  12.668 -0.2149 -0.2565 -0.1486
25012W        W40906   8.624  17.190  12.890  0.0342  0.0027 -0.2809
25013W        W40907   8.276  15.217  13.284  0.0778 -0.3486  0.0652
25014W        W40908   7.001  14.276  10.370 -0.2559  0.1543  0.0615
25015W        W40909  18.526  14.632   3.533 -0.1575 -0.0257  0.1205
25016W        W40910  12.802   9.215  11.937 -0.2589  0.4302  0.2608
25017W        W40911   5.984   5.855   2.976 -0.0638 -0.1331 -0.0891
25018W        W40912   4.610   0.985  12.777  0.0558 -0.3150  0.0847
25019W        W40913  18.463  13.045  11.402 -0.0016  0.0232  0.1673
25020W        W40914  15.125  18.682  13.262 -0.2511 -0.0447  0.0212
25021W        W40915  17.298   5.993   2.732  0.0522  0.1439 -0.1995
25022W        W40916   3.558   6.564  14.049  0.2951 -0.3150 -0.0122
25023W        W40917  15.103   1.058  11.108  0.4630  0.1344  0.3378
25024W        W40918   4.897  15.384   1.173 -0.0842  0.2257  0.1068
25025W        W40919  12.273   6.872  14.669 -0.1466 -0.2086 -0.0076
25026W        W40920   3.695   4.106  13.745  0.2381 -0.1170 -0.2494
25027W        W40921   0.638  15.531  11.509 -0.0417 -0.1032  0.1752
25028W        W40922   6.811   2.190   1.447 -0.1977  0.2019  0.0881
25029W        W40923  12.613   1.041   0.756  0.0219  0.2498  0.4818
25030W        W40924   9.409  17.000   4.384  0.2138  0.0957  0.0096
25031W        W40925  16.585  12.972  11.978 -0.2912 -0.2340 -0.1422
25032W        W40926  10.437  19.130  12.484  0.2472  0.0788 -0.2145
25033W        W40927   4.627  15.350  12.756  0.0360 -0.0048  0.0912
25034W        W40928   6.126   6.389   0.056 -0.2157  0.4508  0.1423
25035W        W40929  18.090  15.209   0.300  0.1098  0.0338 -0.2150
25036W        W40930   0.747   3.660   0.367  0.0684 -0.0442 -0.1446
25037W        W40931  11.521   6.521   0.949  0.0061 -0.2093 -0.0778
25038W        W40932   7.858  16.998  13.353  0.0937 -0.0149 -0.2147
25039W        W40933  18.350  12.290   2.552  0.2796 -0.1182  0.1212
25040W        W40934   8.862  17.579  12.670  0.0828  0.0095 -0.0490
25041W        W40935  11.888  19.013   9.779  0.0879 -0.1761  0.0219
25042W        W40936   1.167  15.578  12.435 -0.1498  0.1569 -0.1996
25043W        W40937  15.404   8.873   3.283  0.1554  0.3873 -0.1648
25044W        W40938  15.392  12.125   4.835  0.0596 -0.1920  0.1817
25045W        W40939   2.390   3.517  15.026  0.2896 -0.3103  0.2580
25046W        W40940   5.296   0.450   0.903 -0.0195  0.0488  0.1760
25047W        W40941  11.627  10.142   4.691 -0.1359 -0.2612  0.1345
25048W        W40942   8.732  13.357   0.804 -0.2332  0.5205 -0.0472
25049W        W40943  12.313   8.885   0.636 -0.0325  0.3198 -0.0997
25050W        W40944   5.108  13.132   0.434 -0.2635  0.1247 -0.0756
25051W        W40945  15.169   8.111   3.492  0.0115  0.1303 -0.1782
25052W        W40946  14.640   8.409  13.139  0.0373  0.0005  0.0348
25053W        W40947  11.041   6.654   0.155 -0.1043  0.2040 -0.0006
25054W        W40948  11.525   2.319  12.261  0.1130 -0.1621 -0.4303
25055W        W40949  16.213   6.954   1.346 -0.0802  0.3135  0.0795
25056W        W40950  15.305   0.782   1.541 -0.1003  0.1721  0.2874
25057W        W40951   6.713  13.033  14.466 -0.2183 -0.1178 -0.0101
25058W        W40952  18.238  12.658   2.882  0.1355  0.0677 -0.0263
25059W        W40953   2.581   8.711  15.190  0.2107  0.1445 -0.1047
25060W        W40954   8.032   3.768   0.599 -0.1504  0.0900  0.3927
25061W        W40955   4.779  19.057  12.468  0.0892 -0.1402  0.3073
25062W        W40956  13.515   8.650   4.763  0.2087 -0.0564  0.2749
25063W        W40957   3.386   4.153   2.446 -0.0023 -0.3259  0.0504
25064W        W40958  14.210   6.179   3.461  0.1575 -0.2712 -0.0835
25065W        W40959  11.608  10.530  12.324 -0.0627 -0.0772 -0.1271
25066W        W40960   6.924   4.088  13.318 -0.1532 -0.3448  0.0044
25067W        W40961  13.401  18.905  12.710 -0.1597  0.1101  0.1583
25068W        W40962   7.839  10.023  15.160  0.1614 -0.1314 -0.1029
25069W        W40963  11.370  10.642  10.912 -0.1671  0.0220  0.0420
25070W        W40964   9.232   9.369  10.829 -0.0804  0.0456  0.1058
25071W        W40965   3.407  14.621  12.341  0.0131  0.1348  0.0753
25072W        W40966  12.392   0.013  13.576 -0.2693 -0.1274 -0.1879
25073W        W40967  11.992  14.213  12.836 -0.2620  0.1981  0.1444
25074W        W40968   3.823   5.540   4.706 -0.0193  0.1652 -0.3193
25075W        W40969   3.213  17.663   2.770  0.3805  0.0930 -0.0316
25076W        W40970  10.168   8.734  12.282  0.1109 -0.0456 -0.0416
25077W        W40971  11.129   4.778   5.881 -0.0576 -0.1752 -0.0552
25078W        W40972   4.914   9.598   0.787 -0.3379  0.0552  0.0371
25079W        W40973   1.635  12.891   3.481  0.0776 -0.2190 -0.1367
25080W        W40974   3.096  18.366   2.219  0.0534 -0.1685  0.1452
25081W        W40975   1.486  19.134   5.807  0.1558 -0.2376 -0.0887
25082W        W40976   9.122   0.687   0.920 -0.2710  0.0985  0.0581
25083W        W40977   6.986   6.354   2.647  0.2194 -0.1245 -0.3618
25084W        W40978  19.027  18.271  11.420  0.0127 -0.1849  0.5348
25085W        W40979   7.310   9.058   3.157 -0.5400 -0.0926 -0.0893
25086W        W40980   0.454  10.394  11.319 -0.0892 -0.1584  0.0075
25087W        W40981   4.793   3.328   1.590 -0.0170 -0.1619 -0.3053
25088W        W40982  14.756   1.302  14.370 -0.1632  0.0883  0.4463
25089W        W40983   0.854  17.068   0.484  0.1018 -0.0589 -0.0664
25090W        W40984   5.609   2.520   4.351 -0.1676 -0.1278  0.0454
25091W        W40985  13.402  10.762   2.482 -0.1967  0.0494  0.0650
25092W        W40986  18.812   1.013   4.936 -0.0614  0.1710 -0.0569
25093W        W40987   5.600   8.530   2.878  0.1252  0.1273  0.1163
25094W        W40988  15.380  18.200  11.388 -0.0717 -0.3274 -0.2318
25095W        W40989   1.294  12.166   2.943 -0.2784 -0.0426  0.2980
25096W        W40990   4.915  16.024  11.604 -0.0470 -0.1524 -0.1889
25097W        W40991  10.451   3.975  13.279 -0.0901 -0.0244  0.1856
25098W        W40992  17.446  11.119   9.188  0.2168 -0.2150 -0.1160
25099W        W40993  12.039  13.598  12.145 -0.0121 -0.1785  0.0379
25100W        W40994   7.643  13.488   5.137 -0.1727  0.0034 -0.1896
25101W        W40995  12.470   8.952   1.529  0.2129  0.0267  0.2286
25102W        W40996  15.662  14.187   2.091  0.0151 -0.0479  0.1808
25103W        W40997   0.896  14.862  10.989 -0.0045  0.2428 -0.0163
25104W        W40998  14.019  13.869   3.726  0.1007  0.1604  0.1041
25105W        W40999  16.917   3.978  13.944 -0.2373 -0.1512 -0.1062
25106W        W41000  11.687  16.466  10.297  0.1558  0.0739 -0.0199
25107W        W41001  10.726  14.230   5.152  0.4209  0.1529 -0.3657
25108W        W41002   6.437   4.256  12.127 -0.1458 -0.1168 -0.3624
25109W        W41003   4.634  11.157   0.400 -0.3177 -0.1295 -0.0441
25110W        W41004  16.557  12.691   2.337  0.0339  0.3206 -0.1490
25111W        W41005   3.356   1.991  11.106  0.1091  0.2549  0.1503
25112W        W41006  11.363  12.312  14.964 -0.0021 -0.0895 -0.2518
25113W        W41007  15.999   9.380  12.879 -0.4279  0.0629 -0.1392
25114W        W41008   1.176   9.568  11.612  0.1173 -0.1694 -0.2209
25115W        W41009   6.008  12.213   3.562  0.1325 -0.0964  0.0013
25116W        W41010  18.846   5.445   3.891  0.2159  0.0959  0.3306
25117W        W41011   4.103  17.861   2.940 -0.0311  0.3855  0.1243
25118W        W41012   6.042  18.936   5.232  0.0702  0.0616 -0.0624
25119W        W41013  10.191  18.567  11.539  0.1062 -0.2543  0.1691
25120W        W41014   3.740  12.042  10.869 -0.2910 -0.1218  0.2427
25121W        W41015  13.407  15.594  14.194 -0.1769  0.4281 -0.1405
25122W        W41016  11.371   8.433   3.645  0.1947  0.1796  0.2606
25123W        W41017  16.412   2.423   3.723 -0.3039 -0.3162 -0.2823
25124W        W41018   6.477  10.370   1.307 -0.0841 -0.0995 -0.0865
25125W        W41019  17.643   7.365   0.172 -0.2316 -0.0714  0.1065
25126W        W41020   5.134   9.154   0.604 -0.0814  0.1430 -0.1560
25127W        W41021  11.281   1.180  10.348 -0.2016 -0.2633 -0.0396
25128W        W41022  10.427   2.129  14.004  0.5171  0.0212 -0.3446
25129W        W41023   5.093   0.813   4.187  0.1407  0.3544 -0.2194
25130W        W41024  14.979  14.854   2.365  0.2816  0.1083  0.0500
25131W        W41025  12.579  16.071   4.100  0.2340  0.1768 -0.0369
25132W        W41026   4.804   0.867   1.488 -0.2996 -0.5527  0.1229
25133W        W41027   8.226   4.257   5.296  0.2450  0.1685  0.4660
25134W        W41028  12.619   9.589   2.385 -0.2313  0.0770  0.0780
25135W        W41029   8.929  11.368  12.330  0.3070  0.0677 -0.1082
25136W        W41030  16.820   3.779   1.311  0.0488 -0.0380 -0.2689
25137W        W41031   8.637  14.122  15.188  0.1580 -0.1122  0.0729
25138W        W41032   0.502  12.975   2.538  0.1303 -0.0633 -0.0252
25139W        W41033   8.490   6.749   2.472 -0.1306 -0.5154 -0.4469
25140W        W41034  17.327  11.944   4.298 -0.3063  0.0292  0.2952
25141W        W41035  18.781  11.642  12.261 -0.2298 -0.1997 -0.1368
25142W        W41036  12.270   8.551  11.485  0.0275 -0.0575 -0.2581
25143W        W41037   5.698  17.954   1.904  0.0893 -0.0063 -0.2871
25144W        W41038   9.028   0.881  13.379 -0.1366  0.3505 -0.2415
25145W        W41039  10.965   4.777   0.161  0.1085 -0.1761  0.0319
25146W        W41040   9.504  10.173  14.324 -0.0840  0.3227 -0.1355
25147W        W41041   0.127   4.331  12.181  0.1726  0.1847  0.0687
25148W        W41042   4.059   3.736  13.415  0.0611  0.0134 -0.1907
25149W        W41043  12.722  13.303  10.676  0.1067 -0.1478 -0.0581
25150W        W41044   0.621  12.496  10.797 -0.0649  0.3160  0.3651
25151W        W41045   2.873  15.160  11.794  0.3963  0.1556 -0.1401
25152W        W41046   1.351   6.613   2.980 -0.0385  0.2375 -0.2596
25153W        W41047   8.647   0.935  12.543  0.0959  0.1768  0.1269
25154W        W41048  17.127   2.817  12.003  0.1165  0.0583 -0.1591
25155W        W41049   1.091   3.699   1.244  0.2054 -0.0259 -0.1593
25156W        W41050  18.632   3.073  13.715 -0.2306 -0.2951  0.0232
25157W        W41051   9.538   0.689  14.131 -0.0999 -0.0904  0.0510
25158W        W41052  17.231   0.456  13.853  0.1511 -0.1962  0.3534
25159W        W41053  17.615  17.462   2.975 -0.1299  0.0728  0.0558
25160W        W41054   6.568   5.013  13.084 -0.0869 -0.2021  0.1317
25161W        W41055   1.094  11.275   0.819 -0.1654  0.5354 -0.1827
25162W        W41056   6.668  15.534  11.439 -0.3022  0.0858  0.2834
25163W        W41057   0.318  16.670   0.844  0.3509  0.0019  0.2781
25164W        W41058   2.346  11.002  12.338 -0.1069  0.4654 -0.1403
25165W        W41059  18.054  15.683  12.026  0.2962 -0.1202 -0.1420
25166W        W41060  13.771  10.298   1.340 -0.1250  0.1196 -0.0744
25167W        W41061   5.954   3.100   2.740  0.0211 -0.1090  0.0709
25168W        W41062  12.598   7.371  12.469  0.2021  0.0012 -0.1412
25169W        W41063   1.169   6.498  14.100 -0.1488  0.1187 -0.3232
25170W        W41064  13.463  10.418  14.272  0.1681  0.0307  0.1261
25171W        W41065   0.662  10.458  14.012  0.1261 -0.1410  0.1350
25172W        W41066   0.061  12.804   2.820  0.0806 -0.2927 -0.0624
25173W        W41067   2.124   0.483   2.371 -0.1489  0.2490  0.1357
25174W        W41068   8.562   5.294   1.707 -0.0708 -0.0564  0.0807
25175W        W41069  10.517  18.111   3.267  0.1142  0.4511  0.1223
25176W        W41070  17.935  11.621   3.398  0.3282  0.2546  0.2037
25177W        W41071   9.853  18.503   1.599  0.4110 -0.2626 -0.0950
25178W        W41072  14.142   4.581   4.303  0.3049 -0.1073 -0.0423
25179W        W41073   3.563  14.413   0.695 -0.1903 -0.1007 -0.0560
25180W        W41074  13.277  12.002   1.904  0.2925  0.1936 -0.1693
25181W        W41075   0.817  16.641   0.878 -0.0396 -0.2107  0.0514
25182W        W41076   2.907   6.788   1.324 -0.1370  0.2152 -0.3642
25183W        W41077  14.439  14.642   4.896  0.1437 -0.1007  0.0721
25184W        W41078   1.807   5.377  12.174 -0.0654  0.0384  0.2639
25185W        W41079  15.137   4.396   3.311  0.4162  0.1363  0.0424
25186W        W41080   7.919  15.500  14.714 -0.1087  0.3093  0.1285
25187W        W41081  14.147   8.410   5.609 -0.2727 -0.0806  0.1339
25188W        W41082   7.149  11.882  11.595  0.2076 -0.0832  0.1398
25189W        W41083  11.199   7.649  12.356  0.0059 -0.3255  0.0381
25190W        W41084  11.521  15.051  14.669  0.0823 -0.2660  0.1440
25191W        W41085  10.859  17.737   3.474 -0.2297 -0.2308 -0.1670
25192W        W41086  16.247  12.812  11.044  0.4130  0.1403  0.1076
25193W        W41087   4.764  13.374  10.488 -0.0419 -0.1112  0.0469
25194W        W41088  13.428   9.307   2.677  0.2880  0.3523  0.1651
25195W        W41089   7.641   0.815   1.803 -0.1362  0.1543 -0.1938
25196W        W41090  11.452   4.094  14.299  0.1143  0.0045 -0.1124
25197W        W41091  18.761   2.744   9.930  0.0491  0.2787 -0.3000
25198W        W41092  15.828   2.600  10.819  0.1704  0.2312  0.2909
25199W        W41093   3.673   8.493   3.613  0.0083 -0.3525  0.2912
25200W        W41094   0.058   0.945   4.633 -0.2592 -0.0798  0.0780
25201W        W41095  18.462   4.074  11.511  0.2858 -0.1839 -0.0683
25202W        W41096   5.651   4.740   3.579 -0.0632 -0.1912 -0.1996
25203W        W41097  12.944  14.823  10.962 -0.1346  0.2514 -0.1946
25204W        W41098   0.080   6.155   4.776 -0.0030  0.3953 -0.1196
25205W        W41099  17.858   6.041   5.186  0.2625  0.1715 -0.1924
25206W        W41100  15.556  18.613  14.983  0.2039 -0.2204 -0.0063
25207W        W41101   3.623  18.932   2.626  0.3439  0.0606  0.3046
25208W        W41102  15.735   7.965   1.439  0.1394 -0.0062  0.0845
25209W        W41103   0.780  10.615  10.986  0.1094 -0.0996 -0.1819
25210W        W41104   1.410  18.896   2.179  0.0515  0.2136 -0.1208
25211W        W41105   2.725   9.594  12.006 -0.2230 -0.0260  0.0024
25212W        W41106   6.455  11.784   2.494 -0.1370  0.0105  0.0167
25213W        W41107   7.641   9.912   2.727 -0.3336  0.0494 -0.2036
25214W        W41108   9.828   4.974  14.219  0.3309  0.0665 -0.0258
25215W        W41109   9.890  13.196   2.218  0.3787 -0.0416 -0.1472
25216W        W41110  13.628  10.142  10.648  0.1692  0.0016  0.2955
25217W        W41111  11.746  16.192   3.119  0.2530 -0.2328 -0.5294
25218W        W41112   4.262   1.529   3.451 -0.1542 -0.2334 -0.1634
25219W        W41113   7.072   6.644   9.933 -0.0595 -0.0779  0.1075
25220W        W41114  17.364  11.720  14.851 -0.0692  0.5304 -0.0989
25221W        W41115  18.709   4.564   1.433  0.0629 -0.1179  0.1970
25222W        W41116  14.577  17.568  11.139 -0.0275 -0.0568 -0.1813
25223W        W41117   8.054  12.278   4.019  0.1595 -0.1335 -0.0039
25224W        W41118  12.447  12.562   3.122 -0.1108  0.3865 -0.1430
25225W        W41119   1.029  11.639  14.397 -0.2712  0.0845 -0.2214
25226W        W41120  12.741   5.855  14.794  0.3018 -0.2229  0.2850
25227W        W41121   7.097   1.350  12.805  0.1451  0.1494  0.2092
25228W        W41122  17.027   6.757  14.640 -0.0741  0.1194  0.0341
25229W        W41123   9.270  15.543   3.696  0.0509 -0.1690  0.3091
25230W        W41124   9.717  13.068   0.083 -0.0613  0.4428 -0.2262
25231W        W41125   7.436  14.117   4.261 -0.0706 -0.0571 -0.0779
25232W        W41126   8.527   9.588   0.776  0.0912 -0.1967  0.0532
25233W        W41127   4.014   1.631  14.458  0.1292 -0.1669  0.0793
25234W        W41128  18.263   6.323  11.849  0.1066  0.2452 -0.0814
25235W        W41129  14.586  10.850  13.351 -0.1606 -0.1089 -0.0944
25236W        W41130  15.538   7.868  12.209 -0.2785 -0.0474 -0.3416
25237W        W41131  15.896   1.337   4.446  0.0417 -0.0339 -0.1660
25238W        W41132  15.844   3.191  13.696 -0.0391  0.2664 -0.0330
25239W        W41133   7.118   7.339  13.186  0.0251  0.3016  0.3800
25240W        W41134   0.664   8.765  14.474 -0.1399  0.1377  0.0484
25241W        W41135   7.843  11.464  15.115  0.1772 -0.1576 -0.0345
25242W        W41136  16.369  15.731  10.869 -0.3030  0.4467 -0.1905
25243W        W41137   3.617  11.669  14.817 -0.0094  0.1185 -0.0555
25244W        W41138   3.592  11.277  10.874 -0.2423  0.0087 -0.2166
25245W        W41139  13.716  18.448   3.219  0.2316 -0.2954  0.0280
25246W        W41140   7.505   0.086  12.198  0.2336  0.1964  0.0170
25247W        W41141   2.094  12.486  11.923  0.0680  0.0040  0.2646
25248W        W41142  11.169   5.092  11.395 -0.2821 -0.1790  0.0701
25249W        W41143  18.342  14.302   1.893  0.2314  0.1264 -0.0327
25250W        W41144  17.756  18.125  13.219 -0.0456  0.0209  0.0537
25251W        W41145  12.136  15.028   0.836 -0.1947  0.3666  0.0894
25252W        W41146   8.653   8.677   2.669 -0.2624  0.0386  0.1827
25253W        W41147  13.442  10.486   9.800  0.0951 -0.1398  0.3267
25254W        W41148  16.309  11.451   1.948  0.1855 -0.1650 -0.2824
25255W        W41149   3.320  13.099  11.802 -0.3951 -0.3351  0.0793
25256W        W41150   8.777  13.073  13.881  0.4075  0.1285 -0.2206
25257W        W41151   8.904  14.546  14.922  0.4022 -0.1003  0.1050
25258W        W41152  19.071   6.914   2.652 -0.1055 -0.2782 -0.1028
25259W        W41153  15.197  14.361  15.163 -0.0666 -0.2989 -0.0393
25260W        W41154   9.028  14.520   0.241 -0.0661 -0.0664 -0.1035
25261W        W41155  16.968   0.899   3.332 -0.2030  0.1397  0.1628
25262W        W41156  10.598  15.210  14.840  0.2144  0.3937  0.0282
25263W        W41157   1.479  15.122   0.263 -0.2969 -0.1717 -0.2770
25264W        W41158   9.956   4.155  13.276  0.2946 -0.2165 -0.1714
25265W        W41159  18.905  14.100  10.556 -0.1697 -0.1693  0.1547
25266W        W41160   4.596  10.932  11.105 -0.0110  0.3522 -0.1123
25267W        W41161  10.425   9.226   0.496  0.1796  0.0473 -0.2716
25268W        W41162  17.860  18.848  11.519 -0.1833 -0.3366  0.3018
25269W        W41163  11.673  11.291   2.654  0.2071  0.1765  0.0188
25270W        W41164  14.015   8.789   4.923  0.1229 -0.0335  0.2765
25271W        W41165  13.718   7.899   3.963  0.0387  0.0791 -0.4709
25272W        W41166  15.468   9.199   4.252 -0.1540  0.1900  0.2829
25273W        W41167   0.063  13.831  11.687  0.1628  0.3755 -0.0585
25274W        W41168  15.456   0.973  12.563 -0.1481 -0.0789 -0.0748
25275W        W41169   2.791  11.363   2.316 -0.3128  0.0334 -0.1424
25276W        W41170   0.625  10.812  14.350  0.1337 -0.0891  0.0108
25277W        W41171  16.392  18.067  14.059  0.1316  0.1520 -0.1330
25278W        W41172  11.583   1.723   0.614  0.0355 -0.0925 -0.1836
25279W        W41173   9.855  11.011  13.502  0.0115 -0.0969  0.0610
25280W        W41174  14.153  15.771   4.006 -0.1477 -0.2409 -0.1521
25281W        W41175   4.815   6.059  11.705  0.0420 -0.0412 -0.1393
25282W        W41176   3.786  16.182   1.879 -0.4112  0.1316  0.2007
25283W        W41177  16.312   0.579  13.438  0.1838 -0.4570 -0.0527
25284W        W41178  18.007  15.289  13.435  0.1005 -0.1165 -0.2065
25285W        W41179   6.441  12.326   3.326  0.1373 -0.0532  0.0357
25286W        W41180  13.849   3.710   5.005 -0.0981 -0.0547 -0.3328
25287W        W41181  17.432   4.957   0.863 -0.0069  0.0454  0.1025
25288W        W41182   0.086  11.232   5.123  0.2298 -0.0716 -0.0910
25289W        W41183   2.789   5.306   3.633 -0.2406 -0.1285  0.0074
25290W        W41184  14.188   8.357  14.297 -0.0877  0.3391  0.1278
25291W        W41185   4.853   1.546   4.293 -0.4006  0.1355 -0.0068
25292W        W41186  14.850  12.550   3.378 -0.2222  0.2321  0.0207
25293W        W41187   6.847   8.693   3.206  0.2298  0.0945 -0.0700
25294W        W41188   9.832   8.133   3.976 -0.2851 -0.0828 -0.1203
25295W        W41189  12.637  16.322  13.887 -0.0223 -0.5827  0.1068
25296W        W41190   9.294  18.848  10.686  0.0414  0.2135  0.0153
25297W        W41191  14.417   5.782  10.430 -0.1946 -0.0866  0.3670
25298W        W41192  18.355   0.481   3.441 -0.0376  0.2673  0.1891
25299W        W41193   8.759   2.698   5.947  0.0984  0.0149 -0.0257
25300W        W41194  11.364  13.231  12.704  0.1501 -0.1291  0.0161
25301W        W41195   8.209  11.310   3.185 -0.3201 -0.0086  0.1877
25302W        W41196  11.389   0.801   0.087 -0.0174 -0.0841  0.0641
25303W        W41197   3.431   3.413  12.046 -0.1006  0.0786  0.0847
25304W        W41198  17.276   7.025   0.944 -0.0555  0.0015 -0.0947
25305W        W41199   2.135  10.680   5.047 -0.1476 -0.0066 -0.0559
25306W        W41200   0.191  11.459   0.312 -0.2924 -0.4258  0.3769
25307W        W41201   2.777   4.910  14.166  0.0646  0.1687 -0.1210
25308W        W41202   1.863   2.838   3.627 -0.0070 -0.2668  0.3755
25309W        W41203   4.002  13.667  11.536 -0.0907 -0.0959  0.0823
25310W        W41204  13.776   1.779  12.886 -0.1822  0.1177 -0.1499
25311W        W41205   4.789  15.550  14.435  0.1249  0.3026  0.0292
25312W        W41206   4.599   6.421  10.809 -0.0765 -0.1211 -0.3006
25313W        W41207  11.620   8.878  14.856 -0.0516  0.3522  0.2265
25314W        W41208   4.091   7.528  14.786  0.2873  0.3590 -0.0908
25315W        W41209  15.911   5.618   1.528 -0.0108  0.0699  0.2468
25316W        W41210  12.667   8.083  13.651 -0.0937 -0.1561  0.0741
25317W        W41211  10.896   5.974   4.444  0.0056  0.2032  0.0701
25318W        W41212  17.039   0.248  11.339  0.1233 -0.2834  0.1000
25319W        W41213  16.986  18.414  10.163  0.2381  0.2765 -0.1496
25320W        W41214   5.941  18.299   1.368 -0.0354 -0.0352  0.0726
25321W        W41215  14.434  11.691   4.094 -0.0434  0.3750 -0.1274
25322W        W41216  10.978  11.602  11.545 -0.0247 -0.0116  0.0801
25323W        W41217  18.180  11.763  11.023  0.0941  0.2411 -0.3020
25324W        W41218   7.155  10.195   4.694  0.2742 -0.1412  0.1869
25325W        W41219   8.619   8.695  11.900  0.2000 -0.0066  0.2595
25326W        W41220   2.141  10.961   3.908 -0.0730  0.0113  0.1603
25327W        W41221   7.024   5.480  12.477 -0.2597  0.1470  0.2635
25328W        W41222   6.853  14.317  13.540 -0.1282  0.0643 -0.3696
25329W        W41223  15.560   4.013   4.754  0.1878  0.0450  0.0039
25330W        W41224   5.401  15.857   9.757 -0.1899  0.3215  0.1717
25331W        W41225   4.817  10.978   0.883 -0.1898  0.1863 -0.0228
25332W        W41226   2.473   1.508  11.997 -0.0836  0.4473  0.0927
25333W        W41227   3.989   5.088  14.693  0.0116 -0.2320 -0.1226
25334W        W41228  17.129  11.402   1.807 -0.4362 -0.1989  0.1223
25335W        W41229  15.565  16.483   2.930 -0.2265  0.2462 -0.4127
25336W        W41230   6.616   8.283   1.382  0.1888 -0.0017 -0.3319
25337W        W41231   3.415  11.833   2.189  0.2040  0.4280  0.2020
25338W        W41232   8.799  18.373  14.578  0.3504 -0.1272  0.0351
25339W        W41233  10.021  10.113  11.646 -0.0206  0.4919 -0.0659
25340W        W41234  13.708  14.821  10.949 -0.0533 -0.0374 -0.1352
25341W        W41235  17.564   9.470  13.722 -0.1206 -0.0238 -0.0943
25342W        W41236  16.360  12.088  13.725  0.0042 -0.1287  0.1016
25343W        W41237   6.004  13.045   4.773 -0.1388 -0.1281 -0.2686
25344W        W41238   1.611  13.783   0.871  0.1394 -0.0388 -0.2022
25345W        W41239  18.779  12.521  12.854  0.0541  0.0018 -0.0598
25346W        W41240   2.396   5.485   0.340  0.2636  0.1310 -0.2624
25347W        W41241  10.631   3.574  11.245  0.0957  0.2258 -0.3536
25348W        W41242  16.311   5.011   2.090  0.2036 -0.1113 -0.1325
25349W        W41243   3.801   3.344  11.501 -0.1619 -0.1539 -0.0095
25350W        W41244   6.070   8.421   0.473 -0.0040 -0.1963  0.1847
25351W        W41245   9.464   5.744   0.529 -0.1027  0.0123 -0.1563
25352W        W41246   8.849  11.501   0.376  0.2231  0.1619  0.0460
25353W        W41247   4.107  14.643   2.208 -0.2323 -0.0945 -0.0489
25354W        W41248   3.818   1.282   4.481  0.0708 -0.1334  0.2488
25355W        W41249  11.516   5.102   0.358  0.0364 -0.1777 -0.1491
25356W        W41250  17.401  16.453  12.821  0.1749  0.0686 -0.1506
25357W        W41251   7.021  15.388  12.940 -0.2278  0.1611 -0.3883
25358W        W41252   1.283  10.565   4.620 -0.1218  0.2145  0.2213
25359W        W41253  15.938   6.218   6.443 -0.2310  0.2337  0.1496
25360W        W41254   1.587   3.322   1.832 -0.0445 -0.0560 -0.0799
25361W        W41255   1.015  15.504  11.895 -0.5262  0.1198  0.4258
25362W        W41256   2.237  14.256   4.476  0.0910  0.3905 -0.4803
25363W        W41257  11.297   5.812   1.494 -0.2146 -0.0426 -0.0549
25364W        W41258   3.471  18.161   3.664  0.3206  0.3930 -0.0696
25365W        W41259   0.145   8.975   3.996  0.1743  0.0352  0.2188
25366W        W41260   7.568   7.312   2.287  0.1736 -0.2469 -0.2903
25367W        W41261   7.778  16.807   1.694 -0.0104  0.1299 -0.1791
25368W        W41262  13.478  11.381   2.278 -0.1051  0.0861 -0.0330
25369W        W41263   7.491   7.059  11.221 -0.3435  0.1227  0.2260
25370W        W41264  10.550   8.760   4.242 -0.0549 -0.0148  0.0701
25371W        W41265  18.819  13.459   0.286  0.0547  0.1651 -0.0257
25372W        W41266   7.808  11.587  14.164  0.0930 -0.0300  0.0039
25373W        W41267   1.453   5.903  14.926 -0.0748  0.3912  0.2811
25374W        W41268  17.081  17.191  11.387 -0.1430 -0.0921  0.0784
25375W        W41269   4.009   0.121  12.408 -0.2086  0.0907  0.1954
25376W        W41270   0.956   5.089   1.846 -0.0740  0.1033 -0.1989
25377W        W41271  17.376   7.761  11.756 -0.0252  0.3489  0.1287
25378W        W41272   0.224   3.953   3.304  0.1463 -0.0603  0.0158
25379W        W41273   8.889   3.576  13.963  0.2309 -0.1651  0.3270
25380W        W41274   8.299   2.768  10.399 -0.1885 -0.0211 -0.1239
25381W        W41275   8.888  18.948   5.182 -0.1767 -0.0244 -0.2083
25382W        W41276   5.763   2.500  12.265  0.0876 -0.0248  0.0909
25383W        W41277  13.738   0.370   0.863  0.0621  0.1514  0.1085
25384W        W41278  14.129  12.738   4.869  0.3177 -0.2582 -0.0502
25385W        W41279   2.169  12.979   0.900 -0.1467 -0.3620  0.4310
25386W        W41280  17.680   6.171   9.513 -0.2000 -0.3324 -0.3020
25387W        W41281  14.531  14.507   3.120 -0.1022  0.3218 -0.1032
25388W        W41282   3.880  16.953  11.539  0.0395 -0.0005  0.0394
25389W        W41283   5.727  13.973   4.249  0.1690  0.2919 -0.0120
25390W        W41284  14.531  18.029  13.186 -0.3201  0.2014 -0.1802
25391W        W41285  15.207   2.970   4.308  0.1033  0.1724 -0.2997
25392W        W41286  10.385  13.668  10.753 -0.2137 -0.0922  0.4035
25393W        W41287   3.363   6.470   0.930 -0.0405  0.0112 -0.1924
25394W        W41288   2.756  18.726   3.850 -0.0608 -0.0066  0.1121
25395W        W41289   5.618   7.985   2.162 -0.0620  0.1892  0.0388
25396W        W41290  12.162   8.933  14.084  0.1076 -0.3006 -0.0719
25397W        W41291   2.078  17.176  13.961  0.1628  0.0375  0.0810
25398W        W41292   3.269  16.011  11.151 -0.1476 -0.1542  0.1039
25399W        W41293   2.777  17.888  11.830  0.1039 -0.0049 -0.2189
25400W        W41294   5.453  14.859   0.533 -0.1109  0.1701  0.3005
25401W        W41295   7.796  12.998   5.559 -0.1867  0.3925 -0.4129
25402W        W41296  16.672  15.615  12.011  0.3660  0.2043  0.1175
25403W        W41297  17.327   2.595   1.741 -0.2472 -0.1771 -0.1207
25404W        W41298   0.772   8.007   5.077  0.1142  0.4349 -0.0060
25405W        W41299  18.638  15.510   4.194 -0.2087 -0.2191  0.0815
25406W        W41300   5.467   1.874   2.202 -0.1286 -0.3980 -0.0207
25407W        W41301   5.031  16.812  13.774  0.1904  0.5066 -0.0923
25408W        W41302  18.673   7.142   0.070 -0.2224 -0.0640  0.1094
25409W        W41303   7.740   2.027  12.638 -0.1060 -0.1727 -0.3738
25410W        W41304  13.382   1.786   1.217  0.0320  0.1834  0.1870
25411W        W41305   6.949  15.025  11.761  0.0914  0.3857 -0.2621
25412W        W41306  13.823  10.793  10.810 -0.2035  0.2364 -0.0456
25413W        W41307   0.698  13.364  10.433 -0.0715  0.0170 -0.1152
25414W        W41308  16.609   9.943  12.870  0.1127 -0.0739  0.1222
25415W        W41309  12.954  13.623   5.266  0.0983 -0.1562 -0.1598
25416W        W41310  18.986  14.068   4.154  0.0129  0.2322  0.1227
25417W        W41311   1.219   1.087   2.805 -0.0043 -0.1159  0.0260
25418W        W41312   2.051   0.589  10.225  0.3311 -0.0980 -0.1102
25419W        W41313   1.444  13.319   2.912 -0.2180  0.3154  0.2841
25420W        W41314   3.274  17.236  11.218 -0.0677  0.1721 -0.1444
25421W        W41315  15.065  13.911  11.025 -0.3040  0.0226  0.0600
25422W        W41316   6.814   5.128   4.826 -0.1669 -0.1764  0.0238
25423W        W41317  18.417   1.719  11.412 -0.0211  0.2027 -0.0144
25424W        W41318   7.501  10.978  12.486 -0.1512  0.0529 -0.2365
25425W        W41319   5.418  18.821  14.985 -0.1750  0.2689  0.0971
25426W        W41320  17.839  16.134  14.796  0.2398 -0.3420  0.0106
25427W        W41321   0.482  15.974   0.241 -0.1221 -0.1170 -0.0526
25428W        W41322   7.922   0.364  14.372 -0.1351  0.2369  0.2908
25429W        W41323  15.171  12.044  11.962 -0.4483  0.2639 -0.0741
25430W        W41324  14.910  13.930   4.940 -0.3785 -0.0539 -0.0998
25431W        W41325   8.718   7.080  12.292 -0.2924 -0.1049  0.2452
25432W        W41326   4.341  16.971  11.317 -0.3083  0.2504  0.0300
25433W        W41327  14.023  11.829  13.992  0.2119 -0.0969 -0.1267
25434W        W41328  11.049  18.453   4.129  0.0584  0.0253  0.0570
25435W        W41329  17.246  12.172   4.767  0.0047 -0.3996  0.0368
25436W        W41330   8.974   7.976  12.878 -0.0333  0.4125  0.0512
25437W        W41331   6.741  13.670   0.473 -0.2253 -0.0108  0.3810
25438W        W41332  16.088   5.174  11.727 -0.1682 -0.0302  0.2826
25439W        W41333  13.009  17.235  14.434 -0.1346  0.0348  0.1497
25440W        W41334   5.430   6.972   0.125 -0.0595  0.0270  0.0217
25441W        W41335   1.771  11.443  11.054  0.1818  0.2087  0.1647
25442W        W41336  16.390   3.527   4.823 -0.1983 -0.0301  0.4643
25443W        W41337  18.809  13.148   4.747 -0.0496  0.2266  0.1485
25444W        W41338   1.018   0.687  10.194  0.0705 -0.1409  0.4015
25445W        W41339   0.551   7.114   0.967  0.0170 -0.2143 -0.0396
25446W        W41340  10.336  12.212   2.384 -0.1168 -0.0677 -0.1571
25447W        W41341  17.308  11.572  11.634  0.3163 -0.0475  0.1167
25448W        W41342  14.185   9.399   1.259  0.0186 -0.1434  0.2038
25449W        W41343  15.753  10.800   9.257 -0.3302 -0.1962 -0.2198
25450W        W41344   4.350  17.162   4.767  0.0202 -0.0981 -0.1680
25451W        W41345   9.619  14.822   2.784  0.0022 -0.2727  0.0231
25452W        W41346   0.616   4.254   0.405 -0.2275  0.0083 -0.1470
25453W        W41347  14.445   0.609   5.161 -0.2305 -0.1640  0.0205
25454W        W41348  13.535  17.719   3.533  0.3910  0.0745 -0.2751
25455W        W41349  10.840  16.900   4.296 -0.1215 -0.0491  0.2424
25456W        W41350  15.699   0.992  14.027  0.1748 -0.0854 -0.4470
25457W        W41351   5.385  17.701   2.225 -0.2629 -0.3444  0.1237
25458W        W41352   8.039  15.974  12.624 -0.0754  0.0571  0.0928
25459W        W41353   3.774  12.848  11.473  0.2143  0.0489 -0.2410
25460W        W41354   1.693   9.440   4.237 -0.2941  0.2317 -0.3044
25461W        W41355   4.860   5.757   1.436 -0.0340  0.0731  0.2124
25462W        W41356   9.134  10.052   1.805 -0.0239  0.2689  0.2939
25463W        W41357  10.348   1.143  11.869  0.0584 -0.0087  0.3525
25464W        W41358  17.463   5.155   4.230  0.0488  0.2643  0.1936
25465W        W41359   7.595   1.341   4.174  0.0183  0.0375 -0.1343
25466W        W41360  16.278   0.411   2.793  0.0447 -0.2384  0.0807
25467W        W41361   1.866   9.123   1.668  0.1374  0.1411  0.1342
25468W        W41362   9.455   5.930   4.498 -0.0313  0.0612 -0.0349
25469W        W41363  19.182   5.073  13.301 -0.3677  0.2754 -0.2478
25470W        W41364  10.089   0.391   3.908  0.0768 -0.2480  0.0519
25471W        W41365   2.232  13.015  14.460 -0.1004 -0.1445 -0.1459
25472W        W41366  17.083  11.827   0.971 -0.0521 -0.1046  0.3372
25473W        W41367   0.062   8.697  11.524 -0.0157 -0.0035  0.1311
25474W        W41368  18.484  15.489  14.405 -0.0117  0.0026  0.1470
25475W        W41369   9.621   4.315   4.235  0.0693 -0.1969 -0.1144
25476W        W41370   6.954   7.694   4.453  0.1709 -0.0485  0.3206
25477W        W41371   1.616  17.988   3.165  0.3283  0.2041  0.0552
25478W        W41372  18.686   9.913  12.671 -0.1145  0.0857 -0.1673
25479W        W41373  12.901  17.414  11.972  0.1766  0.1551  0.1500
25480W        W41374   0.169  10.166   3.141 -0.2460 -0.7592  0.3123
25481W        W41375  12.506  16.620   1.891  0.4083 -0.0209  0.2598
25482W        W41376   8.748  18.992  10.569  0.1563  0.0746 -0.2717
25483W        W41377  12.077   1.248   3.968 -0.1288 -0.1266  0.5119
25484W        W41378  14.158   3.019   2.546  0.1313 -0.1236 -0.0257
25485W        W41379  10.808   1.736  15.047  0.3043  0.0560 -0.0049
25486W        W41380  18.189  15.230   0.819  0.2205  0.1138  0.3767
25487W        W41381   8.240   9.935  13.911  0.0752 -0.2013 -0.1392
25488W        W41382  12.686   8.027   4.244  0.0167  0.3595 -0.2233
25489W        W41383   0.870  17.657  13.118  0.0852 -0.3063  0.1614
25490W        W41384  14.572   3.677  12.839 -0.1133 -0.0414 -0.1413
25491W        W41385   7.615  14.959   0.365  0.2368 -0.1262  0.0109
25492W        W41386   1.524  11.924   2.126  0.4607  0.1689  0.1822
25493W        W41387   1.695   3.183   0.927  0.1308  0.1201  0.0085
25494W        W41388  12.786   9.782   0.378  0.0609 -0.0913 -0.0725
25495W        W41389  17.706   1.943  13.728 -0.0947  0.2029  0.1849
25496W        W41390   7.297   5.730  14.144  0.2074 -0.1839  0.1129
25497W        W41391  11.127   2.639  13.356 -0.0976 -0.3456 -0.2776
25498W        W41392   7.253  16.088  13.730  0.2471 -0.1490 -0.2416
25499W        W41393   2.015  11.958  12.011  0.2301 -0.0586  0.0225
25500W        W41394   1.851   3.012  13.995  0.1732 -0.0106 -0.0085
25501W        W41395   3.629   8.522  14.244 -0.0906  0.2673 -0.3809
25502W        W41396   0.435   2.592   0.105  0.3828  0.0656 -0.2218
25503W        W41397   2.431   4.106   9.495  0.1413 -0.0325 -0.1132
25504W        W41398   4.040   6.042   1.646 -0.2617 -0.0306 -0.2432
25505W        W41399   1.106   3.344  11.076  0.0097 -0.2243 -0.0756
25506W        W41400  16.694   0.692  11.973  0.2157  0.1203 -0.2049
25507W        W41401   2.765  14.920  13.576  0.2221 -0.0727  0.1289
25508W        W41402   7.057   4.128  11.064 -0.1944 -0.0847 -0.0350
25509W        W41403   2.649   8.495   1.412 -0.2161 -0.0407  0.0490
25510W        W41404  17.952   9.220  14.295 -0.1487  0.2588  0.0169
25511W        W41405  10.912   0.310  10.732  0.2123 -0.3882 -0.2274
25512W        W41406   0.421  16.295  12.919  0.3931  0.0083  0.0046
25513W        W41407  11.030   5.101  12.749 -0.0331 -0.1542  0.1300
25514W        W41408   5.725   4.978   4.040 -0.2940  0.3979 -0.0803
25515W        W41409   2.472   7.211  11.110  0.1487 -0.2162 -0.4390
25516W        W41410  17.926  11.446  13.527 -0.2478 -0.0212 -0.0095
25517W        W41411   6.357  14.694  12.802 -0.0165 -0.0057 -0.0170
25518W        W41412   2.118   5.637   1.508 -0.1497  0.2862  0.1836
25519W        W41413  10.428   0.421  10.840  0.1732  0.2651 -0.0101
25520W        W41414   6.589  17.143   0.218 -0.0637 -0.0538 -0.0411
25521W        W41415  12.214  17.489  12.641 -0.0850 -0.2745 -0.0942
25522W        W41416   9.996   7.787  13.913 -0.1738 -0.2600  0.0534
25523W        W41417  12.549   3.958  10.327  0.0978 -0.0293 -0.0573
25524W        W41418  10.034   0.956   1.315  0.2516 -0.0015 -0.0298
25525W        W41419  13.431   0.374   2.117 -0.1140  0.1677  0.1733
25526W        W41420   3.596  15.659   4.358 -0.1310 -0.1411 -0.1460
25527W        W41421  12.127   9.246  12.625  0.0131 -0.0374  0.1230
25528W        W41422   0.798   2.622   1.981 -0.2667  0.0370  0.1382
25529W        W41423  16.348  18.363  12.491  0.0345  0.0926  0.1390
25530W        W41424   8.333  14.817   3.903  0.1455  0.0483  0.1728
25531W        W41425  16.760  15.069   1.530 -0.2231 -0.1268  0.0830
25532W        W41426   5.210   2.851  14.924 -0.3168  0.1823 -0.1450
25533W        W41427  10.643   3.526   5.722 -0.3203  0.0331 -0.0734
25534W        W41428  11.175   9.026   1.307  0.0785 -0.2381  0.2576
25535W        W41429   6.730  14.374   2.038  0.2292 -0.0958  0.2801
25536W        W41430   6.074   4.018  12.428  0.0827  0.1222  0.1211
25537W        W41431   1.522   7.031  13.587 -0.2727 -0.0070  0.1301
25538W        W41432   8.456   7.732   0.370  0.1430  0.0542  0.0095
25539W        W41433   6.350  17.628   2.339 -0.0038 -0.0454 -0.0013
25540W        W41434  11.699   2.637   0.429  0.1885 -0.2292  0.0844
25541W        W41435  11.210   9.866  13.368  0.1082 -0.0203 -0.2418
25542W        W41436  14.098   0.948  10.685 -0.2189  0.2401  0.2910
25543W        W41437   9.908   9.451   1.520  0.0599  0.1173 -0.0812
25544W        W41438   7.045   6.579   4.525 -0.1075  0.0226  0.0872
25545W        W41439  18.452   7.350  12.476  0.2069  0.1358 -0.4487
25546W        W41440   6.344   6.141  12.234 -0.0350  0.1153 -0.4409
25547W        W41441   9.446  17.013   1.189 -0.0924  0.1348 -0.0313
25548W        W41442   1.352  11.009   3.621 -0.2034 -0.2186 -0.2293
25549W        W41443  14.274  14.743  13.307 -0.2328 -0.1510  0.1118
25550W        W41444   0.507   1.354  11.917  0.1830  0.1005  0.0930
25551W        W41445   0.110  16.787  10.812  0.0303 -0.1092 -0.1651
25552W        W41446   7.799  11.115  13.377 -0.2935 -0.0763  0.1808
25553W        W41447   4.212   6.098   0.334  0.1839 -0.2174 -0.1994
25554W        W41448   3.037   8.331   2.789  0.0516  0.0651 -0.0679
25555W        W41449  14.988   5.076  13.471  0.0640  0.2503 -0.1170
25556W        W41450   2.264  15.166  13.661  0.0933  0.2715  0.1673
25557W        W41451  16.292   4.988  13.070 -0.0216  0.1002  0.0962
25558W        W41452  12.600  18.523  14.719 -0.0253  0.2850 -0.1124
25559W        W41453   9.756  10.605   2.754  0.1898  0.0103  0.1089
25560W        W41454  10.109   5.320   1.136  0.2444 -0.3849  0.1446
25561W        W41455   3.143  14.291  13.055  0.0612  0.0601 -0.0051
25562W        W41456  11.923   8.487  11.166 -0.3294 -0.1828  0.2314
25563W        W41457  11.923   9.727   1.195  0.0184 -0.1315 -0.0252
25564W        W41458   0.050  16.965  14.873  0.1038 -0.1096 -0.3108
25565W        W41459   6.217   2.056   1.612 -0.0636 -0.0755  0.1775
25566W        W41460   3.659   8.872  11.165 -0.2194  0.0859  0.1446
25567W        W41461   4.929  15.339  12.371  0.0797  0.3461 -0.1262
25568W        W41462  12.744  12.769  14.145  0.1530 -0.0202  0.1304
25569W        W41463  12.076  13.468  14.716 -0.0870  0.1462 -0.2907
25570W        W41464   2.132   9.204   4.865  0.1552  0.0529 -0.0932
25571W        W41465  13.105  11.929   5.701  0.1958 -0.1512 -0.0475
25572W        W41466  11.256  13.601   2.850  0.1135  0.0209 -0.2629
25573W        W41467  15.712  14.086   4.628 -0.0083  0.0478 -0.0240
25574W        W41468  14.905   0.858  13.428 -0.0368 -0.0026 -0.3431
25575W        W41469   4.838  16.343  12.056  0.0190 -0.1763 -0.0317
25576W        W41470  12.109  17.805  12.257  0.0368 -0.0774 -0.0345
25577W        W41471  15.632   3.570   2.239  0.0766  0.4627 -0.2721
25578W        W41472   0.814   1.625   0.325 -0.0056 -0.3726  0.0171
25579W        W41473   1.613   9.610   2.651  0.1784 -0.1939  0.2415
25580W        W41474  12.095  13.021   0.531  0.0908  0.2807  0.0796
25581W        W41475   8.724  18.824   9.252  0.0155  0.0366  0.0843
25582W        W41476  15.574   9.426  14.051  0.0213  0.2110 -0.0409
25583W        W41477   8.417   7.479  11.041 -0.1276  0.2539  0.1556
25584W        W41478  11.622   8.912   9.326  0.2539  0.2712  0.0362
25585W        W41479   9.005   3.092  12.042  0.0719  0.1296  0.2011
25586W        W41480   2.656  14.170   5.209  0.3937 -0.0942  0.0401
25587W        W41481   2.669   3.277   5.864 -0.3614 -0.2288  0.2634
25588W        W41482   5.633   8.189   0.705 -0.0017 -0.0569 -0.1417
25589W        W41483  16.788  16.102   3.489  0.4364  0.2688 -0.1778
25590W        W41484  13.544  12.209  10.797  0.1510 -0.3744  0.0806
25591W        W41485  16.937   5.732  13.448  0.0674  0.0364  0.1111
25592W        W41486  15.515  14.081  11.702  0.1824  0.1803 -0.2751
25593W        W41487  19.084   4.875   5.592 -0.4381 -0.0488  0.2715
25594W        W41488   0.561   3.054  11.795  0.0180 -0.0691  0.0803
25595W        W41489  12.922  18.052   2.825 -0.0439  0.1278 -0.1705
25596W        W41490  12.269  12.219   3.549  0.1719 -0.1080 -0.1187
25597W        W41491   8.069   6.235  13.365 -0.1617  0.0487 -0.0353
25598W        W41492   9.352   5.143   1.579  0.0484 -0.1129  0.2238
25599W        W41493  12.532  17.724   5.084 -0.2096  0.0500 -0.0949
25600W        W41494   1.247  11.609  11.862  0.4447 -0.0984  0.2141
25601W        W41495  10.536   9.062   4.602 -0.2590  0.1703  0.0720
25602W        W41496   9.143  14.463  12.839  0.0180 -0.3440  0.0943
25603W        W41497  11.431   9.673   3.154  0.1506 -0.0099 -0.0593
25604W        W41498   2.452   3.628  11.050  0.0915  0.3500  0.1980
25605W        W41499   8.333   8.286  11.711 -0.2473 -0.3783 -0.1018
25606W        W41500  14.853   9.092   0.144 -0.2670  0.1284  0.0070
25607W        W41501  10.016   8.606   5.212 -0.0635  0.1283 -0.0472
25608W        W41502  12.254   9.821   2.662 -0.0283  0.1864 -0.1163
25609W        W41503  12.646   5.706   6.038 -0.3888 -0.1639 -0.0512
25610W        W41504   2.903  15.898  12.351  0.1397 -0.1245 -0.2621
25611W        W41505   5.607  10.213   3.022  0.1517 -0.3634 -0.3243
25612W        W41506  13.697  16.602   1.410 -0.3591 -0.2357 -0.0596
25613W        W41507   5.220   0.279   4.316  0.1219  0.1560 -0.2484
25614W        W41508  15.591   2.052   0.589 -0.0049  0.0862 -0.1876
25615W        W41509   8.960   6.944  14.988  0.1165 -0.3433 -0.1021
25616W        W41510   7.413  11.671   2.622 -0.0556  0.0595  0.2231
25617W        W41511   2.337  13.371   0.635 -0.1519  0.3091 -0.0466
25618W        W41512   0.521   2.615  10.780 -0.0312 -0.1105  0.0880
25619W        W41513   1.372   2.423   1.435 -0.2364 -0.0095  0.1096
25620W        W41514   5.978  12.297   1.969 -0.3198 -0.0012 -0.0829
25621W        W41515   2.041  10.777   1.526  0.0660  0.1053  0.1124
25622W        W41516  17.585   7.321   1.910 -0.1042  0.0872  0.1077
25623W        W41517   5.609   0.773  10.804  0.0805  0.0142 -0.1303
25624W        W41518  12.126  16.370  11.795 -0.3884  0.0732  0.2524
25625W        W41519   2.602  17.776   0.414 -0.1037 -0.2971 -0.1351
25626W        W41520   3.971   4.174   3.752 -0.0854  0.1303 -0.0630
25627W        W41521   3.573   6.175   1.632  0.0161 -0.0864 -0.0974
25628W        W41522  10.234   4.677   0.167 -0.0810 -0.1476 -0.2200
25629W        W41523  13.366   0.869   2.272  0.1044  0.3314  0.0371
25630W        W41524   4.591   3.887  12.521 -0.1445  0.0119 -0.0973
25631W        W41525   9.278   8.665   2.206  0.1380 -0.2535  0.2853
25632W        W41526   9.252  15.923  13.463  0.1718 -0.0346 -0.0910
25633W        W41527  16.317   4.981  12.563 -0.0790  0.1868 -0.1187
25634W        W41528   4.918  17.220  13.123  0.0896 -0.1455 -0.0652
25635W        W41529   7.083   7.133   2.294 -0.2440 -0.0378 -0.0961
25636W        W41530  12.067  18.028  13.543  0.0278 -0.0661  0.1541
25637W        W41531   9.702  13.775   2.675  0.0439  0.1155  0.2432
25638W        W41532   9.936  10.737   0.211 -0.0993 -0.1055  0.3975
25639W        W41533   6.292  12.322  11.956 -0.0403 -0.2048 -0.1311
25640W        W41534  11.189   5.931  12.504  0.0317 -0.2559  0.1601
25641W        W41535  10.138  18.311  10.482 -0.1961  0.1153  0.0385
25642W        W41536  12.975  11.819  12.399 -0.0910  0.0166  0.1080
25643W        W41537   7.934  14.342   4.324  0.2316  0.2225  0.3132
25644W        W41538  17.592  15.053  13.683 -0.0301 -0.0855 -0.2795
25645W        W41539   8.997   7.445   2.558 -0.1449 -0.0298 -0.3202
25646W        W41540   6.105   0.612  10.911  0.2316  0.1046  0.3769
25647W        W41541  10.100  12.953   4.965 -0.0263  0.0975  0.3991
25648W        W41542  12.414   9.748   5.555 -0.1164  0.1725 -0.2688
25649W        W41543   1.293  16.359   3.696  0.0832  0.0549 -0.1416
25650W        W41544  18.509  17.294   1.447 -0.1354 -0.2042  0.0853
25651W        W41545  14.388  16.913  14.615  0.2987  0.0195  0.0809
25652W        W41546   3.103  16.117  14.671  0.1973  0.0953  0.4029
25653W        W41547  12.291  18.106   1.133  0.3397 -0.1054  0.1615
25654W        W41548   6.733   7.175  12.143  0.2395  0.1351 -0.1552
25655W        W41549   7.096   1.429   4.384 -0.0627 -0.1544  0.0061
25656W        W41550  16.211   1.309  11.497 -0.2183 -0.2771 -0.0173
25657W        W41551  10.259   2.818  12.268  0.0372  0.2019 -0.1380
25658W        W41552   4.406  14.553  11.003 -0.0952 -0.1866 -0.0298
25659W        W41553  13.470  11.243   1.349  0.1088 -0.5226 -0.0932
25660W        W41554  18.600   8.330   2.434  0.0566 -0.1007 -0.0362
25661W        W41555  13.845   7.499  10.952  0.0859  0.0969  0.1375
25662W        W41556  18.212  12.973   5.151 -0.1865  0.0459  0.1569
25663W        W41557  13.519  10.380   3.890 -0.0441  0.2650 -0.2499
25664W        W41558  16.749   5.602  14.988 -0.1405 -0.0432  0.0318
25665W        W41559   0.244  18.648  14.052 -0.1758 -0.0192  0.0183
25666W        W41560   1.005  10.074   1.958 -0.0191  0.0128 -0.0395
25667W        W41561  10.115  12.476  10.741  0.2607  0.0891  0.0426
25668W        W41562  14.849  14.335   2.251 -0.0361 -0.0531  0.2090
25669W        W41563   3.514   2.963   4.113 -0.2579 -0.2340  0.1612
25670W        W41564  10.614   6.723  13.298  0.0928 -0.1339  0.1976
25671W        W41565   2.707  12.846  15.155  0.0717  0.0068  0.0649
25672W        W41566  10.851   5.031  14.727  0.2492 -0.3504  0.3883
25673W        W41567   0.862  14.565   2.708  0.1808 -0.0193  0.0565
25674W        W41568   1.669   6.955  11.690  0.3245 -0.1280  0.2044
25675W        W41569   6.589   2.045   4.026 -0.2169 -0.1922 -0.1513
25676W        W41570  15.866  11.713  12.399  0.3135 -0.1165  0.1989
25677W        W41571   6.316  14.762  10.259 -0.2357 -0.1413  0.0879
25678W        W41572   5.205  17.703   1.420 -0.2140 -0.1077 -0.2527
25679W        W41573   1.808  14.228   0.830 -0.0670 -0.2071 -0.2639
25680W        W41574   3.016   4.146  14.735  0.0406  0.1419 -0.0945
25681W        W41575   0.500   7.412  11.154  0.1469 -0.3370  0.2223
25682W        W41576   9.697   2.390  13.616 -0.0371  0.1408 -0.1552
25683W        W41577   2.761   4.243  12.724 -0.3469 -0.0161 -0.0580
25684W        W41578   6.781   2.840  10.948  0.2708 -0.2820 -0.1402
25685W        W41579  12.267   8.434   3.679 -0.3344 -0.1347 -0.3107
25686W        W41580  13.277  14.121  14.222 -0.0035 -0.4253 -0.1488
25687W        W41581   9.260  12.897  14.804  0.1005 -0.0087 -0.0320
25688W        W41582   4.540   8.302  12.693 -0.0434  0.0504  0.0720
25689W        W41583  10.900  19.052   2.333  0.0792 -0.1157 -0.1751
25690W        W41584   9.456   8.380   1.884 -0.6075  0.1042  0.3745
25691W        W41585  14.645   7.913  10.816 -0.0923  0.0468  0.1083
25692W        W41586   5.883  17.718   0.416  0.0248  0.1661  0.0417
25693W        W41587   6.658   6.046  13.216  0.2914 -0.0036  0.3378
25694W        W41588  11.883   5.452   5.865  0.3439 -0.0530  0.0459
25695W        W41589  15.027  15.191  12.513 -0.1550  0.1441 -0.1767
25696W        W41590  15.440  16.198   3.593  0.1041  0.1324  0.0743
25697W        W41591   4.588   4.522   0.890  0.2103 -0.2392  0.0042
25698W        W41592  13.556   5.275   3.473 -0.0661 -0.0591  0.0921
25699W        W41593   3.048  16.404  14.195 -0.3063  0.0377 -0.4889
25700W        W41594  13.458   0.922   4.533 -0.1289  0.0984 -0.4579
25701W        W41595  14.484  11.956   4.604  0.1199 -0.0079 -0.0739
25702W        W41596   0.970  16.473  11.656 -0.1359 -0.0347 -0.0806
25703W        W41597   3.900   9.406   0.766 -0.0681 -0.2308  0.2750
25704W        W41598  18.513   1.833   3.509 -0.0356 -0.2455 -0.2447
25705W        W41599  11.732   3.127  14.344  0.1671 -0.0211 -0.2055
25706W        W41600   2.832   8.072   5.200 -0.0566 -0.2848 -0.3228
25707W        W41601  11.636   3.549  12.132 -0.0069 -0.5266  0.2172
25708W        W41602   7.357   5.966   0.945 -0.1411 -0.3806  0.0288
25709W        W41603  10.420  16.724   3.090  0.1044 -0.1281  0.3024
25710W        W41604  17.618   0.680   1.808  0.0256 -0.0194 -0.0131
25711W        W41605  11.724   4.045  12.528 -0.0149 -0.5139  0.2259
25712W        W41606  17.916  13.465   3.675  0.1361  0.0562 -0.2692
25713W        W41607   0.258  13.328  13.300  0.0172  0.2454 -0.2201
25714W        W41608  11.092   7.560   0.895  0.1597  0.4126  0.1217
25715W        W41609   8.891  12.430   5.159 -0.2334  0.1086  0.1093
25716W        W41610  16.772   9.525   2.735 -0.1652  0.2962  0.0893
25717W        W41611   7.889   6.141   2.975  0.0592 -0.0065 -0.1147
25718W        W41612  10.859   6.891  14.857  0.0192  0.1373 -0.3902
25719W        W41613  16.718  11.925  13.439  0.0596  0.0529  0.3296
25720W        W41614  12.531   6.325  11.482  0.1557 -0.0149  0.5783
25721W        W41615   5.605   5.315  11.528  0.0481 -0.0760  0.1033
25722W        W41616   2.540  11.228  13.007  0.0048 -0.3102 -0.2388
25723W        W41617   4.832  12.579   1.522 -0.1331  0.0392  0.2737
25724W        W41618   4.369  18.522  10.811 -0.0679  0.1038 -0.2362
25725W        W41619   1.538  16.873  14.664 -0.1863 -0.2704  0.0231
25726W        W41620   9.614  16.970   3.543  0.0580 -0.0957  0.1178
25727W        W41621  14.355  10.882  11.621 -0.0497 -0.0868 -0.1402
25728W        W41622  12.955  12.347  13.136  0.1274  0.1208 -0.0849
25729W        W41623   1.885   9.487  14.859  0.3170 -0.0883 -0.2064
25730W        W41624   2.859   0.697  11.446  0.0215 -0.4545  0.4582
25731W        W41625   6.430  16.054  10.215  0.1050  0.0878  0.1137
25732W        W41626   4.594   7.379  12.012  0.1257 -0.0391  0.2306
25733W        W41627   7.340   2.030  12.357  0.2974  0.2138 -0.3774
25734W        W41628  12.560  14.039   0.831  0.1406  0.1073  0.0802
25735W        W41629  13.050  16.637  11.447 -0.0891  0.2117  0.2676
25736W        W41630   9.598   7.839   4.689 -0.0820  0.0682  0.0119
25737W        W41631  10.495   6.973   3.793  0.1216 -0.0138 -0.0072
25738W        W41632  18.970   3.790   5.080 -0.1473 -0.1542 -0.0617
25739W        W41633   7.340  18.113   0.704 -0.1065  0.2645 -0.1911
25740W        W41634  11.273  16.960   0.365 -0.0887 -0.0140  0.0479
25741W        W41635  18.904   1.458  14.133  0.0119  0.0785 -0.0809
25742W        W41636  10.184   4.052   2.272  0.1479 -0.0702 -0.1030
25743W        W41637   6.931  14.940  10.788 -0.0833  0.0627  0.1095
25744W        W41638   3.191  13.455  12.105 -0.0255  0.0116  0.1985
25745W        W41639   6.127   9.727  13.453  0.0115  0.0027  0.0936
25746W        W41640  13.190  12.983   2.060  0.3444  0.1213 -0.1262
25747W        W41641  13.102   6.462   3.875 -0.0599 -0.0275  0.4808
25748W        W41642  12.154   8.965   1.951  0.1961  0.0503  0.5036
25749W        W41643   1.693  16.008   0.344  0.1416  0.0330 -0.0598
25750W        W41644   8.713   4.468   4.461 -0.3299  0.2751  0.2772
25751W        W41645  13.401   2.386   9.895 -0.0082 -0.0696 -0.1310
25752W        W41646  10.415  11.519  12.327  0.1536 -0.0243  0.2681
25753W        W41647  15.199   6.453  11.240  0.1429 -0.0437  0.0681
25754W        W41648  14.735   2.180   3.864  0.0580 -0.2312  0.1723
25755W        W41649  10.739   3.391   0.788  0.1931 -0.0931  0.3552
25756W        W41650   8.099   2.199   2.787 -0.0131 -0.0436  0.2546
25757W        W41651  18.412  12.072   4.946  0.1785  0.1077  0.0502
25758W        W41652  18.029  16.459   0.975  0.1188  0.0899  0.0713
25759W        W41653  11.995   0.930   1.248 -0.0306 -0.0172  0.0825
25760W        W41654  12.430   1.562   4.199  0.5125 -0.2594  0.0879
25761W        W41655  15.262  14.547   0.761 -0.1721  0.1466 -0.1268
25762W        W41656   3.314  13.684   0.115  0.0932  0.3047 -0.2891
25763W        W41657   9.887   9.863   1.948  0.1177  0.1238 -0.1847
25764W        W41658   7.851  18.211   0.522  0.1954  0.0086 -0.1574
25765W        W41659   4.721   8.302   2.565 -0.1026  0.3212  0.1038
25766W        W41660  16.030   2.440  14.116 -0.1058  0.0725 -0.1183
25767W        W41661  15.085  12.726   3.884 -0.0330 -0.2069 -0.0718
25768W        W41662   3.586   5.907  13.721 -0.0115  0.1173  0.0308
25769W        W41663  14.048   0.421   3.893 -0.3510 -0.0250 -0.1072
25770W        W41664  13.677   4.605  10.462 -0.0945 -0.3818 -0.1565
25771W        W41665   5.446   9.830   0.262  0.0296 -0.0286  0.0717
25772W        W41666   4.429   1.747   0.385 -0.0268 -0.0082  0.0164
25773W        W41667   0.650  18.864  11.053 -0.1102  0.0523  0.0018
25774W        W41668   3.704   5.035   1.142 -0.0782  0.0801 -0.1104
25775W        W41669   8.808  17.112  11.074  0.0715 -0.2177 -0.0525
25776W        W41670   2.019   8.453  11.380  0.0480  0.0040 -0.1264
25777W        W41671  15.743  14.630  12.011  0.5492  0.0453 -0.1704
25778W        W41672   6.203  10.754  13.172 -0.3325  0.0651 -0.2492
25779W        W41673   6.482  14.063   1.542 -0.1868  0.0476 -0.0876
25780W        W41674  12.164   3.614  12.220  0.4287  0.1479  0.0354
25781W        W41675   2.155  10.979  13.911 -0.0264 -0.2420  0.1603
25782W        W41676  17.359  14.893  14.145 -0.1632 -0.2854  0.1215
25783W        W41677  13.749  13.048  11.944  0.2633  0.2519  0.0774
25784W        W41678  11.044   7.668   0.442  0.1452  0.0389  0.4600
25785W        W41679   3.677  10.624   4.095 -0.2863 -0.0325  0.2242
25786W        W41680   3.030   3.627   0.952  0.3101 -0.0464  0.0268
25787W        W41681  11.333   8.270   5.015 -0.0137 -0.1773  0.0292
25788W        W41682   7.677  18.297   3.658 -0.2835  0.3508 -0.0640
25789W        W41683   5.099   6.679  13.379 -0.0161 -0.1683  0.2826
25790W        W41684   0.325   4.709   3.490  0.2551  0.4235 -0.0739
25791W        W41685   4.577  18.349  14.445  0.0140  0.1888 -0.0588
25792W        W41686  14.868  17.037  15.108 -0.1133 -0.2525  0.1930
25793W        W41687   1.812   6.132   3.610  0.0279  0.1330  0.0516
25794W        W41688   0.093  17.691  13.387 -0.2247 -0.0968 -0.1615
25795W        W41689   4.608  13.064  12.384 -0.1101  0.0184  0.2298
25796W        W41690   0.232  11.594  10.715 -0.0842  0.2259 -0.1244
25797W        W41691  17.170  11.077   5.593  0.1559 -0.0155 -0.1080
25798W        W41692  15.241   8.631   4.690  0.0748  0.0150 -0.0624
25799W        W41693   0.021   4.889   0.677 -0.0719 -0.1971  0.0229
25800W        W41694  16.816   6.603   2.716 -0.0467  0.0664  0.1078
25801W        W41695  17.084  12.362   3.649 -0.0388 -0.0194 -0.0899
25802W        W41696   6.398   6.189   1.951 -0.1098 -0.1925  0.0365
25803W        W41697   1.859  12.338  12.360 -0.0923  0.3565  0.1838
25804W        W41698   7.724   7.929   2.096 -0.2694  0.0252  0.1838
25805W        W41699  15.806  12.160   4.493  0.1586  0.2694 -0.0992
25806W        W41700   5.962   0.996   3.820  0.1237 -0.2626  0.0949
25807W        W41701   9.268   5.444   4.052  0.2215 -0.2427 -0.0465
25808W        W41702   5.268  17.441   5.199  0.2678  0.0205  0.1072
25809W        W41703   2.007   1.553   5.362 -0.1062  0.1253  0.2052
25810W        W41704  17.153  11.656  10.652 -0.3879 -0.1320 -0.0650
25811W        W41705  14.105   1.338   4.498 -0.0138  0.0402  0.0505
25812W        W41706   2.694   9.565   1.770  0.3153  0.1237  0.1871
25813W        W41707   8.523  13.465  10.482 -0.1064  0.2867  0.0854
25814W        W41708  12.033   9.573  13.001  0.0739  0.1532  0.0699
25815W        W41709   6.757   8.356   9.317 -0.0059 -0.1108  0.0468
25816W        W41710   1.539   6.712  11.150 -0.2842 -0.0020 -0.2019
25817W        W41711  14.358  18.362   2.221  0.4177  0.0489 -0.3429
25818W        W41712  14.927   8.663   9.679  0.1658 -0.2000 -0.3455
25819W        W41713   3.752  15.805   3.105 -0.0569 -0.0369 -0.2788
25820W        W41714   1.487  12.725  11.529  0.1469 -0.1718 -0.0584
25821W        W41715   4.343   9.820   3.062  0.1739  0.0021  0.0561
25822W        W41716  10.981   5.827   2.556 -0.0536 -0.3826 -0.2299
25823W        W41717  12.947  11.727   1.383  0.2078  0.1046 -0.1485
25824W        W41718  10.150  15.749   3.834  0.0893  0.2825 -0.3894
25825W        W41719  10.428   0.931   1.643 -0.1147  0.0702 -0.0477
25826W        W41720  18.440  10.477  13.475  0.0184 -0.0476  0.2532
25827W        W41721   0.195  11.742   1.251  0.0597 -0.0166 -0.0762
25828W        W41722   1.036  14.616   0.909 -0.0709  0.1422  0.0662
25829W        W41723   0.618   8.939   5.085  0.1530 -0.2093 -0.1464
25830W        W41724  17.611   0.281  10.537  0.0716  0.2410  0.0879
25831W        W41725   4.971  17.691   3.369  0.0916  0.0779 -0.0264
25832W        W41726  17.974  10.911  14.535 -0.3220  0.3742  0.3086
25833W        W41727  11.045   8.622  12.215 -0.0660  0.3469 -0.3034
25834W        W41728  17.924   4.712   2.593  0.2868  0.0190  0.0133
25835W        W41729   4.188  18.676  10.339  0.0750  0.1747 -0.1208
25836W        W41730  11.840   3.611   1.939 -0.0180  0.5413  0.0181
25837W        W41731  10.995  19.128   4.258  0.0940 -0.1958 -0.0821
25838W        W41732   3.120   4.974   1.120  0.2244 -0.0641 -0.1731
25839W        W41733   3.023  10.625   0.435  0.0328 -0.1372  0.2170
25840W        W41734   9.942  13.715   3.680 -0.0930  0.0318 -0.0499
25841W        W41735   8.013  13.614   0.724  0.2269 -0.0105  0.2154
25842W        W41736   2.004   5.262  11.286  0.0005  0.2039 -0.3617
25843W        W41737   2.241   9.292  12.864 -0.1717  0.0478  0.0573
25844W        W41738  10.391  18.595   0.633 -0.0017  0.1202 -0.2121
25845W        W41739  16.890   1.541   3.603 -0.1084  0.2267  0.3284
25846W        W41740  17.956   0.920   2.108  0.0996  0.0194 -0.0189
25847W        W41741  10.789  14.457   2.286  0.1432  0.2444  0.2643
25848W        W41742  18.277   7.458   2.618  0.0369 -0.1117 -0.2165
25849W        W41743   2.589  10.180  13.606  0.0481  0.0946  0.2732
25850W        W41744  18.642  12.048  14.641  0.3808  0.3331  0.1774
25851W        W41745  14.818  15.538   0.017  0.1233  0.2417  0.1594
25852W        W41746   3.806   3.563  13.981  0.2225  0.0359 -0.0557
25853W        W41747   9.250   4.258   1.081  0.2582 -0.0465  0.2698
25854W        W41748  13.724   6.483  14.368  0.3924 -0.0493  0.0408
25855W        W41749  14.271  18.557  12.124 -0.1003 -0.1101 -0.1515
25856W        W41750   4.742  13.184   2.267  0.2079 -0.2634  0.2581
25857W        W41751  18.183   2.195   0.309 -0.2297  0.0981  0.3466
25858W        W41752  10.200  18.766   4.122  0.0688  0.2697  0.0952
25859W        W41753  11.249  17.692   1.663  0.1285  0.4151  0.1986
25860W        W41754   4.276   1.744  15.006 -0.1300 -0.0392  0.0120
25861W        W41755   1.387   0.038  13.297  0.0575  0.0648  0.0553
25862W        W41756   5.447   6.654  13.735  0.2688  0.0685 -0.0580
25863W        W41757  13.280  12.419   1.236  0.2637 -0.0298  0.1766
25864W        W41758  18.747  12.537  13.369 -0.1035 -0.2177 -0.5296
25865W        W41759   4.048  15.840   4.866 -0.2259  0.1972  0.0829
25866W        W41760  18.920   7.330   4.462 -0.2334 -0.1211 -0.2721
25867W        W41761   9.450  15.820   9.544 -0.1135  0.1710 -0.3567
25868W        W41762  17.827   1.867  12.836  0.1693 -0.0284  0.0110
25869W        W41763   6.522  14.813   2.417  0.1352  0.2456  0.2056
25870W        W41764   6.448  17.786  10.332  0.1334  0.0804 -0.0626
25871W        W41765  11.395  10.110  12.256 -0.1313  0.1365 -0.3408
25872W        W41766   1.439  18.058   1.071 -0.1240  0.0717  0.1067
25873W        W41767  12.806  14.274  10.861 -0.3097 -0.1604  0.2515
25874W        W41768   7.504  17.376   5.652  0.0256  0.3289  0.0452
25875W        W41769   4.749  16.569   3.325  0.0724  0.0167 -0.0239
25876W        W41770  19.088  12.050  12.597  0.1523  0.0930  0.0676
25877W        W41771   3.736   0.782   4.550 -0.1819 -0.0373 -0.0581
25878W        W41772  15.744   0.163  11.418 -0.3355 -0.2439 -0.0051
25879W        W41773  12.205  16.621   5.145 -0.0147 -0.1487  0.1868
25880W        W41774   8.130  10.492   1.613 -0.1391 -0.0912  0.1684
25881W        W41775   3.102  11.914  15.121 -0.0361 -0.3122 -0.2606
25882W        W41776  10.691   0.629   1.975  0.4115 -0.0705  0.1893
25883W        W41777   7.618   8.299   4.461 -0.1839 -0.1891 -0.0321
25884W        W41778  11.913   6.126   0.353  0.0346 -0.0991 -0.0593
25885W        W41779   6.704  12.618   1.937  0.3103 -0.0638  0.3884
25886W        W41780   9.640   2.006  14.610 -0.0496  0.0812  0.0775
25887W        W41781  16.064   4.444   3.044 -0.1958 -0.0539  0.0084
25888W        W41782   7.588   4.811  13.776  0.2565 -0.1587  0.0634
25889W        W41783  17.515  18.533  14.857 -0.3453  0.0203 -0.2317
25890W        W41784  16.945  16.283   3.005 -0.2128  0.2356 -0.1079
25891W        W41785   2.691  17.098   3.453 -0.1217 -0.1972  0.1759
25892W        W41786   0.332   2.813  14.831  0.1752  0.0485  0.4604
25893W        W41787  12.811   7.977   9.720  0.1370  0.3586 -0.0444
25894W        W41788  13.170  16.421  11.845  0.0550 -0.1181 -0.0166
25895W        W41789   5.070   0.784  14.114  0.1228 -0.2623  0.1756
25896W        W41790  15.557   6.530   4.111  0.0069  0.0563 -0.1818
25897W        W41791  14.633  10.951  14.475  0.0577 -0.4338 -0.0310
25898W        W41792  15.270   6.318  14.206 -0.1540  0.2823  0.1058
25899W        W41793   7.869   3.002  12.759  0.1456 -0.2522 -0.5147
25900W        W41794   3.326   0.594  11.217  0.0394  0.0502 -0.0384
25901W        W41795   2.570   0.659   9.436  0.0120  0.0339 -0.1930
25902W        W41796   8.446  13.847  12.327  0.2069 -0.3419 -0.1554
25903W        W41797   0.018  10.604  11.592  0.0404 -0.2237 -0.3566
25904W        W41798  17.729   4.004   4.284 -0.2190  0.4650  0.0944
25905W        W41799   9.437   5.611   1.410 -0.3467 -0.1514  0.1817
25906W        W41800  15.752   5.089   0.637 -0.0072  0.0816  0.1187
25907W        W41801  11.394   2.615  11.818 -0.1701  0.1044 -0.1652
25908W        W41802   9.982   8.804   9.377 -0.0024  0.1129 -0.1008
25909W        W41803  15.866  14.684   3.000  0.0332 -0.1281  0.0823
25910W        W41804  10.045   8.132   4.496  0.1553 -0.1477  0.2564
25911W        W41805  14.124   1.541  12.650 -0.1253 -0.2479  0.2248
25912W        W41806   9.530   4.542   3.762  0.1088 -0.1133 -0.1063
25913W        W41807  18.213   4.883   2.180  0.0886 -0.0230 -0.2479
25914W        W41808  16.403   2.160   0.739 -0.0448 -0.1147 -0.2280
25915W        W41809   4.513   0.844   0.877  0.1407  0.2150  0.2887
25916W        W41810   0.372  13.992  12.088 -0.1104  0.2060 -0.1442
25917W        W41811  19.148  16.067   5.911 -0.0039 -0.1030  0.0965
25918W        W41812   2.154  14.975   0.348  0.0039  0.4053 -0.0312
25919W        W41813  13.091  12.800   1.536 -0.0782  0.5818 -0.1305
25920W        W41814  11.736  13.016  14.258  0.0791  0.2395  0.1492
25921W        W41815   1.780  17.579  13.982  0.0351 -0.0751  0.1078
25922W        W41816  10.836  14.754   1.402  0.0630 -0.1574  0.0590
25923W        W41817   1.987  12.587  10.221  0.0509  0.3243  0.1488
25924W        W41818  15.518  11.099   1.429  0.1600 -0.3181 -0.0612
25925W        W41819  11.288  12.516   3.879 -0.0648 -0.3339 -0.0276
25926W        W41820   1.376  11.227   2.756  0.3740 -0.0907 -0.2197
25927W        W41821   2.159   8.310  13.748 -0.1228  0.2190 -0.2323
25928W        W41822  11.372  16.308  13.750  0.2483 -0.0928  0.0824
25929W        W41823  16.173   0.618  15.126  0.1080 -0.0576  0.1025
25930W        W41824  11.716   7.603  12.251  0.2722  0.0899  0.0278
25931W        W41825  12.223  17.404   2.230 -0.0518 -0.0516 -0.1711
25932W        W41826   2.998   7.908  10.669  0.0754 -0.1536  0.0307
25933W        W41827  10.921  18.628  13.065  0.1630  0.0043  0.1215
25934W        W41828   5.224   6.505  12.902 -0.0440  0.3095 -0.0314
25935W        W41829   5.530   5.558   5.306  0.0364 -0.2548  0.1169
25936W        W41830  14.747   1.464   0.614 -0.1656 -0.0481 -0.2269
25937W        W41831   2.792  14.579   0.995 -0.0451 -0.0064 -0.2278
25938W        W41832   9.288  11.575   4.636  0.2068 -0.1854  0.1091
25939W        W41833   7.418  12.392  13.745  0.2218 -0.2675  0.0422
25940W        W41834   1.159   0.174  13.791  0.3056  0.1893 -0.0744
25941W        W41835  13.471  18.669  12.224  0.2511  0.1244  0.2430
25942W        W41836   1.456  13.886   4.335 -0.2541 -0.2301 -0.1150
25943W        W41837   9.974   9.105  12.016  0.0478 -0.0891  0.0310
25944W        W41838   1.161   2.354   2.984  0.0893  0.0513 -0.0447
25945W        W41839   4.574   1.237  13.678 -0.1513 -0.2572 -0.0191
25946W        W41840  14.163  16.535   9.602  0.0093  0.0088 -0.0358
25947W        W41841   5.338  18.001  12.398 -0.1481 -0.0947 -0.0556
25948W        W41842  17.245  18.198   2.077  0.3020  0.0501 -0.0662
25949W        W41843   3.683   0.776   9.356  0.1278  0.2978 -0.1568
25950W        W41844   9.795  15.833   2.724  0.1576  0.0035  0.0144
25951W        W41845   5.887   1.368   2.340 -0.0129 -0.0487  0.2046
25952W        W41846   9.023  10.082  11.251  0.1630  0.3932 -0.0026
25953W        W41847   1.805   9.562   4.728  0.2646 -0.1610  0.0744
25954W        W41848  11.341  13.723  14.900  0.0509  0.0246 -0.1715
25955W        W41849   5.184   7.961  10.318 -0.0709 -0.1347 -0.1976
25956W        W41850  14.472  11.281  14.992  0.1478 -0.0279 -0.1942
25957W        W41851   0.483   8.350  10.760 -0.2795 -0.0964  0.0074
25958W        W41852   8.231   5.918   1.142 -0.2556  0.1172  0.1117
25959W        W41853  14.874   7.718   0.434 -0.1130 -0.1759  0.1928
25960W        W41854   1.170  18.867  12.277  0.0490 -0.2114  0.1024
25961W        W41855   3.203   5.346   2.084  0.0274 -0.0595  0.0269
25962W        W41856  18.608   1.772  14.285  0.0477 -0.1671  0.2906
25963W        W41857  10.880   8.773  10.833  0.2128 -0.2430  0.3461
25964W        W41858   5.887   0.477  13.171  0.3281 -0.0731  0.2825
25965W        W41859   9.454  12.249   1.792  0.0225  0.2581 -0.0371
25966W        W41860   2.337  15.928  13.222  0.0666 -0.1103 -0.1878
25967W        W41861  12.532  10.684   3.465 -0.1895  0.0713 -0.1240
25968W        W41862  11.533  17.917   5.151  0.0960 -0.0156  0.5818
25969W        W41863  12.174   1.513  10.756  0.1467 -0.1964  0.0316
25970W        W41864   5.398   9.320   4.892 -0.3749  0.0055 -0.0719
25971W        W41865   8.956   7.712  14.726  0.0991 -0.0583 -0.1051
25972W        W41866   7.084   6.450  13.744 -0.3536  0.0204  0.0568
25973W        W41867  16.296   7.959  12.896 -0.1188  0.2861  0.1445
25974W        W41868   5.000   0.785   0.686 -0.0821 -0.1353 -0.4003
25975W        W41869   6.245  13.242   1.696 -0.0802  0.1222 -0.1202
25976W        W41870  19.183  11.832  11.134  0.3492  0.2344  0.1401
25977W        W41871  13.170   5.510  12.093 -0.1206  0.1089 -0.0189
25978W        W41872   1.061  12.164   3.784  0.0460  0.2297  0.1537
25979W        W41873  17.658  15.398   5.152 -0.0375 -0.0111  0.3459
25980W        W41874   3.397   0.692  13.480  0.1326  0.0553 -0.1553
25981W        W41875  16.479  18.981  14.001  0.1091 -0.0666 -0.1241
25982W        W41876   9.102  11.896   1.660 -0.1546 -0.1455  0.1885
25983W        W41877   2.315  11.314  10.963  0.2248 -0.2361 -0.0915
25984W        W41878  15.361  12.711  13.179 -0.2064  0.0925 -0.0812
25985W        W41879  18.996  16.403  14.151 -0.0154 -0.0342  0.1548
25986W        W41880  16.762   5.131  12.756 -0.0698  0.1806 -0.0303
25987W        W41881   3.448  17.151  11.680  0.2402 -0.2946 -0.0835
25988W        W41882  10.451  14.820   3.612 -0.0909  0.2159  0.0701
25989W        W41883  10.686   0.059   4.638  0.1726 -0.2576 -0.0499
25990W        W41884  14.498   6.194  13.537 -0.2111  0.0332 -0.0396
25991W        W41885  11.987   2.032   4.967 -0.0606 -0.0812  0.0268
25992W        W41886  11.986  12.720  13.905  0.0485 -0.1916  0.2058
25993W        W41887   4.619   0.533   4.095  0.1903 -0.0451  0.2882
25994W        W41888  15.949  15.861  13.322  0.0740  0.0968  0.3705
25995W        W41889  15.426  16.964   1.650  0.2150 -0.1816 -0.0889
25996W        W41890   2.915  11.937  10.959  0.0020 -0.4847  0.2998
25997W        W41891  17.419   9.855   5.448 -0.1332  0.3116 -0.0226
25998W        W41892   4.721   5.165  14.070  0.2218  0.2678 -0.0769
25999W        W41893  16.193   9.674   3.641 -0.0907 -0.1497 -0.2594
26000W        W41894  11.854  10.268   0.859 -0.0819  0.2741 -0.0219
26001W        W41895   1.219   4.119   4.964  0.1361  0.2620  0.0312
26002W        W41896  14.911   4.742   2.784  0.1431 -0.1070 -0.2427
26003W        W41897   5.235  15.065   0.127 -0.2022 -0.0240  0.0199
26004W        W41898   9.971   2.891  11.504  0.1270 -0.1316  0.2015
26005W        W41899   2.652  13.871  11.709  0.1480 -0.2745 -0.2768
26006W        W41900   4.858   5.734  14.729 -0.0464  0.2601  0.0442
26007W        W41901  17.315  15.882  13.736  0.1609  0.3497 -0.1328
26008W        W41902  16.753   5.250   3.960 -0.0920 -0.1399 -0.2610
26009W        W41903   0.741   9.412   3.491 -0.1249 -0.2516  0.0579
26010W        W41904   3.308   8.589   0.235 -0.1230 -0.1722 -0.3307
26011W        W41905   2.848  10.451   1.811 -0.0155 -0.2029  0.1628
26012W        W41906  12.154  11.286   2.948  0.4245  0.0055  0.0727
26013W        W41907   9.187   3.049   0.508 -0.1379 -0.2086  0.2628
26014W        W41908   4.808   3.185   2.872 -0.1388  0.2333  0.0299
26015W        W41909  12.215  18.399   4.936  0.1814 -0.3939  0.0467
26016W        W41910  18.316   5.562   3.779 -0.0325  0.0051 -0.1922
26017W        W41911   3.080  14.517   4.501  0.0569  0.0278 -0.1285
26018W        W41912  11.845   5.065   5.428 -0.1713 -0.0846 -0.1310
26019W        W41913   2.088   3.927   0.566 -0.1585 -0.0236 -0.0281
26020W        W41914   3.038   7.834  12.330  0.3628  0.0119 -0.0110
26021W        W41915  15.728  17.327  12.465 -0.1196  0.0376  0.2178
26022W        W41916  18.527  17.845  12.216 -0.2615 -0.1445 -0.1714
26023W        W41917  16.339  17.410   2.436  0.0681  0.0302  0.3002
26024W        W41918   2.926   5.652  12.038 -0.4534  0.0087  0.0671
26025W        W41919  18.624  15.048  10.367  0.0304 -0.1075  0.3939
26026W        W41920   3.564  14.225   1.533 -0.1357 -0.0823  0.1289
26027W        W41921   5.144   5.609  11.727  0.1197 -0.1605 -0.3362
26028W        W41922   0.830  16.019   3.837 -0.0531 -0.0034  0.0071
26029W        W41923  17.852  11.372  14.422 -0.0906  0.1759 -0.3299
26030W        W41924   4.378   5.228   3.178  0.1424 -0.1309 -0.5814
26031W        W41925  18.807  17.256  13.595  0.1136 -0.2142  0.1264
26032W        W41926  18.040   0.602  14.122 -0.1886 -0.0737 -0.0780
26033W        W41927   4.247   2.162  12.463  0.1492 -0.1790 -0.1801
26034W        W41928  19.062   4.139  13.395 -0.4570 -0.3106  0.2491
26035W        W41929   1.167  12.007  14.751  0.1655 -0.1513 -0.0281
26036W        W41930   0.259   7.696  13.833 -0.1940 -0.2296 -0.3168
26037W        W41931   4.615  16.860   5.709  0.4357  0.2443 -0.0563
26038W        W41932  12.577   2.081   0.516 -0.1801 -0.4362 -0.1815
26039W        W41933   7.800   4.819   1.659  0.2621  0.0480  0.2706
26040W        W41934   7.707  10.894   4.943 -0.2432  0.2987 -0.0752
26041W        W41935  18.718   6.718   4.605 -0.1530  0.2146  0.1486
26042W        W41936  14.691  11.289  12.407 -0.0762 -0.0397  0.2540
26043W        W41937  11.538   9.874  11.502 -0.0238  0.1330 -0.3365
26044W        W41938   2.068  16.423  13.401  0.0732 -0.0915  0.2953
26045W        W41939   2.523   6.731  13.686 -0.1420 -0.3462 -0.0295
26046W        W41940   3.037   3.032  14.195 -0.0022  0.1840  0.2150
26047W        W41941  18.243   4.069  11.990 -0.4526 -0.1303 -0.0771
26048W        W41942   2.619  14.637   4.501  0.3541 -0.4766  0.1642
26049W        W41943   3.730  18.068  14.108  0.2706 -0.0330  0.1964
26050W        W41944   7.280   8.449   4.987  0.1181 -0.1845 -0.1278
26051W        W41945   9.087  17.372  14.695 -0.0165 -0.1090 -0.2319
26052W        W41946   1.606   8.728   1.445  0.1843 -0.0012  0.1449
26053W        W41947   4.771   5.022   0.879  0.3331  0.0662  0.3095
26054W        W41948   5.213   7.181  10.834  0.0172  0.0404  0.1375
26055W        W41949   2.199  12.993  13.881  0.0106  0.3086 -0.1404
26056W        W41950   7.456  10.643   1.461 -0.1290 -0.2433 -0.0434
26057W        W41951  18.923   0.196  12.094 -0.0782  0.0403  0.0368
26058W        W41952   0.570   3.051   1.657 -0.1727 -0.0540  0.4928
26059W        W41953   3.920   2.026  10.372  0.3825  0.0693  0.0877
26060W        W41954   4.244  10.380   3.197 -0.4394 -0.3275  0.1901
26061W        W41955  13.748  16.258  12.980 -0.0054 -0.3943 -0.2153
26062W        W41956   0.351  13.821  14.983 -0.2564  0.0359 -0.1911
26063W        W41957  10.684  10.813  12.090  0.2556 -0.1212 -0.0360
26064W        W41958  17.227  12.741   3.329 -0.0129 -0.1087  0.1984
26065W        W41959   3.484   4.257   4.864 -0.0204 -0.2235  0.0018
26066W        W41960   4.326  13.660  12.980  0.2595  0.1846  0.2593
26067W        W41961   6.911  16.993   1.919  0.0962  0.1000 -0.0133
26068W        W41962  10.271  13.591   1.777  0.0035  0.3891  0.3151
26069W        W41963  12.580  11.398   5.667 -0.0301 -0.0683 -0.0631
26070W        W41964   1.067  17.115  13.346  0.0341 -0.1633 -0.1341
26071W        W41965   4.373  16.170  12.506 -0.1327  0.1278 -0.1971
26072W        W41966  14.097  19.057  14.325 -0.1908  0.0356 -0.0737
26073W        W41967   1.684  13.089   1.025  0.5168 -0.0263  0.0111
26074W        W41968   5.384  16.306   5.154  0.2749 -0.0915  0.3036
26075W        W41969   1.325  14.974  11.812 -0.0269 -0.3164  0.0446
26076W        W41970   0.068  12.176   4.690  0.3053  0.0465  0.2274
26077W        W41971   0.935   2.338   0.155  0.0910  0.4578 -0.4462
26078W        W41972   9.413  10.458  12.327 -0.1173  0.0303  0.0592
26079W        W41973   9.942   2.607   5.456  0.1582  0.0739 -0.3352
26080W        W41974  16.200   3.568  11.396  0.0299  0.0045  0.0776
26081W        W41975  18.258   3.329   4.623 -0.2655 -0.0075  0.0711
26082W        W41976  10.733  17.954  13.529  0.0195  0.1252 -0.0606
26083W        W41977  10.395  12.713  14.837 -0.1005  0.0298 -0.0003
26084W        W41978   3.370   7.664   3.453  0.3372 -0.3165  0.0920
26085W        W41979   3.820  11.057   1.409 -0.0324  0.2632 -0.0951
26086W        W41980   6.335  14.590   0.599 -0.2641 -0.1613  0.3174
26087W        W41981   8.632   6.301   2.528  0.1285  0.0618  0.0061
26088W        W41982   9.476  16.481  14.753  0.1582 -0.0736  0.0918
26089W        W41983  14.475   5.220  13.792 -0.0406 -0.2176 -0.3071
26090W        W41984   8.504   4.393  14.750 -0.0426  0.5346  0.2893
26091W        W41985   3.969   5.558  13.576  0.1613  0.0734 -0.3101
26092W        W41986   3.156   5.139  12.845 -0.1072 -0.0083  0.2873
26093W        W41987   4.866   9.300   1.938  0.0140  0.1623 -0.1148
26094W        W41988   7.579  16.469  13.565  0.0537  0.1447  0.0328
26095W        W41989   2.509   5.404  13.447  0.1702 -0.0576  0.1134
26096W        W41990  13.199   0.329   3.848  0.3304 -0.2200 -0.2961
26097W        W41991   0.219  16.319   2.222  0.2724 -0.0711  0.2906
26098W        W41992   9.011   0.297  14.346  0.0150  0.1410 -0.3423
26099W        W41993   0.232  11.010   9.141  0.4605  0.0351 -0.3661
26100W        W41994   9.981  13.190   4.384 -0.1811 -0.1605 -0.1437
26101W        W41995  17.581  10.705   1.967  0.0851  0.1586 -0.2750
26102W        W41996  15.403  18.074   5.045  0.1452  0.0730 -0.1257
26103W        W41997   5.644   0.126   4.189 -0.2262  0.1678 -0.1182
26104W        W41998  14.622  14.030  13.079  0.1049 -0.3891  0.1343
26105W        W41999  11.668  15.122  12.825  0.1394  0.1904  0.0090
26106W        W42000   4.740   8.981  13.932 -0.0483 -0.2547 -0.0157
26107W        W42001   2.590  16.172  11.750  0.0300  0.1371 -0.0988
26108W        W42002   5.672  12.825   5.144 -0.0424  0.2877  0.2839
26109W        W42003  12.857   5.127   0.348 -0.0926  0.0963 -0.2166
26110W        W42004   7.140   8.123   2.271  0.1124 -0.2640  0.1528
26111W        W42005   1.137   9.602   1.221  0.1648  0.0479  0.1477
26112W        W42006  16.574  16.517   4.379  0.0227 -0.0044 -0.2868
26113W        W42007  16.434  16.084  10.355  0.2609 -0.2219 -0.0087
26114W        W42008  14.978   2.419  12.217 -0.0986 -0.0037  0.0982
26115W        W42009   8.699  15.715   4.443 -0.3261 -0.2185  0.1084
26116W        W42010  10.901   0.065  13.722 -0.0201 -0.1518  0.0508
26117W        W42011  17.054  13.937   0.216 -0.3415  0.0915  0.0674
26118W        W42012   2.085   4.662  10.622  0.3636 -0.1688 -0.1707
26119W        W42013  14.210   8.079   4.140  0.0226  0.2113 -0.0952
26120W        W42014   3.592   7.009   1.843  0.1537 -0.0216  0.1117
26121W        W42015   9.720   9.171  12.719  0.2780 -0.0394  0.1809
26122W        W42016  11.386   2.915  13.050 -0.3261  0.1157  0.0294
26123W        W42017  15.415  11.113   1.899 -0.1451  0.0086  0.0482
26124W        W42018   7.421  18.232   3.185  0.4504 -0.0857  0.2903
26125W        W42019  16.518  13.170   0.168 -0.1906  0.1536 -0.0449
26126W        W42020  15.291  18.254   0.430 -0.3225 -0.2617  0.3385
26127W        W42021  11.255   1.585   0.934  0.0383  0.2806 -0.2034
26128W        W42022  14.267  19.081  12.185 -0.2199 -0.2357  0.1994
26129W        W42023   7.583   3.920   4.183 -0.1927  0.0267  0.1386
26130W        W42024  19.173  12.136  13.612 -0.1711 -0.4540  0.2173
26131W        W42025  18.305   0.782   3.866 -0.0940  0.0582 -0.1891
26132W        W42026  11.480  11.948  12.257  0.2061 -0.0674 -0.0804
26133W        W42027   5.539  18.415   3.075  0.1975  0.1351 -0.3420
26134W        W42028   4.211   1.686  11.121  0.4487 -0.1078 -0.4442
26135W        W42029   6.545   5.664   0.357 -0.0688  0.1392 -0.0778
26136W        W42030   4.286   9.145   2.451  0.0911  0.0940  0.0843
26137W        W42031  11.458   7.569   4.384  0.2263 -0.0805  0.0846
26138W        W42032  18.017   9.445  11.852 -0.0204 -0.1781 -0.1958
26139W        W42033   0.470  16.693   4.772 -0.0130 -0.2374  0.1202
26140W        W42034   3.098   6.083  11.146  0.2924  0.1508 -0.2571
26141W        W42035   1.491  18.911  14.577  0.3028  0.1589  0.1843
26142W        W42036  19.052   2.425  12.878 -0.0841 -0.0322 -0.1001
26143W        W42037   5.636  17.784  11.517 -0.1186 -0.1349 -0.0142
26144W        W42038   5.830   7.221   3.012 -0.0120  0.2071  0.0074
26145W        W42039   9.611  18.650  10.360  0.1471 -0.2557  0.5029
26146W        W42040   7.997   4.693   5.739 -0.1067 -0.2393  0.0633
26147W        W42041  16.904   2.923   1.810 -0.0166 -0.0967 -0.0146
26148W        W42042   0.826  14.606   4.584  0.2084 -0.1817  0.3455
26149W        W42043   2.192   7.132   3.876 -0.2048  0.0281  0.0300
26150W        W42044  13.091   5.561  11.259  0.4709  0.1564  0.0398
26151W        W42045   8.435   5.472   5.362 -0.3814  0.0074 -0.2771
26152W        W42046   8.609   9.286   1.966 -0.2155  0.1590 -0.0905
26153W        W42047   9.485  17.798  10.067 -0.1734 -0.0035 -0.1833
26154W        W42048   5.767   5.699   2.305  0.1162  0.1344 -0.0172
26155W        W42049   7.201   4.619  15.110 -0.0133  0.0539 -0.0830
26156W        W42050   1.340   4.695   3.194 -0.2669  0.1054  0.1833
26157W        W42051   3.534  14.401  11.045 -0.0913 -0.1463  0.1849
26158W        W42052  13.891  15.719   3.522  0.4586  0.3067 -0.0083
26159W        W42053   9.484   9.818   5.139  0.1047  0.0753  0.1458
26160W        W42054  14.217   9.447  12.071  0.1094 -0.1421 -0.1545
26161W        W42055  11.565  15.395  10.339 -0.2125 -0.1268  0.2096
26162W        W42056  17.207   3.593  11.571 -0.0223  0.0514  0.1659
26163W        W42057  10.466   7.411  11.722  0.3245  0.1813  0.3941
26164W        W42058   1.221  11.541   0.409 -0.1842  0.0035  0.2800
26165W        W42059  15.197   8.243  13.173 -0.0015  0.0883  0.2356
26166W        W42060  13.967   5.809   3.774  0.0955 -0.2762 -0.0071
26167W        W42061  16.405  18.140   5.170 -0.1623  0.1399 -0.2328
26168W        W42062   2.599  13.136   1.178 -0.1157 -0.1434 -0.2463
26169W        W42063   6.742  15.389  12.082 -0.0797 -0.3768 -0.0676
26170W        W42064   6.657  18.494  13.754  0.0580  0.2026  0.2982
26171W        W42065  12.265   1.216   4.983  0.1137 -0.2118  0.1995
26172W        W42066   5.541   5.177  10.889 -0.2711 -0.0672  0.0899
26173W        W42067  10.016   4.521  14.196  0.1862 -0.2714 -0.1564
26174W        W42068  14.056  16.153  14.232 -0.0812  0.1839 -0.1629
26175W        W42069   9.857  12.692   4.155  0.0918 -0.0949  0.1736
26176W        W42070  15.494  17.709   1.920  0.1356  0.3766  0.0999
26177W        W42071   0.770   0.302   2.605 -0.1642 -0.1327 -0.1396
26178W        W42072  13.406   3.048   2.964 -0.2036  0.1264  0.0203
26179W        W42073   4.190  13.902  12.513 -0.0211  0.1814 -0.5222
26180W        W42074  11.342   3.688   2.037  0.1909 -0.1602 -0.0270
26181W        W42075   9.152   4.882  14.482 -0.1835  0.0700  0.2383
26182W        W42076   6.160   5.328  13.857 -0.0132 -0.0804  0.1008
26183W        W42077  10.473   8.793  13.665  0.1148  0.1403 -0.1682
26184W        W42078   9.111  18.085  10.143  0.0726 -0.1042 -0.4228
26185W        W42079   0.282   3.805   2.226  0.0979 -0.2105  0.0410
26186W        W42080   3.431  11.024  12.541 -0.0817 -0.3718  0.1378
26187W        W42081   3.984  17.988   3.684  0.0678  0.1530  0.0055
26188W        W42082   3.738   6.650   2.469  0.1044  0.1135 -0.2688
26189W        W42083  13.700   8.290  14.465 -0.1276 -0.1073 -0.1122
26190W        W42084  15.586   3.729  13.616 -0.0741  0.1039  0.0921
26191W        W42085   4.732   5.054   0.283 -0.0594  0.1871 -0.0913
26192W        W42086  12.975  15.938   9.353  0.2956 -0.1902  0.0172
26193W        W42087   0.808  10.678   1.031  0.1056 -0.1224 -0.1436
26194W        W42088  14.951   2.416   4.276  0.0889 -0.1365 -0.1657
26195W        W42089  17.021   8.680  10.875  0.0796 -0.0277  0.0134
26196W        W42090   4.825  11.443   1.902 -0.0873  0.0418  0.1330
26197W        W42091  12.676   2.452  13.926 -0.0846  0.1032 -0.1024
26198W        W42092  15.602   2.248  13.870 -0.2047 -0.0102 -0.1371
26199W        W42093   9.013  13.569  14.034  0.4942  0.2168  0.3265
26200W        W42094  17.927   9.075  13.795 -0.2192  0.0670 -0.1640
26201W        W42095  18.213  10.058   3.245 -0.0945  0.1588 -0.3054
26202W        W42096  15.433   9.645  10.361 -0.2446  0.1858  0.1249
26203W        W42097   0.486   0.024   4.568  0.4454  0.0272 -0.1015
26204W        W42098   5.414   6.987  13.023 -0.0424  0.0258 -0.0852
26205W        W42099   4.588  16.672   4.660  0.2359 -0.0108  0.0491
26206W        W42100   6.429  14.697  13.788  0.1184  0.4180 -0.0205
26207W        W42101  10.015   1.527  14.475  0.0900 -0.1380 -0.1343
26208W        W42102   8.616   4.996   4.094  0.1197 -0.2127 -0.0848
26209W        W42103   9.235  15.433  13.528 -0.1362 -0.0995  0.1299
26210W        W42104  11.482  14.200   2.751 -0.3412 -0.1643 -0.1830
26211W        W42105   4.699  11.168  14.332  0.1946 -0.2166 -0.2388
26212W        W42106  17.520  17.432   5.256  0.0843  0.0370 -0.1976
26213W        W42107   4.209  15.874   1.046  0.0837  0.3131 -0.1369
26214W        W42108  17.868  17.835   0.260  0.1431  0.1239 -0.0209
26215W        W42109  15.311   9.877   0.532 -0.0905 -0.3832 -0.0203
26216W        W42110  15.816  12.463  12.983  0.1387 -0.0068  0.1480
26217W        W42111   1.854   9.979   2.303 -0.2782  0.1113 -0.2288
26218W        W42112  11.869   5.159  10.295  0.2826  0.0701  0.1224
26219W        W42113  11.770  12.246   1.122  0.0066 -0.0127  0.0509
26220W        W42114  12.921   0.043  13.714 -0.2365 -0.0847  0.0743
26221W        W42115   7.857   0.529   2.909 -0.0403  0.2705  0.2386
26222W        W42116  15.843  14.947   4.151  0.3666 -0.1660 -0.0178
26223W        W42117  18.107   6.085   3.235  0.1849  0.0610 -0.0035
26224W        W42118   2.242  11.820  13.914 -0.0261 -0.2141 -0.3930
26225W        W42119  10.443  12.166  10.968 -0.2085  0.1132 -0.1561
26226W        W42120  12.198   1.126   1.679  0.0251 -0.3573  0.1593
26227W        W42121  17.753   1.974   2.488 -0.2179  0.1801 -0.4035
26228W        W42122   2.012   0.533   1.122 -0.4535  0.1745  0.0276
26229W        W42123  10.323   7.786  10.398  0.2000 -0.1690  0.0257
26230W        W42124   6.306  18.340  10.547  0.0395 -0.1577  0.1068
26231W        W42125  10.100   0.631   1.843  0.1628  0.1254  0.1215
26232W        W42126  14.410   6.094  11.849  0.1043 -0.3145  0.2756
26233W        W42127   7.972  13.646  12.322  0.3149 -0.3291  0.0757
26234W        W42128  15.729   8.147   0.904 -0.0166  0.0884  0.1096
26235W        W42129   9.725  10.695  11.136  0.3061  0.0974  0.0905
26236W        W42130   5.819   8.876  14.012 -0.1959  0.0221 -0.1497
26237W        W42131   9.847   4.119  11.520 -0.1933  0.0380 -0.1204
26238W        W42132   1.396   1.985   5.520  0.0475  0.0941  0.0202
26239W        W42133  14.919  19.058  14.928 -0.0588  0.0499 -0.0095
26240W        W42134  10.495   3.470  13.190  0.2188  0.1802 -0.1066
26241W        W42135  16.319   9.135  11.174  0.0698  0.1254 -0.0244
26242W        W42136  12.984   9.806  11.247 -0.0864  0.0739  0.1187
26243W        W42137   4.815  16.238   2.862  0.1802  0.3351 -0.1030
26244W        W42138   2.925  13.102   3.037  0.3035 -0.0145 -0.0749
26245W        W42139   3.135  16.718   5.287  0.1619  0.0784  0.1023
26246W        W42140  12.220   4.104   5.682 -0.2107 -0.4509  0.3124
26247W        W42141  18.030  12.946   4.511  0.0466 -0.0301 -0.1260
26248W        W42142   2.763  14.867  14.538 -0.0204  0.2442 -0.0382
26249W        W42143  14.803   2.671   5.916  0.2122 -0.1543  0.1951
26250W        W42144  12.641   5.004   3.393 -0.0714 -0.4796  0.0076
26251W        W42145  14.622   0.743  12.570  0.1068  0.2553 -0.6068
26252W        W42146   3.436  11.116  14.861  0.2847  0.0937 -0.2392
26253W        W42147   4.977   7.643  12.335  0.0476 -0.0538  0.0395
26254W        W42148   7.749   7.976   1.062 -0.2509 -0.2200  0.0900
26255W        W42149  10.713  16.330   4.249 -0.0601 -0.0577 -0.1111
26256W        W42150  15.999   6.412  13.766 -0.1994 -0.2366  0.0272
26257W        W42151   7.214   0.474  14.783 -0.2563 -0.1912  0.1065
26258W        W42152  18.704   9.813   3.304  0.3471  0.0028 -0.2706
26259W        W42153   1.867   6.919  12.724  0.2837  0.2993  0.2648
26260W        W42154   2.299   2.292   2.435 -0.2532 -0.0550 -0.0352
26261W        W42155   8.198   6.110  13.927 -0.1307 -0.0895  0.3578
26262W        W42156  13.575  17.326  15.018 -0.1660 -0.1768 -0.0615
26263W        W42157  12.370   9.356  13.947 -0.0924 -0.0742 -0.0221
26264W        W42158  16.708   7.859   1.135 -0.0845 -0.0009  0.0463
26265W        W42159  14.176  14.502   2.760 -0.2112  0.2006  0.5033
26266W        W42160  15.846  13.866   2.465  0.0908 -0.1949 -0.2024
26267W        W42161   5.794   8.617   0.900  0.2339 -0.2130  0.0314
26268W        W42162   1.335  11.379  11.370 -0.1065  0.0872 -0.1311
26269W        W42163  18.914   5.834   4.683 -0.1643  0.3312 -0.1939
26270W        W42164  11.746   2.010   1.636 -0.1221 -0.0989  0.1451
26271W        W42165  14.955  11.918   1.482 -0.2676  0.4049 -0.2154
26272W        W42166   3.616   5.454  13.924 -0.0711 -0.2020 -0.1516
26273W        W42167  14.919  10.514   1.327 -0.2283 -0.1620 -0.1884
26274W        W42168   2.940  14.788   1.590  0.0065  0.1739  0.1032
26275W        W42169  11.111   0.746  10.218 -0.0742  0.0084  0.1494
26276W        W42170  14.716   3.833  13.778  0.0511  0.0316  0.2098
26277W        W42171  12.043   1.824   2.142  0.5191 -0.2924 -0.2242
26278W        W42172   9.398  16.943  11.093  0.0903  0.3884 -0.3271
26279W        W42173  19.052  10.253   2.378 -0.0116  0.0217  0.0596
26280W        W42174   2.909  14.986   2.854  0.1265  0.1956  0.1291
26281W        W42175   7.447  14.856   1.962 -0.1406 -0.1470 -0.4235
26282W        W42176   5.381  18.560  12.227  0.2052  0.6133  0.3852
26283W        W42177  17.696  13.654  10.374 -0.0955  0.1431  0.1470
26284W        W42178  10.998   6.216   3.327 -0.0720 -0.1670  0.0709
26285W        W42179  12.008  16.177   4.180  0.3773  0.0056 -0.3190
26286W        W42180  13.235  10.941  13.722  0.0567  0.0388  0.1759
26287W        W42181  13.289   5.683   1.142 -0.1159 -0.0814 -0.1829
26288W        W42182   5.408  15.414  12.050  0.1740 -0.0373 -0.2488
26289W        W42183  16.597   3.791  12.764 -0.0102  0.0145 -0.3895
26290W        W42184   3.928   6.094   4.797 -0.2062  0.3078 -0.1163
26291W        W42185  16.716  13.889  12.179  0.1442 -0.0603 -0.0646
26292W        W42186   0.643   1.219   0.503  0.1436  0.0957 -0.0629
26293W        W42187  18.299   5.297   5.129 -0.2295 -0.1279  0.2108
26294W        W42188  11.083  15.539   1.079  0.1012 -0.1748  0.2947
26295W        W42189  19.109   2.504   1.185  0.3567  0.1768  0.2377
26296W        W42190  11.402  19.167   4.545 -0.0483 -0.1362 -0.1243
26297W        W42191   6.976   4.548   1.286 -0.2527  0.1250  0.2736
26298W        W42192   3.435  12.431  13.901  0.1786  0.4118  0.0119
26299W        W42193  17.425  14.456   0.140 -0.1295  0.3773  0.3739
26300W        W42194  13.827   9.005   1.045  0.1439  0.0555  0.1554
26301W        W42195   5.906   4.293  12.026  0.0042 -0.3983 -0.3942
26302W        W42196  14.872  10.668   1.824  0.0013  0.0472 -0.0544
26303W        W42197   7.413  14.468   0.161 -0.1305 -0.0773  0.2014
26304W        W42198   8.281   3.372   3.943 -0.0870 -0.4312 -0.3472
26305W        W42199   7.008   5.381   3.783  0.2473 -0.0869 -0.0358
26306W        W42200  11.635   4.768   5.015  0.2905 -0.4142 -0.2302
26307W        W42201  10.684  18.639  11.251  0.1999 -0.0447  0.3007
26308W        W42202   3.913   2.022   3.349  0.0270 -0.0220  0.1437
26309W        W42203   1.884   4.439  14.707  0.1626  0.1603 -0.0245
26310W        W42204  15.667  10.257  15.137  0.0607  0.2069 -0.0040
26311W        W42205  13.149   7.344  12.562 -0.1256  0.2235 -0.2162
26312W        W42206  17.986   9.101   3.752 -0.1250 -0.1613 -0.3757
26313W        W42207  19.117  18.711  13.277 -0.2727  0.2503  0.0244
26314W        W42208  15.739  18.315  11.731  0.0076  0.5171  0.1020
26315W        W42209   2.048   2.491  14.560  0.0214 -0.2111 -0.1461
26316W        W42210   8.486   6.916  12.706 -0.2841  0.1280 -0.0400
26317W        W42211  11.834  11.547  12.374  0.2319 -0.1894 -0.0146
26318W        W42212   9.438   7.477   2.360  0.1582  0.2618 -0.0245
26319W        W42213   9.096   7.829   9.941 -0.1561 -0.2882  0.1414
26320W        W42214   8.234   8.025   2.268  0.0837 -0.0377 -0.1346
26321W        W42215  12.591   6.562  10.869  0.2788 -0.1879 -0.0832
26322W        W42216   5.148  13.263   3.404 -0.1038  0.1601 -0.2191
26323W        W42217  16.378  15.463  13.924  0.1654 -0.1032  0.3172
26324W        W42218  14.177  11.998   3.190  0.0716 -0.1845 -0.1876
26325W        W42219   4.727   4.948  14.534 -0.0957  0.1330  0.1242
26326W        W42220  12.638  12.912  12.312 -0.4401  0.3262  0.3926
26327W        W42221  13.606   8.278   2.051 -0.1717  0.0033  0.2667
26328W        W42222   9.098  13.667   2.419 -0.2188  0.4908 -0.0181
26329W        W42223   5.507  12.977  11.833  0.0173 -0.0543 -0.0502
26330W        W42224  17.054   3.425  13.723  0.0733  0.0812  0.2378
26331W        W42225   9.954   0.909   4.033  0.0020  0.1953  0.3963
26332W        W42226   0.041   8.431   4.407 -0.2594 -0.1979 -0.1499
26333W        W42227   2.035  14.776   3.259 -0.2191  0.0008 -0.0444
26334W        W42228   2.984   8.804  12.851  0.0331  0.0176  0.2278
26335W        W42229   7.580  15.892  14.613  0.2289 -0.0011 -0.2717
26336W        W42230  18.799   3.734   1.080 -0.0929  0.0564 -0.2078
26337W        W42231   1.472   3.891   4.168  0.1276 -0.2747  0.0037
26338W        W42232   4.318  17.077   3.998  0.1865  0.1974 -0.3461
26339W        W42233  11.021  13.206   1.992 -0.4329 -0.0725 -0.1885
26340W        W42234  10.597  18.485  12.417  0.2132  0.0450 -0.1497
26341W        W42235  14.495  19.006   0.141 -0.1377  0.0626  0.0165
26342W        W42236  18.658   9.502   2.745 -0.0669 -0.1799  0.0012
26343W        W42237  10.516   0.080  14.670  0.1445  0.1843 -0.1933
26344W        W42238   1.571  14.629   4.743 -0.3259  0.2618 -0.0490
26345W        W42239  17.698   6.764   5.724 -0.5336  0.0492 -0.2321
26346W        W42240   9.484   4.754  15.064 -0.1466  0.1602  0.2262
26347W        W42241  12.837   6.127   0.538 -0.0706 -0.1529 -0.1744
26348W        W42242   5.531   5.495  12.911 -0.2147 -0.0789  0.1427
26349W        W42243  12.766  16.785  14.024  0.1759  0.4526  0.5074
26350W        W42244  14.666   2.851   4.593 -0.0857 -0.2581  0.0444
26351W        W42245   3.130  18.937   0.162  0.0613  0.1095  0.0675
26352W        W42246  18.588   5.221   0.806 -0.0591  0.0827  0.1374
26353W        W42247  18.597   5.504   0.248 -0.2033  0.0128 -0.0697
26354W        W42248  16.116  17.783  14.421  0.1615  0.2325  0.2735
26355W        W42249  12.704  17.460  11.414  0.3021 -0.1555 -0.0733
26356W        W42250   0.038  11.819   4.343  0.1184  0.0380 -0.1835
26357W        W42251   7.987  17.907   1.765  0.0188 -0.2287 -0.0701
26358W        W42252  14.970  17.706   3.174 -0.0649  0.1792  0.2248
26359W        W42253   3.039  17.923   3.181  0.2716 -0.0099 -0.1447
26360W        W42254  10.165  14.902   4.630  0.2307  0.2798 -0.2263
26361W        W42255  17.868  13.402   4.305 -0.0583  0.5578  0.1944
26362W        W42256   9.428  10.006   1.385  0.3633  0.0657 -0.3936
26363W        W42257   5.377  16.941  11.419 -0.1516  0.3122 -0.2208
26364W        W42258   7.571  16.206  11.021 -0.0095 -0.4413  0.0053
26365W        W42259  17.667  18.860  13.944 -0.0673 -0.0520  0.0334
26366W        W42260   6.887   6.430  10.708  0.1228  0.0429  0.2641
26367W        W42261   3.354  17.086   5.010  0.2739 -0.3280  0.4521
26368W        W42262   0.861   0.826   4.039 -0.0295 -0.1027  0.1570
26369W        W42263  12.496   8.159  12.636  0.3606  0.1358 -0.3139
26370W        W42264  13.210  16.185  12.341 -0.3127  0.2005  0.0966
26371W        W42265  16.600   4.093   0.155 -0.2769 -0.0916  0.2200
26372W        W42266  11.741   7.857  14.747  0.1602  0.0653  0.4534
26373W        W42267  10.923   1.499  11.280  0.1816 -0.1076 -0.0836
26374W        W42268  18.039  17.503  13.894  0.0585  0.0503  0.1237
26375W        W42269  14.620  11.128  10.539 -0.0892  0.0421  0.0808
26376W        W42270  16.749   7.679   0.014 -0.2873 -0.0237 -0.1702
26377W        W42271   2.965   2.320  11.218 -0.1691 -0.1607 -0.1853
26378W        W42272  14.899   6.682   3.944 -0.0591  0.2618  0.2881
26379W        W42273   5.829   2.698   0.854  0.0341 -0.1578 -0.0857
26380W        W42274   5.529   2.745  11.009 -0.2722 -0.1895  0.1635
26381W        W42275   8.562   4.945   4.597 -0.1681  0.0729  0.1530
26382W        W42276  16.726  19.061   5.260 -0.1626 -0.1408 -0.1816
26383W        W42277  15.323   4.816   0.608 -0.0806  0.1060  0.2164
26384W        W42278   4.554  13.681   4.286 -0.0789  0.1969 -0.1716
26385W        W42279   0.751   5.651  12.395 -0.3865  0.1473 -0.1063
26386W        W42280   0.965  14.182   4.060  0.0198  0.0633  0.2268
26387W        W42281   4.059  17.602   3.417  0.1794  0.1141  0.1026
26388W        W42282   1.916  12.893  11.650 -0.0223  0.0783  0.0572
26389W        W42283   1.125   4.732   1.127  0.1338  0.5736  0.2418
26390W        W42284  18.320   2.945   0.878 -0.0841 -0.0829  0.1374
26391W        W42285   6.181  16.877   0.722  0.2578  0.2858 -0.3400
26392W        W42286   8.812  15.968  13.211  0.2161  0.0981 -0.2037
26393W        W42287   0.063   2.913   2.437 -0.2166 -0.1284 -0.2430
26394W        W42288   2.643   5.032   1.486  0.2853  0.2174 -0.0031
26395W        W42289  17.874   0.426   5.039  0.3813  0.0983  0.0817
26396W        W42290  10.258  14.234  12.177  0.0043 -0.3835  0.0152
26397W        W42291  17.640  15.462   1.595 -0.2890 -0.0598 -0.1984
26398W        W42292   1.759   6.186   4.086  0.2102  0.1343 -0.0574
26399W        W42293  18.846  13.501  11.612  0.0786 -0.1580  0.3488
26400W        W42294  11.895  17.232   0.709  0.2007  0.2895 -0.1034
26401W        W42295  10.670   7.606  12.907 -0.0271 -0.0960  0.1586
26402W        W42296   3.162  17.013   0.007 -0.2172 -0.1848 -0.0102
26403W        W42297  15.223   6.853   4.453  0.4029  0.0178  0.2318
26404W        W42298   6.611   1.292  12.872  0.0237 -0.0659  0.0368
26405W        W42299   4.742   3.896   0.904 -0.0336 -0.1140  0.3216
26406W        W42300  19.096  13.020   3.328  0.0791  0.0307  0.0409
26407W        W42301  14.442   7.949   3.169 -0.1677  0.0522  0.0089
26408W        W42302   2.628   2.626  14.601 -0.0307  0.0544  0.2377
26409W        W42303  11.881   9.745  14.625  0.0344 -0.3158  0.1356
26410W        W42304   3.037   4.923   3.828 -0.0775 -0.0263  0.0658
26411W        W42305   7.981  18.541  12.884  0.0262  0.1336 -0.2102
26412W        W42306   5.168  17.509   3.783  0.1587  0.0264  0.3284
26413W        W42307   9.174  14.408   0.690 -0.2818 -0.2831  0.2346
26414W        W42308  18.062  16.951   0.205 -0.0090  0.0929 -0.1216
26415W        W42309  12.597  17.506   0.467 -0.1587  0.0474  0.4429
26416W        W42310  16.786  12.925   4.914 -0.1449 -0.2775  0.1492
26417W        W42311   5.694  13.396   5.022  0.1128  0.2791 -0.2303
26418W        W42312   8.000  16.408  10.284 -0.1011 -0.4483  0.0227
26419W        W42313  18.163  13.971   2.277 -0.3393 -0.0604  0.1996
26420W        W42314  15.255   2.994  12.871 -0.0789  0.0923 -0.0620
26421W        W42315   3.478  11.869   1.664  0.0213  0.3419 -0.0919
26422W        W42316   9.191  18.898  11.387  0.1258  0.0106 -0.0334
26423W        W42317   3.791   1.521  10.416 -0.2233  0.1221 -0.0939
26424W        W42318  14.684  14.419  13.474  0.0286  0.0706 -0.2674
26425W        W42319  10.111  11.722   4.996 -0.3444  0.2715 -0.2158
26426W        W42320   8.270   4.761  14.971  0.0405  0.4478  0.2941
26427W        W42321  16.818   9.280  14.220 -0.0211 -0.0358  0.0289
26428W        W42322   1.210   0.003   5.078 -0.4505 -0.0540  0.2371
26429W        W42323   9.947   2.073   1.373  0.0875 -0.2156 -0.2095
26430W        W42324  14.401   5.232   5.615  0.2565  0.0580  0.1831
26431W        W42325  17.103   3.406   5.207  0.2688 -0.0258 -0.4450
26432W        W42326   4.997  10.962   3.611  0.1508  0.0396 -0.0929
26433W        W42327   8.606  11.040  10.806  0.0570  0.1262 -0.5521
26434W        W42328   1.321  18.654   4.451 -0.1372 -0.1924  0.1321
26435W        W42329   7.069  13.486   2.639 -0.0680  0.1105 -0.1072
26436W        W42330   4.673  18.576   5.575 -0.0268 -0.0191  0.0470
26437W        W42331   8.895  17.958   4.365  0.1547 -0.1696 -0.3121
26438W        W42332   2.536   3.812   0.792 -0.1151 -0.2945 -0.0020
26439W        W42333  12.976  14.378  14.761 -0.1026  0.0835 -0.5085
26440W        W42334   3.341   3.906   9.898  0.0234  0.0369  0.1311
26441W        W42335  12.832  11.126   0.043  0.0292 -0.5489  0.3105
26442W        W42336   4.576  18.835   4.250 -0.0408  0.2093 -0.0873
26443W        W42337  15.693  16.771   1.180  0.0324 -0.2815  0.1386
26444W        W42338   4.740  17.150   2.165  0.2595  0.3608 -0.1039
26445W        W42339  14.113   2.724   0.989  0.1592 -0.4315  0.1246
26446W        W42340  17.551   2.686  11.800  0.3765  0.3167 -0.1871
26447W        W42341   3.936   4.048   3.193 -0.2397  0.0802  0.0234
26448W        W42342  14.744   5.657   4.242  0.1781  0.1330  0.1507
26449W        W42343   5.293  16.023  11.246 -0.4860 -0.2738 -0.2699
26450W        W42344   6.445  17.510  12.047 -0.1734 -0.0043  0.3145
26451W        W42345   7.192  16.872  13.310 -0.0731  0.0654 -0.0839
26452W        W42346   3.014   2.094   4.536 -0.0045 -0.2891  0.2578
26453W        W42347  11.781  10.636   0.583  0.2266 -0.3118 -0.3682
26454W        W42348  11.139  15.871  14.511 -0.0584  0.0473 -0.3790
26455W        W42349  12.693   8.259  14.226 -0.0102  0.1873 -0.0637
26456W        W42350  17.727   2.012   5.198  0.1194  0.1571  0.1010
26457W        W42351  14.621   0.046  14.436 -0.0367 -0.0465  0.2713
26458W        W42352   6.376  11.559   4.009  0.2697 -0.0662 -0.0524
26459W        W42353   2.133  11.766   2.923 -0.0771  0.1980  0.0433
26460W        W42354  17.795  16.926  13.955 -0.2147 -0.0133  0.2940
26461W        W42355   5.812  18.352   2.658  0.0313  0.3191 -0.3430
26462W        W42356  13.893   4.958  13.055 -0.0540  0.0405 -0.2465
26463W        W42357   4.234  17.133   3.497  0.1239 -0.2375 -0.0225
26464W        W42358  12.713   0.370   3.560 -0.2583  0.1132 -0.1354
26465W        W42359  16.764   8.252  11.046 -0.1517 -0.1116  0.0917
26466W        W42360  11.014   4.817   3.990  0.0982 -0.3033  0.1560
26467W        W42361   9.898   1.910  11.284  0.0517  0.2339 -0.0644
26468W        W42362  18.441   8.293  14.361 -0.5745  0.0492 -0.0469
26469W        W42363  14.886  15.665   0.749 -0.2010 -0.0655 -0.2684
26470W        W42364  10.947   9.493  12.865  0.1779 -0.2017  0.0100
26471W        W42365   8.299  11.912  14.221 -0.0457  0.0656 -0.0181
26472W        W42366  13.093  16.092   4.144  0.1455  0.0384  0.2426
26473W        W42367   1.144   3.459  14.522  0.3242  0.2082  0.2413
26474W        W42368   2.086   8.652   4.849 -0.2143  0.0083 -0.1177
26475W        W42369   7.754   4.516   2.676 -0.0395  0.3968  0.4869
26476W        W42370   9.078   6.085  14.151 -0.2284 -0.0519 -0.0825
26477W        W42371   8.711   6.734  14.497  0.0109 -0.0465  0.0975
26478W        W42372  17.591   7.980  12.621 -0.2190 -0.1675  0.0350
26479W        W42373  15.731  11.029   3.031  0.1138 -0.0435 -0.0261
26480W        W42374   5.952  19.180  13.177  0.1362 -0.3457 -0.3469
26481W        W42375   7.945  10.288   4.717 -0.1272  0.0803 -0.0807
26482W        W42376  16.471   9.306   3.280  0.1464  0.0416 -0.0393
26483W        W42377  10.631  13.665   3.858 -0.3783 -0.1120  0.1751
26484W        W42378   5.267   6.225  14.640  0.2023 -0.3042  0.0664
26485W        W42379   9.434   1.199  12.222 -0.1478 -0.1035  0.1193
26486W        W42380  15.054   7.101  12.012 -0.3501  0.2795 -0.3150
26487W        W42381   0.880  14.183  13.867 -0.2668 -0.2168 -0.2716
26488W        W42382   7.098   1.052  11.998  0.1765 -0.1092  0.2324
26489W        W42383   1.385   6.590   4.627  0.1081  0.0208 -0.0964
26490W        W42384  14.065  15.818   1.267  0.1330 -0.1369  0.0212
26491W        W42385   1.076   9.484  14.773  0.3310 -0.0963  0.0290
26492W        W42386  11.424  15.618   5.565  0.1670 -0.1138 -0.1797
26493W        W42387  16.392   8.038   4.849  0.0605  0.1200  0.3227
26494W        W42388  12.330   6.110  10.866  0.1037  0.0261 -0.2419
26495W        W42389   7.173   3.315   4.691 -0.2338 -0.3791 -0.3092
26496W        W42390   1.573  16.321  13.178 -0.0197 -0.0284  0.1039
26497W        W42391  17.382   9.029  14.022 -0.0896 -0.0397  0.0452
26498W        W42392  11.103  11.593   4.671  0.0300 -0.1812  0.0171
26499W        W42393   6.400   5.178  12.057  0.3288 -0.2576  0.0283
26500W        W42394   3.293  16.386   4.890 -0.3405  0.0233  0.0107
26501W        W42395   8.338   7.413  12.052  0.1101  0.2763  0.0050
26502W        W42396  11.481   7.759  10.498  0.0215  0.0221  0.0089
26503W        W42397   4.832   8.785  12.790  0.2071  0.1391  0.0241
26504W        W42398  13.960   6.750  14.732  0.0806  0.0288 -0.0456
26505W        W42399  16.514   9.970   0.505  0.0230  0.1478  0.0247
26506W        W42400   8.714   0.867  14.312 -0.1016  0.1965 -0.0865
26507W        W42401  14.445  15.900   0.505 -0.4256  0.1899  0.2687
26508W        W42402   8.119  14.237   1.687  0.1000 -0.2673  0.2139
26509W        W42403  15.712   1.586  11.405  0.3664 -0.2039  0.1072
26510W        W42404   5.640  13.333  12.406  0.0197  0.3027  0.2614
26511W        W42405  12.730   5.661   3.703 -0.1330  0.2992 -0.0390
26512W        W42406   3.973  14.240  11.173  0.0659 -0.1150 -0.6719
26513W        W42407  18.355   0.928   5.082 -0.0188  0.5013 -0.0832
26514W        W42408  16.597   1.903   4.307  0.2079  0.3148 -0.0477
26515W        W42409   7.062   7.115   4.655  0.0887  0.0044  0.2024
26516W        W42410  18.968   8.259   0.558 -0.1378 -0.2803 -0.1302
26517W        W42411   9.735  12.146  10.753  0.2705  0.1448 -0.2702
26518W        W42412  15.443  11.812  15.029 -0.1669 -0.0745 -0.0371
26519W        W42413  13.125   2.974  14.696  0.0051 -0.0669 -0.0098
26520W        W42414   3.910  13.165   2.155 -0.0937  0.1107 -0.3182
26521W        W42415  15.131   9.066  14.084  0.2188  0.1722 -0.2409
26522W        W42416   2.171  16.386   2.610  0.3178 -0.0300  0.2775
26523W        W42417   9.948   4.154  10.961 -0.1137  0.1828  0.0720
26524W        W42418   5.258   2.938  13.859  0.3715  0.4938 -0.0488
26525W        W42419   8.687  18.202  13.126  0.1197  0.1038  0.0798
26526W        W42420  14.635   7.030  11.791  0.0899  0.0833 -0.0726
26527W        W42421   4.032   4.750   1.500 -0.2754  0.2526  0.0265
26528W        W42422   3.596  12.549  14.331 -0.0595 -0.0706 -0.2479
26529W        W42423  13.059   7.703   1.647  0.1990  0.2802 -0.2156
26530W        W42424   2.801  13.170  13.556  0.0572 -0.5121  0.2085
26531W        W42425   5.694  17.067  14.530  0.3746  0.1190 -0.1573
26532W        W42426   9.303  14.068  14.123 -0.2713 -0.2125 -0.0681
26533W        W42427   5.264   8.712   0.996 -0.1627  0.3003 -0.0066
26534W        W42428  18.465  18.799   3.750  0.1995  0.1213  0.0816
26535W        W42429  16.919  13.399   5.026 -0.2154  0.2725 -0.0191
26536W        W42430  19.086   2.782  13.619  0.0225  0.3107  0.0620
26537W        W42431  10.882   6.571  13.937 -0.2383 -0.2321 -0.1800
26538W        W42432  16.484   3.656  10.486  0.0267 -0.1361 -0.1780
26539W        W42433  10.289  17.994  13.264 -0.1616 -0.1931  0.1477
26540W        W42434   9.202   8.890  12.111  0.2645 -0.0171  0.1755
26541W        W42435  15.118   1.136  14.051  0.2525 -0.0449 -0.0041
26542W        W42436   4.500   9.507  10.406 -0.1956  0.4479 -0.0678
26543W        W42437  10.594   9.805  14.570 -0.1423 -0.0894 -0.0603
26544W        W42438  18.035  18.670  14.907 -0.2217 -0.1222 -0.1032
26545W        W42439  14.994  16.844  13.705  0.2712 -0.1108 -0.1741
26546W        W42440  17.517   7.664   5.734 -0.2165  0.2507 -0.0017
26547W        W42441   7.137  16.643   8.908 -0.0682 -0.0524  0.0009
26548W        W42442   4.936  11.160  13.152 -0.1738  0.0966 -0.0957
26549W        W42443  17.066   9.175  12.907 -0.0955 -0.0266  0.2829
26550W        W42444   2.065  17.715   0.453 -0.1708 -0.1293  0.1688
26551W        W42445   1.804  14.744  12.880 -0.1760 -0.4161  0.0126
26552W        W42446   0.225   3.725  13.261 -0.0165 -0.0758  0.1951
26553W        W42447   2.886   7.095  13.616  0.3370  0.0972 -0.0384
26554W        W42448  12.826  12.997  14.588 -0.1436 -0.4415  0.1097
26555W        W42449  18.744   9.046  10.572 -0.0481  0.4013  0.0083
26556W        W42450  12.523  15.141   3.195 -0.0035 -0.1352  0.2963
26557W        W42451   6.729  13.170   0.114 -0.2572 -0.1671 -0.0135
26558W        W42452   5.696  10.315   0.667 -0.1794 -0.1087 -0.0881
26559W        W42453   0.153   7.551   4.264  0.2450  0.0420  0.1055
26560W        W42454   7.857  11.850  14.536  0.0673  0.1253  0.1984
26561W        W42455   6.139   3.074   0.758 -0.4845 -0.1383 -0.1241
26562W        W42456   1.232  10.811   3.157 -0.5039  0.1056  0.1377
26563W        W42457   5.997   9.273   3.027 -0.1570 -0.0757  0.1308
26564W        W42458   2.875   1.599  12.388  0.2159  0.0025  0.0471
26565W        W42459   7.602  12.334  11.487  0.3381  0.0740  0.0470
26566W        W42460   3.189   8.871  15.000  0.1313 -0.1106 -0.0017
26567W        W42461  14.362   1.169  12.851 -0.1294  0.0441 -0.0684
26568W        W42462  10.308  11.286  13.709 -0.0970  0.0916  0.1020
26569W        W42463  13.017   9.537  14.652 -0.1646  0.0751  0.0704
26570W        W42464   4.031  11.093  10.937 -0.5554 -0.0611 -0.0354
26571W        W42465  17.381   9.553   0.457 -0.1333  0.1124 -0.1621
26572W        W42466  18.599  14.685   4.832  0.2529  0.2928  0.1231
26573W        W42467  12.490  13.227   1.017 -0.0112  0.4883 -0.0709
26574W        W42468   4.239  18.273   0.853  0.2551  0.1522  0.0396
26575W        W42469  18.347  13.530  11.567 -0.0721  0.4873  0.3430
26576W        W42470  18.237  17.420   6.204  0.2635 -0.1780  0.1641
26577W        W42471  11.926  12.726   4.478 -0.1313 -0.1494 -0.1341
26578W        W42472  16.763  11.718   5.568 -0.2965  0.1182  0.0235
26579W        W42473  11.362   6.572   2.724 -0.4834 -0.0604 -0.2095
26580W        W42474  16.047   1.844   5.012  0.0409 -0.0171 -0.0709
26581W        W42475  11.143  12.780   2.325 -0.0234 -0.0048  0.2231
26582W        W42476   3.747  16.538   1.516  0.1041 -0.0037 -0.0249
26583W        W42477   3.834  10.451  10.160 -0.0541 -0.0735 -0.0882
26584W        W42478   6.424   9.561  11.869 -0.1308 -0.0272 -0.0339
26585W        W42479  16.646  15.144  12.786 -0.1435  0.2273  0.3647
26586W        W42480   3.039  13.977   3.248 -0.2360  0.0901 -0.3551
26587W        W42481  18.599   7.468  13.435  0.0527  0.0288 -0.2726
26588W        W42482  12.181  16.047   4.997 -0.0946  0.1149 -0.1025
26589W        W42483  18.028   8.122  11.221 -0.2302 -0.1456 -0.0199
26590W        W42484   6.746   6.526   3.961 -0.0676  0.0873  0.0289
26591W        W42485  10.712   4.243  11.418 -0.1434 -0.0764  0.2730
26592W        W42486   4.787   1.784  11.321  0.1535  0.1436  0.2481
26593W        W42487   8.630   7.460  12.753  0.1160  0.1019 -0.0081
26594W        W42488  17.390  18.358  13.924  0.1580 -0.0756  0.0084
26595W        W42489   7.135   8.195  10.342 -0.0951  0.1979 -0.0027
26596W        W42490   5.809   7.206  10.282  0.1929  0.0480 -0.0838
26597W        W42491  16.745   4.358  13.500  0.4003  0.1946 -0.0745
26598W        W42492   8.813  16.474  12.378  0.0219 -0.2670  0.3782
26599W        W42493   1.341  15.183  14.830  0.5527 -0.1483  0.0320
26600W        W42494   1.802   0.517  13.163 -0.1076 -0.0037 -0.1747
26601W        W42495  17.905  16.050   0.739  0.2250 -0.1975 -0.2342
26602W        W42496  13.681  18.612  13.586 -0.0800  0.1281 -0.0029
26603W        W42497   0.900  11.391  12.840  0.1213 -0.1258  0.0635
26604W        W42498   2.464   4.087  11.222  0.3065  0.1191  0.0433
26605W        W42499  18.990   1.713   0.405 -0.1448 -0.1645 -0.0671
26606W        W42500   8.113   2.493   0.664 -0.0500 -0.2208 -0.6308
26607W        W42501  12.813   5.746   4.583 -0.2107 -0.0073  0.4025
26608W        W42502  18.379   5.806   2.395  0.2836  0.0843  0.0816
26609W        W42503  15.297   7.085  13.560  0.1226  0.3672 -0.1274
26610W        W42504   3.021  13.524  11.600 -0.0523 -0.2665  0.4152
26611W        W42505   1.006  13.940   0.487 -0.1148 -0.1541 -0.1136
26612W        W42506   3.694   0.410  12.003  0.0506 -0.1474  0.0391
26613W        W42507   3.806  10.427   4.571  0.0142 -0.2804  0.1926
26614W        W42508   5.536   2.606  13.605  0.1147  0.1450  0.0798
26615W        W42509  17.773   6.307   0.435  0.1100  0.3243  0.1133
26616W        W42510  12.312  18.307  15.100 -0.0803  0.1135 -0.2991
26617W        W42511   8.662  12.475   5.904  0.0470 -0.1280  0.0834
26618W        W42512  17.978   1.197  14.301 -0.1008 -0.0915 -0.0788
26619W        W42513   4.965   7.064  14.368  0.3540  0.1807 -0.0551
26620W        W42514   9.941  12.302   3.684 -0.1754  0.0499 -0.0342
26621W        W42515   8.227  11.265  10.169 -0.0206 -0.0420 -0.2280
26622W        W42516   4.105   2.370   2.546 -0.2853 -0.2301  0.0490
26623W        W42517  19.003   9.309   0.217 -0.1233 -0.0284 -0.2915
26624W        W42518  18.642  13.655   4.261  0.2383  0.0340  0.1989
26625W        W42519  13.342   8.090  12.325  0.2628 -0.3202 -0.0919
26626W        W42520  16.002   7.342   5.399 -0.2809  0.1556 -0.0476
26627W        W42521   6.047  13.586  10.047 -0.1365  0.1104  0.2078
26628W        W42522   9.317  11.329  14.921  0.0221  0.0891 -0.0371
26629W        W42523  17.925   8.430  14.633  0.0771  0.0314  0.0148
26630W        W42524  11.171   8.436   0.267 -0.2112 -0.1011  0.0139
26631W        W42525   0.224   1.496  14.251 -0.3580  0.1206  0.2690
26632W        W42526  15.547   4.806  11.352 -0.2922  0.0620  0.1073
26633W        W42527  10.757   2.930   3.863  0.2189  0.1887 -0.0866
26634W        W42528  11.594   4.058  11.457  0.0979 -0.1990  0.1203
26635W        W42529   5.769   4.844   4.654 -0.0197 -0.0886  0.0844
26636W        W42530   5.966  15.448  13.532  0.2518  0.0149  0.3779
26637W        W42531   1.024   9.642  14.277  0.0541 -0.0156  0.0504
26638W        W42532  18.169  17.469   0.077 -0.4800  0.0411 -0.1107
26639W        W42533  17.364  18.043  13.545  0.0639 -0.1972 -0.3305
26640W        W42534  17.413  13.563   0.416 -0.0114  0.0976  0.2659
26641W        W42535  12.579  18.059   5.942 -0.4022  0.2589  0.1533
26642W        W42536  17.682   8.436  11.099  0.0802  0.0129  0.1450
26643W        W42537   6.915   4.343   2.726  0.0588  0.0243  0.2398
26644W        W42538  11.179   2.305   4.071  0.3618 -0.0431 -0.0450
26645W        W42539  15.088   8.783  13.094  0.0149 -0.0275  0.0496
26646W        W42540  14.183  18.790   2.745 -0.1580  0.2620  0.3533
26647W        W42541   8.943   0.652   0.433 -0.0090  0.0958 -0.2321
26648W        W42542  16.423   9.141   1.636 -0.0038 -0.0060 -0.0938
26649W        W42543  14.258   3.880   1.788 -0.2136 -0.2794 -0.0427
26650W        W42544   4.390  16.849   9.669  0.1364  0.0317 -0.1436
26651W        W42545  15.768  15.841  12.384  0.0804  0.0543  0.1960
26652W        W42546   7.525  17.338  11.183 -0.1786  0.1147 -0.2919
26653W        W42547   8.131  16.996   1.363  0.1003 -0.0206 -0.0115
26654W        W42548  14.162  16.435  11.393  0.1979  0.1412  0.2344
26655W        W42549   4.065   9.234   1.860  0.0351  0.1241  0.2530
26656W        W42550  14.683  12.041  11.733  0.0585 -0.1468  0.0552
26657W        W42551  11.138   6.887  11.871  0.0211 -0.0271 -0.2350
26658W        W42552   9.705  15.810  14.734 -0.2036  0.2508  0.1494
26659W        W42553   0.268  12.624   4.450 -0.1029 -0.1273 -0.0262
26660W        W42554  17.638   4.151   5.336 -0.1264 -0.1341  0.0937
26661W        W42555  16.309   0.058   1.622 -0.0996 -0.2034 -0.1164
26662W        W42556  11.495  18.250   0.272  0.0226 -0.4532  0.5320
26663W        W42557   9.952  16.501   3.939 -0.1171 -0.1947 -0.2585
26664W        W42558   2.151   4.980   1.296 -0.0853 -0.0516 -0.3514
26665W        W42559   5.444  15.050  12.383 -0.2317 -0.0722  0.0951
26666W        W42560   8.427   1.128   5.077 -0.2214 -0.1482 -0.2349
26667W        W42561   4.851   3.995   4.163 -0.2889  0.2418 -0.0680
26668W        W42562  16.882  12.037   2.219 -0.0292 -0.1146  0.0672
26669W        W42563   0.839  11.260  14.736  0.1486  0.1013 -0.0433
26670W        W42564  10.496   2.278  12.030  0.2680  0.0966 -0.1262
26671W        W42565  11.693  17.995  11.497 -0.0733  0.1417  0.0643
26672W        W42566   3.917   4.570  13.771 -0.0268 -0.0541  0.2217
26673W        W42567  10.450   0.372   2.407 -0.0940  0.2841 -0.0081
26674W        W42568   7.707   3.592  10.488  0.4378 -0.0667 -0.2666
26675W        W42569  19.184   8.982   2.953 -0.0323  0.2002 -0.1332
26676W        W42570   6.549   0.362  12.533  0.0957 -0.1390 -0.1084
26677W        W42571   5.975   8.181   3.264  0.0016 -0.1566  0.1199
26678W        W42572   9.781   1.825   0.926 -0.3530  0.2126 -0.2000
26679W        W42573  18.692   4.678   3.418  0.1539  0.3045  0.3121
26680W        W42574   3.717   3.629   5.606  0.2037 -0.0765 -0.0677
26681W        W42575  11.259  18.472   1.066 -0.0619  0.3346 -0.0088
26682W        W42576   9.279   4.280   4.647 -0.4222  0.1237 -0.2542
26683W        W42577   5.115  15.851  12.099  0.1959  0.0351  0.2155
26684W        W42578   5.015  13.715  13.127  0.1105 -0.0351 -0.0187
26685W        W42579  13.803  15.632   0.638 -0.2515  0.2008 -0.2012
26686W        W42580   0.847   7.567  13.628  0.0776  0.1749 -0.0355
26687W        W42581  14.720  15.080  12.976  0.1149  0.0158  0.1210
26688W        W42582   6.405  10.042   0.488  0.0151  0.2094  0.1118
26689W        W42583   7.527  14.667   4.210  0.1034 -0.2871 -0.1497
26690W        W42584  14.555   3.639   0.888  0.1460  0.3036  0.0705
26691W        W42585   3.132  11.825   1.165 -0.0972 -0.1215  0.2253
26692W        W42586  10.828   5.690   1.719 -0.1919  0.2987  0.0709
26693W        W42587   1.991  13.129   4.848 -0.0634  0.1071  0.1992
26694W        W42588  13.797  17.419   4.507 -0.0376  0.0290 -0.0983
26695W        W42589  11.150  14.646  10.486  0.0445 -0.1947 -0.1000
26696W        W42590  10.687  15.558   1.429  0.2071 -0.1076  0.0737
26697W        W42591   8.437   1.510  11.679 -0.6158 -0.2792  0.0989
26698W        W42592   3.337   8.449   4.426  0.1516 -0.5328 -0.2433
26699W        W42593  10.082  12.239   2.809  0.1170  0.0395 -0.1712
26700W        W42594  13.322   0.979  14.449  0.0726 -0.1895  0.0513
26701W        W42595  15.991   6.919  13.687 -0.1645 -0.1123  0.1943
26702W        W42596  14.383  18.552   0.882 -0.0538  0.1695  0.0330
26703W        W42597   6.160   7.188   1.929  0.0047 -0.0995 -0.1369
26704W        W42598   1.702   6.130   4.580 -0.0058 -0.1871 -0.1096
26705W        W42599   5.300   2.554   0.161 -0.1590 -0.0108 -0.0683
26706W        W42600  11.104  12.670  13.503  0.2542  0.0260 -0.1817
26707W        W42601  13.649  13.082  12.871 -0.1632  0.3633 -0.0887
26708W        W42602   3.090  16.069   5.207 -0.0817  0.1353 -0.1683
26709W        W42603   0.926   1.599   1.599 -0.1204  0.1935  0.1526
26710W        W42604   1.130   3.647   2.105 -0.1628 -0.1689  0.1308
26711W        W42605   9.859   3.059   2.131  0.0955  0.2825 -0.1506
26712W        W42606   4.986   7.669   2.786 -0.0227  0.2395  0.4093
26713W        W42607   2.165  14.273   0.418  0.3268 -0.0378 -0.2590
26714W        W42608   0.728  17.729   4.098  0.0945 -0.0211  0.0148
26715W        W42609  10.812  14.784   4.578  0.2324 -0.0696 -0.0876
26716W        W42610   0.678  18.299   2.197  0.3427  0.0111 -0.0930
26717W        W42611   5.499   1.003   9.877  0.0372 -0.1744  0.1231
26718W        W42612  18.649   1.485  15.084  0.1526 -0.1358 -0.3289
26719W        W42613   1.978  14.645   2.055 -0.0329 -0.0259 -0.2910
26720W        W42614  16.440  10.205   1.007 -0.2309 -0.0487  0.0170
26721W        W42615  12.828  13.582   0.168 -0.2939  0.0903 -0.1294
26722W        W42616  13.794  11.869   5.064  0.2912 -0.0762  0.2622
26723W        W42617  12.956   5.842  11.694 -0.0207  0.1293 -0.2488
26724W        W42618   0.076  11.110  11.715 -0.1466 -0.1235  0.2037
26725W        W42619   0.298   6.524   0.382  0.3438  0.1256 -0.2632
26726W        W42620   1.292  17.053  12.171 -0.1887  0.2056 -0.2238
26727W        W42621  13.657   5.428  14.417 -0.1050 -0.0649 -0.0983
26728W        W42622  10.318  12.489  13.932 -0.0545 -0.2565  0.3805
26729W        W42623   4.856   0.336   2.543 -0.1392 -0.1346 -0.0689
26730W        W42624  19.174   6.453   5.433  0.0867  0.0555  0.1099
26731W        W42625  14.138  19.048   1.467 -0.0879 -0.0692 -0.2918
26732W        W42626  12.888  13.866   9.921  0.4369  0.2193 -0.2044
26733W        W42627  14.445  16.224   4.876  0.0405  0.0365 -0.1555
26734W        W42628  15.474  16.304   1.033  0.2382  0.1805 -0.1821
26735W        W42629   2.900  18.519  12.426  0.3880  0.3390 -0.1120
26736W        W42630  19.046  12.566  12.075 -0.0557 -0.0586 -0.3450
26737W        W42631  18.830  15.878  12.212  0.3677  0.0933 -0.0711
26738W        W42632   7.362   3.509   0.747  0.1485 -0.2387 -0.0249
26739W        W42633  18.443  15.667   2.888  0.1411  0.0865  0.0776
26740W        W42634   9.415   2.598   0.270  0.2354  0.3736  0.0158
26741W        W42635  10.403   7.841  11.921 -0.0303  0.0630 -0.2988
26742W        W42636   1.633   7.324   3.067  0.1732 -0.0539 -0.1908
26743W        W42637  15.325   4.564  12.607  0.0221 -0.0267 -0.0935
26744W        W42638  15.805   3.332  14.516  0.0055  0.0666  0.0063
26745W        W42639   8.551   1.376  10.522  0.2830 -0.2665  0.1329
26746W        W42640   6.894   6.838  14.067 -0.2933 -0.1092  0.0510
26747W        W42641   4.171  12.038   5.201  0.2302 -0.1684 -0.1573
26748W        W42642  17.780   4.608   5.063  0.0927  0.2363  0.3113
26749W        W42643  15.481   2.665   3.399 -0.1309  0.0603 -0.0214
26750W        W42644  14.737  12.334  11.276 -0.1180  0.0690  0.1002
26751W        W42645   5.232   9.492  11.008  0.2316  0.1502 -0.3022
26752W        W42646   4.785  18.573   2.719 -0.0608  0.0672  0.2581
26753W        W42647   2.987   4.023   0.641  0.1302 -0.3489 -0.2577
26754W        W42648   0.753   0.619  10.840 -0.0813  0.3416 -0.1667
26755W        W42649  10.902  16.044   1.241 -0.0998  0.1935  0.1287
26756W        W42650   9.087  18.590   0.574  0.2815 -0.1197  0.1072
26757W        W42651   6.659   6.902  13.507 -0.1514  0.2756  0.0649
26758W        W42652  16.096   3.239  12.115  0.2672 -0.1021 -0.1797
26759W        W42653   2.536   9.205   0.244  0.1624 -0.1778  0.1294
26760W        W42654   0.802   2.762   4.467  0.3193 -0.1317  0.0057
26761W        W42655  11.676   1.753  10.916 -0.1103  0.0169 -0.1738
26762W        W42656  11.844  13.832  12.545 -0.1585  0.1390 -0.1287
26763W        W42657   9.277   4.643   1.396  0.1417 -0.2383 -0.1828
26764W        W42658  12.784  13.011   4.417  0.1726 -0.3725  0.6210
26765W        W42659  13.638   1.573   4.331 -0.0433 -0.2304  0.0804
26766W        W42660   0.782   6.694   0.836  0.1512  0.1687 -0.1072
26767W        W42661  14.173   8.565  12.905  0.0768 -0.2909 -0.1892
26768W        W42662  10.545  17.051  13.756  0.1796 -0.0488  0.1384
26769W        W42663  15.149   7.459  14.461 -0.3369 -0.0217 -0.0409
26770W        W42664   2.529   0.228   0.941 -0.0358 -0.0659  0.1774
26771W        W42665  15.419   4.734  13.117  0.2019 -0.1891 -0.0017
26772W        W42666   1.923   8.161   2.309  0.0353  0.0245 -0.1121
26773W        W42667  12.015  10.288  13.699  0.1694 -0.0712 -0.2302
26774W        W42668   8.220  10.500   0.717 -0.5593  0.3641  0.1537
26775W        W42669   5.488   4.573   1.713 -0.1533  0.1387 -0.3418
26776W        W42670   0.595  15.970  10.650  0.2046 -0.1840  0.0244
26777W        W42671  18.228   8.642   2.721  0.1448  0.1539  0.2225
26778W        W42672   4.312  12.829   0.029 -0.0114 -0.1552  0.0614
26779W        W42673  18.265  14.418  13.875  0.0678 -0.0608  0.0707
26780W        W42674   9.148   0.068   2.052  0.3036 -0.0753 -0.1534
26781W        W42675   3.630   4.896   0.714  0.1785 -0.3741  0.2005
26782W        W42676  11.835   0.418  12.814  0.0031 -0.1133 -0.1457
26783W        W42677  12.702   2.903  12.619 -0.1298 -0.2390 -0.0205
26784W        W42678   1.492   8.617  13.088 -0.2994 -0.2003 -0.0152
26785W        W42679   8.164   2.625   4.168  0.2375 -0.2915  0.0870
26786W        W42680   2.606   2.449  12.952  0.0405 -0.1139 -0.1039
26787W        W42681   6.179  17.712  12.400 -0.5328  0.3472  0.1460
26788W        W42682   3.114  17.874  12.333 -0.0792 -0.1172 -0.1797
26789W        W42683   7.697   4.851  14.365 -0.0890  0.0424 -0.4151
26790W        W42684  15.872   8.452   3.022  0.0613 -0.4075  0.1644
26791W        W42685  10.205   4.921   1.979 -0.2518  0.0414 -0.0214
26792W        W42686  12.477  12.512  13.584 -0.0132 -0.1212 -0.1916
26793W        W42687  15.871   7.826   1.912  0.0605 -0.0632 -0.0203
26794W        W42688   4.810   7.385   2.426 -0.0793 -0.0465  0.0039
26795W        W42689  18.326   9.673   2.389  0.0498  0.1981  0.0653
26796W        W42690  12.449  16.748  12.123  0.0280  0.0967 -0.1296
26797W        W42691  11.875   7.721  13.784 -0.3001  0.0949  0.0055
26798W        W42692  14.029   7.616  13.169  0.1123 -0.2971 -0.1295
26799W        W42693   9.570  14.994   3.759 -0.0445  0.0573 -0.0996
26800W        W42694   2.920   7.484  11.773  0.1382  0.2390  0.0240
26801W        W42695   9.979   6.374   0.122  0.1803  0.2848 -0.1349
26802W        W42696   6.144  13.436  14.945 -0.0570  0.4079  0.1701
26803W        W42697  12.622   4.278   6.002  0.1017  0.2476 -0.2051
26804W        W42698  11.324   8.551   4.555 -0.2369 -0.0049 -0.0846
26805W        W42699  16.426   2.839   1.497  0.1476  0.1253 -0.0965
26806W        W42700   4.357   3.300  11.044  0.0636 -0.1206  0.0112
26807W        W42701  17.108   6.962  11.873  0.0169  0.1798 -0.2503
26808W        W42702  12.648  16.245  10.830  0.2573  0.1268  0.3032
26809W        W42703  18.149   3.742  12.693  0.1036  0.1115 -0.0778
26810W        W42704   2.504  14.363   0.127  0.0711  0.3613  0.0608
26811W        W42705   2.006   2.046   5.152 -0.3221 -0.1189  0.2828
26812W        W42706   2.879  13.862   5.970  0.4058 -0.1214 -0.2317
26813W        W42707   7.907   9.764   1.452 -0.0201 -0.1002 -0.0909
26814W        W42708   9.237   0.655  14.634 -0.1514  0.0128 -0.1065
26815W        W42709   6.266   3.226   3.139 -0.4954  0.3782  0.1488
26816W        W42710   0.770   2.295   5.738  0.2666 -0.2135  0.0177
26817W        W42711   0.783  14.260   0.008  0.2069  0.0210 -0.1651
26818W        W42712  17.794   1.481  10.670 -0.1082 -0.1050 -0.0589
26819W        W42713  11.467  10.796  11.439 -0.0401  0.0917  0.0696
26820W        W42714   3.158  14.735  11.603  0.1834 -0.0214  0.0394
26821W        W42715  11.314  12.991   3.714 -0.0516 -0.0154 -0.1617
26822W        W42716   7.935  10.208  10.714 -0.1424  0.1369 -0.1691
26823W        W42717  13.402   4.209  12.811  0.0490 -0.0849 -0.1782
26824W        W42718  14.005   6.179   1.529  0.0768 -0.0235 -0.4432
26825W        W42719  11.497  11.469  10.674  0.0306  0.2365 -0.0374
26826W        W42720   3.756  15.564   3.899  0.2881 -0.2218 -0.5246
26827W        W42721  14.353   7.111   4.586 -0.2378  0.0589  0.1540
26828W        W42722  10.824   1.913  10.868 -0.1051  0.0957  0.3166
26829W        W42723  14.637   7.439   5.139  0.0148  0.0913  0.0487
26830W        W42724  18.445  19.087  14.153  0.3448 -0.0298  0.3174
26831W        W42725  11.679   0.378   9.589 -0.1184  0.1061  0.3029
26832W        W42726   3.894   9.441  13.794 -0.1225  0.1885  0.4272
26833W        W42727  15.863   1.472  11.903 -0.0543 -0.2732 -0.1610
26834W        W42728  17.791   5.963  12.148 -0.0663 -0.1281 -0.1621
26835W        W42729   8.470   7.434   2.248  0.2262  0.2907  0.2794
26836W        W42730   5.349  18.229  11.369 -0.2382 -0.3184  0.3050
26837W        W42731  12.903  13.121  15.084  0.1389  0.1600 -0.0896
26838W        W42732  18.724   2.236  11.675  0.0247 -0.1155  0.1177
26839W        W42733   1.062  10.175   4.798  0.0584 -0.2038 -0.1824
26840W        W42734   0.246  13.815  13.089  0.0106  0.1210  0.2003
26841W        W42735   1.742   0.614  10.651 -0.1161 -0.0161 -0.1593
26842W        W42736   5.319   7.440  10.322  0.0769 -0.0943  0.0281
26843W        W42737  13.868   8.578  13.366 -0.1508 -0.1181  0.1670
26844W        W42738   3.791   9.067  11.668 -0.4230  0.0684 -0.1201
26845W        W42739  16.321   6.679  14.727 -0.0987 -0.1658  0.0699
26846W        W42740   5.709   4.383   4.506  0.0234  0.0657  0.2932
26847W        W42741  12.513   8.715  14.334  0.1916  0.1017 -0.1035
26848W        W42742   6.955   6.151   0.136  0.4650 -0.2700 -0.3314
26849W        W42743  18.378   5.610  13.292  0.0638  0.1695 -0.2167
26850W        W42744  12.836  13.219   1.811  0.0023  0.1115 -0.0988
26851W        W42745   0.403   1.358  11.435  0.3294 -0.0488 -0.6071
26852W        W42746  13.598   6.256   2.420 -0.3378  0.0087  0.2174
26853W        W42747   1.319   5.452   0.839  0.3427  0.3706 -0.0277
26854W        W42748   5.536   1.677   4.431  0.0209  0.1167  0.0725
26855W        W42749  17.234   0.391  10.190 -0.1054  0.0947 -0.1703
26856W        W42750  15.280   0.675   0.278  0.2922  0.1376  0.0188
26857W        W42751   7.192   6.509  11.881 -0.1409  0.0057  0.1979
26858W        W42752  15.983  16.164   2.869 -0.0304 -0.2089 -0.0165
26859W        W42753   5.474   7.508   2.877 -0.1305 -0.1262 -0.1036
26860W        W42754  16.170  18.073  11.999 -0.0327 -0.0233  0.0855
26861W        W42755   0.358   1.726   4.289  0.3954 -0.1586 -0.0566
26862W        W42756   1.137   6.090   2.349  0.3157 -0.0322  0.0395
26863W        W42757   3.779   5.269   2.654 -0.4479  0.1954 -0.0668
26864W        W42758   9.384  14.098   0.283 -0.0110 -0.2694 -0.0332
26865W        W42759   5.215  17.576  10.419 -0.2521  0.2773 -0.2810
26866W        W42760   3.614   1.620  12.105 -0.1157 -0.0143 -0.0351
26867W        W42761   9.538  12.888   2.474 -0.2097 -0.0385  0.2295
26868W        W42762   3.083   2.307  12.344 -0.0099  0.1386 -0.0392
26869W        W42763  12.324   0.471   2.985 -0.0612  0.0646  0.0738
26870W        W42764   2.032   7.477   2.655  0.2087 -0.0046  0.1455
26871W        W42765  17.893  14.619   1.679 -0.1176 -0.1939  0.0588
26872W        W42766   9.096   0.136  10.684  0.0331  0.1712 -0.0485
26873W        W42767   8.117  15.050   0.236 -0.0682  0.1540  0.3122
26874W        W42768  10.764  11.508  14.670  0.2137 -0.4632  0.1813
26875W        W42769   7.958   2.376  14.075  0.4186 -0.0677 -0.0928
26876W        W42770  17.220   2.392   1.168 -0.0969  0.1429  0.1289
26877W        W42771  18.756   0.607   5.159  0.2516 -0.0465 -0.0042
26878W        W42772   1.135   4.204   3.367  0.1871 -0.0612  0.0254
26879W        W42773  10.246   8.831   2.507  0.2020 -0.1480 -0.0676
26880W        W42774   3.850   3.800   0.399 -0.3339 -0.1059  0.1624
26881W        W42775   1.172  13.884   3.673 -0.1069  0.0801 -0.1193
26882W        W42776   2.583  17.077   3.937  0.2713  0.0594  0.1169
26883W        W42777   4.066  10.125  11.105  0.0482 -0.0645  0.0675
26884W        W42778  18.342   3.594   0.011  0.2054  0.0939  0.0899
26885W        W42779   1.718   1.720  12.648 -0.2878 -0.3996 -0.2239
26886W        W42780   0.626  15.693   0.829  0.1648  0.1244  0.2044
26887W        W42781   9.937   0.620   5.582 -0.3187 -0.1707  0.0548
26888W        W42782  11.421   1.273   2.659 -0.1524 -0.1071 -0.3764
26889W        W42783   6.173   0.652   5.193 -0.0666  0.0522 -0.1561
26890W        W42784   1.608  16.552   2.254  0.0130  0.0095 -0.0784
26891W        W42785   1.087   3.832   2.644  0.3578  0.3192  0.0350
26892W        W42786  15.700  12.701   2.117  0.1762 -0.2096  0.0708
26893W        W42787   0.866   2.141  14.710  0.0982 -0.1008 -0.2491
26894W        W42788  14.928   9.050   3.386 -0.1771 -0.0199 -0.0040
26895W        W42789  10.768   7.540   2.823  0.1605 -0.1572  0.2253
26896W        W42790  15.373   4.331   1.808 -0.1082 -0.0284 -0.2452
26897W        W42791   3.926   4.698   4.011  0.1570  0.3027  0.1336
26898W        W42792   3.054   2.727  11.472  0.3742 -0.2930 -0.2043
26899W        W42793   4.014  15.922   4.238 -0.2591  0.3331  0.0651
26900W        W42794  14.637  11.324   4.431  0.0462  0.1911  0.2017
26901W        W42795   9.328  11.612  12.220 -0.0411  0.1583 -0.1886
26902W        W42796  14.080   1.194  11.746  0.1793 -0.0841 -0.4009
26903W        W42797  17.169   2.343   3.159  0.0750 -0.0143  0.1642
26904W        W42798  16.807   5.657   0.904 -0.1518 -0.1388 -0.1759
26905W        W42799  11.987   5.261   1.017 -0.1789  0.4622 -0.1989
26906W        W42800  18.881  15.470   1.752  0.0957  0.2826 -0.2275
26907W        W42801  16.497  13.688  11.358  0.1579  0.0799 -0.3757
26908W        W42802  17.786   3.378   3.026 -0.2832  0.1396 -0.0933
26909W        W42803  17.362   3.272   4.173  0.0544 -0.1509  0.2692
26910W        W42804   0.546  18.566   3.691 -0.0575 -0.1576  0.2256
26911W        W42805  13.633  12.119   1.594  0.0423  0.3255 -0.4547
26912W        W42806  10.637  10.593   2.006  0.4916  0.0450 -0.1155
26913W        W42807   6.824  12.264  12.807 -0.0867  0.1036 -0.0208
26914W        W42808  16.630   3.602   3.096 -0.0537 -0.2040 -0.0612
26915W        W42809  15.132  10.708   0.953 -0.1531 -0.0185 -0.0132
26916W        W42810   8.991   6.596  11.383  0.3620 -0.1563  0.1473
26917W        W42811   2.622  16.139  13.995  0.1395 -0.0911  0.4592
26918W        W42812   9.622  13.074  12.525  0.0358  0.2466 -0.4719
26919W        W42813   7.127  13.936   2.111  0.1893  0.0709 -0.1452
26920W        W42814  16.143   4.718   2.568  0.0749  0.2496 -0.1293
26921W        W42815  10.102   9.099  14.553 -0.0658 -0.0098 -0.0591
26922W        W42816  13.846   8.996   2.660 -0.0552 -0.1687  0.0722
26923W        W42817   4.986   1.939  12.847 -0.1091  0.0641 -0.0470
26924W        W42818  17.138  17.699   4.002 -0.1859  0.1005 -0.1981
26925W        W42819   9.338  11.478   0.165  0.1537  0.1862  0.0202
26926W        W42820   1.559   9.696  13.666 -0.0779  0.0893 -0.0618
26927W        W42821  12.575  14.454   4.341 -0.0690 -0.0379 -0.0223
26928W        W42822   1.592  12.520  11.973 -0.0857  0.0967 -0.0257
26929W        W42823  10.640   1.663   0.399  0.1716  0.0581  0.0736
26930W        W42824  18.498   8.484  12.450 -0.2170  0.0416  0.1068
26931W        W42825  12.768   1.245   2.995 -0.0723 -0.2736 -0.1053
26932W        W42826   4.890  15.756   3.975 -0.3291  0.5089 -0.0872
26933W        W42827   6.074   0.605  12.643 -0.2608 -0.0739 -0.2158
26934W        W42828  15.544   7.145   5.321  0.3407  0.2422  0.3766
26935W        W42829  12.251   2.125   1.458  0.0553  0.3405 -0.1103
26936W        W42830   4.190  17.138  10.117 -0.1605 -0.1693 -0.1042
26937W        W42831  13.512   3.099  13.636 -0.1721 -0.0862 -0.0606
26938W        W42832  17.247  12.785   1.014  0.1045  0.0016 -0.0841
26939W        W42833   8.891   3.921   3.296  0.0505 -0.3029 -0.1949
26940W        W42834  10.808  13.646   3.253  0.1776 -0.0294 -0.3269
26941W        W42835   3.387   8.984   3.486 -0.0890 -0.0504  0.1304
26942W        W42836   7.250   6.117   4.527 -0.0277 -0.1601  0.0730
26943W        W42837   4.476   6.185  13.882  0.1928  0.0170 -0.2334
26944W        W42838  18.675   0.286   2.669  0.5512 -0.2762  0.1758
26945W        W42839  17.918   9.517   0.358  0.4396  0.2817  0.1752
26946W        W42840   7.786   3.793   1.716  0.0954 -0.1871  0.2543
26947W        W42841   4.351   6.640   4.718 -0.1929  0.1625  0.0608
26948W        W42842   9.485   7.722  13.904 -0.1252 -0.1532  0.0262
26949W        W42843   5.661   5.845  11.551 -0.3175  0.1443  0.1232
26950W        W42844   8.578  18.564   2.515 -0.1080 -0.3791 -0.2004
26951W        W42845  11.921  15.872   4.558 -0.0521  0.0104  0.0668
26952W        W42846   5.739   8.045   2.825  0.2489 -0.1771 -0.4083
26953W        W42847   6.787   0.161   2.940  0.2615 -0.2192  0.0103
26954W        W42848   7.773   1.156   5.151  0.2879 -0.1786  0.4345
26955W        W42849   9.598  18.242  12.818  0.1038  0.0994 -0.1346
26956W        W42850  15.513   4.394   2.332  0.0266 -0.0827  0.1270
26957W        W42851  18.476  14.959   4.125 -0.2144  0.2249  0.3335
26958W        W42852  15.131  12.735   0.744 -0.0049 -0.0054  0.1768
26959W        W42853  16.154  12.072   3.612 -0.2290  0.0744 -0.1622
26960W        W42854   7.269   6.741  14.494 -0.1364  0.2201 -0.1830
26961W        W42855   6.110  12.829   9.833 -0.0544  0.1714 -0.0817
26962W        W42856   7.189  10.291   3.411  0.1708 -0.1907 -0.1418
26963W        W42857   6.989  17.832   1.479 -0.0120 -0.1674  0.1306
26964W        W42858  17.207   5.214   4.701  0.3092  0.2674  0.1450
26965W        W42859  13.908   6.091   5.366  0.0390 -0.0362 -0.2735
26966W        W42860   4.139   8.456   2.641  0.0486  0.2519  0.0577
26967W        W42861  18.598  17.615  12.755  0.0686 -0.1629  0.1772
26968W        W42862  17.784   8.573  13.700  0.0665  0.2434  0.2594
26969W        W42863  10.371  15.106  10.892  0.2759  0.1114  0.4656
26970W        W42864  18.223   8.345  10.772 -0.5285 -0.1910 -0.1340
26971W        W42865  14.934   4.319  13.930  0.0426 -0.0938 -0.0739
26972W        W42866   0.302   8.711  11.045  0.1860  0.0654  0.1625
26973W        W42867   5.525  17.799   2.757  0.1538  0.0266  0.3215
26974W        W42868   8.027  14.661   1.294 -0.0176 -0.0708  0.3383
26975W        W42869   7.820  12.478   1.944  0.1854 -0.3116  0.3089
26976W        W42870  17.519   2.857   9.967  0.0902  0.0733 -0.1023
26977W        W42871   0.719   2.166   4.318  0.0429 -0.1708  0.0642
26978W        W42872  14.204  15.272   0.864  0.1355  0.0279  0.2218
26979W        W42873  16.739   9.533   3.766  0.0541 -0.0310 -0.0536
26980W        W42874   7.996   2.765  14.420 -0.1266 -0.2584  0.3420
26981W        W42875   7.873  13.886   4.498  0.0907 -0.1746 -0.3079
26982W        W42876  16.798   1.663   0.192 -0.2693 -0.1513  0.3254
26983W        W42877  16.222   7.763   1.003  0.0124 -0.0258 -0.0042
26984W        W42878   1.586   1.305   4.506 -0.1635  0.1618  0.0400
26985W        W42879   3.002  11.424   0.348  0.3649 -0.3345  0.2128
26986W        W42880   4.524  16.344  11.497  0.0548 -0.0500 -0.1881
26987W        W42881   2.364  13.306  13.489 -0.1115 -0.0815 -0.1853
26988W        W42882  17.425  16.623  12.304 -0.1741 -0.0218  0.1054
26989W        W42883  14.870   7.247  12.610  0.0787 -0.3081  0.2059
26990W        W42884  10.478   9.145  13.242  0.2939  0.1159 -0.0547
26991W        W42885  18.655   6.356   0.063  0.2717  0.1093 -0.0518
26992W        W42886  17.533  17.801   3.277 -0.0610 -0.2641  0.1192
26993W        W42887   9.136   6.206  10.999 -0.2819 -0.3370 -0.0546
26994W        W42888  19.099   0.699   2.028 -0.2612  0.5176 -0.0112
26995W        W42889   5.866  16.478   1.536 -0.0843 -0.2736  0.1074
26996W        W42890  18.342   4.147  12.460  0.3225 -0.2407 -0.1648
26997W        W42891  10.188  14.425  14.998 -0.0726  0.0671 -0.1500
26998W        W42892  15.000   6.129  11.722 -0.5734 -0.2520  0.1881
26999W        W42893   4.695   5.467   2.516  0.1390 -0.0481  0.1409
27000W        W42894  11.934  10.598   0.060 -0.2038 -0.1664  0.1588
27001W        W42895  15.289  18.173   1.011 -0.0548  0.0106  0.1119
27002W        W42896  11.409   3.612  14.441  0.0024  0.1530  0.2304
27003W        W42897   8.305   6.410   3.451  0.2005  0.4715  0.0132
27004W        W42898  10.378   5.251   1.569  0.3142  0.0610 -0.1886
27005W        W42899   8.692   3.089  13.208  0.2442  0.0177  0.5062
27006W        W42900   8.507  17.892  10.964 -0.1249  0.3262 -0.5948
27007W        W42901  18.755  14.728   5.767 -0.0619  0.0437 -0.1022
27008W        W42902  17.553   6.427   4.479 -0.2167  0.0623  0.3401
27009W        W42903   1.569  17.021   1.841 -0.1720  0.1680  0.0349
27010W        W42904   7.195   4.927  14.548 -0.2295 -0.0052 -0.3978
27011W        W42905  16.895  16.976  14.762  0.0446 -0.0543 -0.0432
27012W        W42906  14.079   7.328  13.604 -0.1107  0.3197 -0.1592
27013W        W42907  13.394   7.504  11.200  0.0262  0.0737  0.2264
27014W        W42908   1.069  11.552  13.386  0.0293  0.0449 -0.1535
27015W        W42909  10.474   2.633  13.884 -0.0304  0.1671  0.1020
27016W        W42910   3.208   5.461  14.987 -0.0775  0.0649  0.1157
27017W        W42911   6.019   0.065  14.481 -0.1599 -0.4293 -0.2263
27018W        W42912   4.188   5.381   4.494 -0.0471  0.0694  0.2996
27019W        W42913  14.589  17.545   2.545 -0.0140  0.1159 -0.0756
27020W        W42914   4.077   5.159  13.192  0.3823  0.0389  0.3375
27021W        W42915  17.739   6.073  14.779 -0.0388 -0.4654 -0.2405
27022W        W42916   9.457  14.730  12.425  0.1738  0.1332  0.0195
27023W        W42917   7.247  11.794   2.126 -0.3477  0.0092 -0.1005
27024W        W42918   8.158  11.420   1.464 -0.0536  0.1670 -0.1146
27025W        W42919  16.717   2.414   5.769 -0.2000  0.0324 -0.0548
27026W        W42920  15.624   0.676  14.521 -0.0597  0.4824  0.1259
27027W        W42921  17.315  14.673  11.733  0.1307 -0.4410 -0.0469
27028W        W42922   4.866   9.788   1.904 -0.3135  0.0603  0.1035
27029W        W42923  16.818   6.185   0.927 -0.2727  0.1244  0.1327
27030W        W42924  10.289  10.775   1.159  0.3152  0.0880  0.0599
27031W        W42925   1.003  14.467  14.783  0.3266  0.0483  0.0904
27032W        W42926   6.880   9.278  10.561  0.1101  0.1134  0.0700
27033W        W42927   0.012  18.217   0.634  0.0319 -0.0801  0.0524
27034W        W42928   1.343  17.286   0.397 -0.5987  0.0071  0.1399
27035W        W42929   7.509   3.283   1.797  0.1796 -0.4759 -0.1442
27036W        W42930   6.578  16.271   2.543 -0.1746  0.2875 -0.1230
27037W        W42931  16.106  14.848   4.811  0.2343 -0.0155  0.1525
27038W        W42932   8.285   0.457  11.611 -0.2567 -0.0033  0.0477
27039W        W42933  12.384  17.128   0.775 -0.0452  0.0779  0.0192
27040W        W42934  15.337   9.361  14.551  0.4154 -0.0432 -0.3707
27041W        W42935  10.187   4.363   5.032 -0.0967  0.0902 -0.4278
27042W        W42936   7.081  10.125  13.428 -0.1830 -0.3090 -0.1943
27043W        W42937   5.972   8.405  10.399  0.0297  0.4614 -0.4080
27044W        W42938  15.710   6.230  13.192  0.2486  0.0948 -0.1476
27045W        W42939   5.741   2.590   2.799 -0.0263  0.1414  0.1044
27046W        W42940   2.673   2.564   3.172 -0.1377  0.5155  0.1067
27047W        W42941   7.441  13.744  13.069  0.4106 -0.3413  0.2296
27048W        W42942  14.709   9.960  11.539 -0.0869 -0.2519  0.1663
27049W        W42943   6.488  11.188   1.113  0.0794  0.1435  0.1341
27050W        W42944   0.796   1.044   5.252 -0.0246  0.1266  0.0546
27051W        W42945   9.023  13.268   3.157  0.0862  0.1099  0.2452
27052W        W42946   8.012  13.679   1.747  0.0654  0.0756 -0.0876
27053W        W42947   6.205  18.395  14.657  0.1071  0.3064  0.2477
27054W        W42948   5.933  18.809  14.811  0.1177 -0.3115  0.3826
27055W        W42949   8.280  11.575   4.843 -0.0382  0.0211  0.0304
27056W        W42950   7.258  18.870  13.705 -0.0993 -0.1269 -0.1274
27057W        W42951  16.278   6.841   2.772  0.0066  0.2255 -0.3600
27058W        W42952   7.240   7.517  11.268 -0.0477 -0.1149 -0.0188
27059W        W42953  12.806   4.534   3.314 -0.3226 -0.2531 -0.3797
27060W        W42954   5.433   7.644  11.583  0.1882  0.1359  0.0170
27061W        W42955  17.542   1.718  13.276  0.1348 -0.2980  0.0135
27062W        W42956   1.313  10.738   0.911  0.3451  0.4574  0.1913
27063W        W42957   0.666   7.014   5.061  0.0145  0.4034  0.1127
27064W        W42958  16.260  15.326  11.157  0.2210 -0.1262 -0.2003
27065W        W42959   6.064   3.694  10.649 -0.2917  0.0923  0.1745
27066W        W42960   1.072  11.671   5.053  0.0507  0.2884 -0.2849
27067W        W42961   3.347  18.436  14.024  0.2662 -0.2658  0.0241
27068W        W42962   5.120  16.056   3.557  0.3311 -0.0985 -0.1791
27069W        W42963  12.228   0.280   3.879 -0.0694  0.0347 -0.1209
27070W        W42964  16.114  17.758  13.178 -0.0151  0.2002 -0.0531
27071W        W42965   2.620   9.855  11.515 -0.0758 -0.2331  0.1115
27072W        W42966   7.576  17.689  12.067 -0.0186 -0.0771  0.1867
27073W        W42967   2.358   4.440   2.634 -0.0740 -0.1111  0.2595
27074W        W42968   3.485  16.339   1.036  0.1745  0.2531 -0.1707
27075W        W42969   5.684   9.963  15.001  0.0584 -0.0063  0.2469
27076W        W42970  19.093  14.998   2.620  0.2009 -0.1639 -0.1752
27077W        W42971   6.708  19.099  12.536 -0.3577 -0.0184  0.1549
27078W        W42972   6.653  11.986  11.741  0.0788  0.1336 -0.0087
27079W        W42973  15.947   0.738   3.140 -0.0022 -0.0994 -0.3041
27080W        W42974   8.071   9.146   4.377  0.0244 -0.1365 -0.0755
27081W        W42975   7.981   7.022  14.053 -0.5097 -0.1304 -0.1664
27082W        W42976   8.337   2.466  11.532 -0.2891 -0.0063  0.1376
27083W        W42977   3.899   0.404   0.175  0.0117 -0.2278  0.4126
27084W        W42978   4.479   1.917  12.946  0.1071 -0.0462  0.0532
27085W        W42979  11.999  17.444  15.075  0.0396  0.0295  0.1514
27086W        W42980  10.441  12.188   3.707  0.1853  0.1647 -0.0435
27087W        W42981  12.751   6.187   2.571 -0.3733  0.0927  0.2934
27088W        W42982   4.308   1.202  14.542  0.3490 -0.1793  0.0778
27089W        W42983   8.169   3.841  11.802  0.0386  0.0913  0.0485
27090W        W42984  19.088   9.640  14.292 -0.3728  0.3583  0.2835
27091W        W42985  16.164   5.190   5.634  0.2519  0.1220 -0.0308
27092W        W42986  10.495   8.808   5.055 -0.1588 -0.1426 -0.3414
27093W        W42987   3.501   0.287  13.904 -0.2011  0.1616 -0.1050
27094W        W42988  11.412  17.116  12.696  0.0944  0.1216  0.1851
27095W        W42989   5.390   6.636   3.365 -0.3203  0.0265  0.0230
27096W        W42990   1.060  13.677   4.110 -0.1417 -0.0933 -0.0939
27097W        W42991   5.912   2.194  14.474 -0.0369  0.0439 -0.1282
27098W        W42992  12.289  13.396   3.466 -0.1796 -0.0708 -0.2905
27099W        W42993   7.319  13.922   3.847 -0.2423  0.3188 -0.3728
27100W        W42994  17.879  13.257  11.565  0.0634 -0.2208 -0.1023
27101W        W42995  12.654   0.214   0.521  0.0108 -0.0751 -0.0833
27102W        W42996   4.799  10.538   3.984  0.0145 -0.1574 -0.3114
27103W        W42997  12.589  18.299  11.047  0.2961  0.2084 -0.0240
27104W        W42998  10.430   1.697  10.420 -0.2110  0.0780 -0.2079
27105W        W42999  13.068  10.193   2.670  0.1839 -0.2046 -0.2703
27106W        W43000  16.738   8.569  11.973 -0.1762  0.1716  0.0792
27107W        W43001  18.943   6.585  12.710 -0.0849 -0.0610 -0.2979
27108W        W43002   1.620  11.258   5.843  0.0297  0.0834  0.1300
27109W        W43003  12.416   2.644  12.209 -0.1091 -0.1253 -0.0978
27110W        W43004   6.959   0.509   0.939  0.2749 -0.0767 -0.2449
27111W        W43005  12.318  11.731  13.385 -0.2605 -0.1751 -0.0434
27112W        W43006   3.090   3.147  11.770 -0.1677 -0.1233 -0.0579
27113W        W43007  10.851   2.922  14.223  0.0926 -0.1592  0.1553
27114W        W43008   4.969   4.804  12.248 -0.0710  0.3338 -0.3359
27115W        W43009   1.527   9.856  12.632 -0.0541  0.1716 -0.0009
27116W        W43010  15.155   5.043   5.661 -0.2780 -0.1392 -0.1699
27117W        W43011  12.107  11.529   1.950  0.1904 -0.0572 -0.1430
27118W        W43012   2.515   5.836  10.193  0.0104  0.1305 -0.2078
27119W        W43013  15.622   1.433  12.665  0.1081 -0.1294 -0.1068
27120W        W43014   0.326   1.868   2.476  0.1877 -0.1130  0.2161
27121W        W43015  16.757  15.611  12.561  0.2394  0.0956 -0.1626
27122W        W43016   7.415  16.362   4.858 -0.0462  0.0494 -0.2100
27123W        W43017   2.554  11.069  13.557 -0.1347  0.1381  0.2503
27124W        W43018   1.714   9.680  12.080 -0.0769 -0.3166 -0.3304
27125W        W43019   8.480  16.687   1.121 -0.3679 -0.1655  0.3774
27126W        W43020   8.254  12.718   2.957 -0.1643  0.1651 -0.0539
27127W        W43021   3.535   8.285  11.972  0.0921  0.0735  0.0342
27128W        W43022  18.103  16.568  14.132  0.2987  0.0550 -0.0308
27129W        W43023  11.831   2.152   0.678 -0.1976  0.3747  0.0552
27130W        W43024  13.189   1.860  12.918 -0.1160  0.1962 -0.2664
27131W        W43025   3.151   8.380  10.698 -0.0784 -0.0516  0.1663
27132W        W43026  19.021   0.214   5.354  0.1839 -0.1004 -0.2487
27133W        W43027   7.186   2.310   2.682 -0.5054 -0.1201 -0.1631
27134W        W43028   3.890  14.422  15.005 -0.5173 -0.0700  0.0545
27135W        W43029   6.850   3.834   4.921 -0.2978  0.1601 -0.0469
27136W        W43030  12.815   7.727  12.859  0.2346  0.0960 -0.1094
27137W        W43031  16.824   5.039  14.112  0.5772  0.0914 -0.0496
27138W        W43032  12.274  18.827  15.040  0.1338 -0.1062 -0.2060
27139W        W43033   5.583   4.305  10.330 -0.0543 -0.0788 -0.2508
27140W        W43034   1.739   0.677   3.746  0.0738 -0.0119 -0.0448
27141W        W43035  18.321   8.305  15.191 -0.1230 -0.3889 -0.1680
27142W        W43036  14.552   9.703   1.652 -0.0200 -0.2161  0.0223
27143W        W43037  15.648  17.768   0.350  0.2856  0.0456 -0.0085
27144W        W43038  11.240   3.308   1.736 -0.0167 -0.1034 -0.0640
27145W        W43039  13.125  15.159   3.663 -0.1567  0.0326  0.2031
27146W        W43040  15.442   2.450   2.229  0.1254  0.1214 -0.2606
27147W        W43041   6.779   8.374   4.861 -0.1550 -0.0916 -0.0225
27148W        W43042   5.140   2.601   6.260  0.1125  0.2497 -0.1144
27149W        W43043  13.987   2.193   5.111 -0.1161 -0.2570 -0.0807
27150W        W43044   6.566   3.746   5.904 -0.0833 -0.0883 -0.2271
27151W        W43045  11.766  19.014  11.496  0.1819 -0.0684  0.2338
27152W        W43046  17.927  16.637   5.467  0.0549  0.0922 -0.0653
27153W        W43047   2.897   6.994   2.954 -0.0709  0.1669  0.1448
27154W        W43048  14.063   9.543  11.134 -0.0282 -0.1439  0.1611
27155W        W43049   8.977  14.493   1.487  0.0030  0.0453  0.0636
27156W        W43050  15.436   7.140  14.062  0.2632  0.4093  0.2543
27157W        W43051  18.428  11.319   0.502 -0.0666  0.2275 -0.2944
27158W        W43052  11.882  14.745  14.819  0.1153 -0.1051 -0.2268
27159W        W43053   5.038   6.539  10.545  0.0702 -0.1651  0.0070
27160W        W43054  15.395   2.965  14.965 -0.1457 -0.0033  0.0921
27161W        W43055  14.972  15.043  11.984 -0.0196 -0.0584 -0.2736
27162W        W43056  17.848  16.738  12.542 -0.0110 -0.0187 -0.2326
27163W        W43057   4.169   4.915   3.623  0.4976  0.2944 -0.0341
27164W        W43058   7.469   8.865  11.284 -0.1091  0.2030  0.3605
27165W        W43059   5.741   8.979  13.537 -0.0377 -0.2597  0.0394
27166W        W43060   3.270   4.127   1.140 -0.1925  0.2800  0.0349
27167W        W43061   3.863   2.674   2.148 -0.1871 -0.0265  0.0919
27168W        W43062   0.264   4.452  13.254  0.0175  0.2474  0.3049
27169W        W43063   2.717  14.061   3.821  0.1522  0.0881 -0.1128
27170W        W43064  16.736   4.979   4.518 -0.2096  0.0603  0.1941
27171W        W43065   4.620  17.418   3.597  0.1949  0.2234 -0.1812
27172W        W43066  15.920  15.464  14.197  0.0171 -0.1269 -0.0187
27173W        W43067  14.693   5.836  13.803 -0.2587 -0.3233  0.1562
27174W        W43068  10.492  17.499  10.552  0.1414 -0.0151 -0.1547
27175W        W43069   3.263   3.564  10.774 -0.0199 -0.1180 -0.1815
27176W        W43070  10.427  13.271  12.120 -0.2244 -0.1538  0.1003
27177W        W43071   0.243   3.129  14.476 -0.1598  0.0732  0.0881
27178W        W43072  13.753  16.691  11.037 -0.3057  0.2785  0.2104
27179W        W43073   4.273  12.095  12.891 -0.1301 -0.1114 -0.0947
27180W        W43074   8.271  16.885   3.348  0.0121 -0.0396 -0.0325
27181W        W43075   6.573   7.378  10.775 -0.0562 -0.1468 -0.3392
27182W        W43076  18.059   4.933  12.558 -0.3916 -0.1744 -0.0668
27183W        W43077  13.694  18.520  14.978  0.2880  0.3509 -0.1056
27184W        W43078  13.520  11.871   5.462 -0.3415 -0.0458  0.2642
27185W        W43079  14.537   2.203  15.121  0.1928 -0.0494  0.0439
27186W        W43080   7.135  13.147   3.651  0.1103 -0.0047 -0.0564
27187W        W43081  16.132  11.624  14.902  0.2258  0.0861  0.0343
27188W        W43082   5.585  16.084   1.531  0.3448  0.1206 -0.0710
27189W        W43083  16.261   6.162  10.750  0.0252 -0.1760  0.0431
27190W        W43084  18.220  10.266   1.519 -0.3552  0.0016  0.1002
27191W        W43085   8.155   4.262  15.135 -0.1317  0.0311 -0.1740
27192W        W43086   7.619   5.738   4.703  0.1265  0.0462 -0.0394
27193W        W43087   0.162   2.049  10.330  0.0836 -0.1510  0.1349
27194W        W43088   0.894  17.067   2.678 -0.1158 -0.0204 -0.0346
27195W        W43089   7.481   4.362  12.722  0.0335  0.0751  0.0868
27196W        W43090  12.291   6.947   4.921 -0.0060  0.1125 -0.1594
27197W        W43091  15.766  13.926  14.841 -0.4905 -0.0189 -0.0592
27198W        W43092   1.742  16.590   2.807 -0.1780 -0.1136 -0.5860
27199W        W43093   1.975   9.315   5.384 -0.1403 -0.0252  0.0066
27200W        W43094   8.724   0.611   2.795  0.2884  0.0899  0.2382
27201W        W43095  12.471  10.242   5.177  0.0245  0.0211 -0.0927
27202W        W43096   1.205   8.650   1.876  0.2036  0.2723  0.2316
27203W        W43097   1.311  10.096  11.133 -0.2485 -0.0475  0.0098
27204W        W43098   5.464   7.643   4.758  0.1373  0.1187 -0.0826
27205W        W43099  10.860  15.514  11.567 -0.0280 -0.2151 -0.0483
27206W        W43100  11.124   6.424  10.912 -0.0181  0.2740  0.0443
27207W        W43101  11.873   7.255  14.006 -0.0839  0.1927 -0.2961
27208W        W43102   2.374  17.851   2.357 -0.2049  0.2784 -0.2703
27209W        W43103  14.031  17.914   4.515 -0.1609  0.2626  0.0995
27210W        W43104   0.397  16.945  12.003 -0.0925  0.1402  0.3342
27211W        W43105  18.383   0.433  11.591 -0.2483 -0.0257 -0.1131
27212W        W43106   9.014  13.399  11.215 -0.2442 -0.0880  0.2121
27213W        W43107   1.113  17.419   0.885 -0.1946 -0.2277 -0.0481
27214W        W43108   3.616  15.882   2.237  0.0388  0.0948  0.0093
27215W        W43109   5.126  14.051  11.747  0.1226  0.0903  0.1203
27216W        W43110  12.259   3.764   0.935 -0.2948  0.3504  0.0619
27217W        W43111  12.975   5.446   1.427  0.2063  0.1398 -0.1229
27218W        W43112   2.760  17.125  14.804  0.0950  0.0063 -0.2682
27219W        W43113   5.180   8.720   3.754 -0.2773  0.3828  0.1262
27220W        W43114  11.126   3.216  12.722  0.0283  0.1108  0.2123
27221W        W43115   8.208  17.657  13.752  0.1459  0.0118  0.3044
27222W        W43116  16.076  15.368   0.398  0.0373 -0.0350  0.0835
27223W        W43117  10.741  10.975   1.048  0.0925 -0.0000  0.1907
27224W        W43118   8.695   7.619   3.984 -0.3080  0.1226  0.3143
27225W        W43119   9.943   2.083  15.002  0.0946  0.2408 -0.2596
27226W        W43120  12.950  15.837   2.534 -0.1533  0.0545  0.0160
27227W        W43121  17.186   7.863   0.672 -0.0658 -0.3977  0.2825
27228W        W43122  10.878   8.045   5.169 -0.1250 -0.2141  0.2287
27229W        W43123   9.415  13.657   1.184 -0.2796  0.1336 -0.1186
27230W        W43124   5.180   1.716  15.005  0.2231  0.2404  0.3179
27231W        W43125  15.415   3.100   3.872  0.0504  0.0971 -0.0928
27232W        W43126   0.141  15.958  12.674 -0.3610  0.1609  0.0452
27233W        W43127  10.058  16.685   3.375  0.1695 -0.3239  0.0769
27234W        W43128  15.401   0.588   4.821 -0.0858 -0.2564 -0.1149
27235W        W43129  15.073  15.142   3.238  0.1387  0.0576  0.1583
27236W        W43130  15.384   8.346   9.845 -0.3212 -0.1220  0.1088
27237W        W43131  13.802   8.925   4.431  0.2528  0.1158 -0.3381
27238W        W43132  11.360   1.662  14.962  0.2279  0.1181  0.0103
27239W        W43133  15.850  14.524   0.610 -0.0726 -0.2366  0.0787
27240W        W43134  12.648  18.538   5.895 -0.2218 -0.1442  0.3544
27241W        W43135   6.611   5.711  11.604 -0.0732  0.1223 -0.3665
27242W        W43136   8.216   5.455   2.625 -0.0187 -0.2465  0.0713
27243W        W43137  10.332   4.382  10.714  0.1539  0.2884  0.3511
27244W        W43138  11.420   3.470  14.951  0.1411  0.0329 -0.0732
27245W        W43139  12.618   6.220   1.089  0.0782 -0.2426  0.2073
27246W        W43140   7.267   4.484   0.829 -0.1924  0.0337  0.1238
27247W        W43141  17.909  17.291   2.049 -0.2949  0.2962  0.1508
27248W        W43142  12.722   2.058  13.487 -0.1047 -0.1459  0.3482
27249W        W43143  16.575   9.665   0.949  0.1241 -0.2262 -0.1024
27250W        W43144  14.360  18.021  12.645  0.1520 -0.3820  0.0040
27251W        W43145   1.553   5.510   1.270  0.0016 -0.0942  0.2475
27252W        W43146   9.168  16.164   3.784  0.2663  0.2351  0.1840
27253W        W43147  10.538   8.763  11.258  0.0892 -0.0400  0.1810
27254W        W43148   0.857  12.300   3.292 -0.0823 -0.0096 -0.1855
27255W        W43149  12.712   8.775  12.314 -0.2887  0.1375  0.0003
27256W        W43150  10.832   4.204   4.085  0.3591  0.2153 -0.1767
27257W        W43151   1.911  11.283  14.714  0.1108  0.4572  0.3754
27258W        W43152  11.165   5.614  13.448 -0.2612  0.2919 -0.1408
27259W        W43153  12.589  18.464   1.271 -0.0723 -0.0196 -0.2022
27260W        W43154  16.979  16.455  12.545  0.1870  0.1810 -0.0988
27261W        W43155  14.931  11.625   5.378  0.1048 -0.1526  0.0692
27262W        W43156  16.293   3.282   1.748  0.1317  0.1303 -0.1204
27263W        W43157   2.126  16.748   4.166  0.0881  0.1690  0.1111
27264W        W43158   3.466   1.475  10.869  0.0126  0.2189 -0.0041
27265W        W43159   5.614   9.294   0.358 -0.2919 -0.1883  0.0096
27266W        W43160   4.331   3.187   2.949 -0.2300 -0.2816 -0.1321
27267W        W43161  14.950  14.340   0.437  0.1278  0.0689  0.0430
27268W        W43162  10.035  17.664   2.657  0.1105  0.2889 -0.2228
27269W        W43163   8.107  10.754  13.610  0.0890 -0.0868  0.1985
27270W        W43164  11.055  16.815   1.840  0.1843  0.0543  0.0787
27271W        W43165   4.536   7.715   0.033  0.3362  0.1300 -0.0353
27272W        W43166   0.954   9.493   3.945 -0.1004  0.0339  0.0268
27273W        W43167  13.831   2.638   2.507 -0.0828 -0.0838 -0.1489
27274W        W43168   7.587   9.010   1.862 -0.3617  0.0324  0.4179
27275W        W43169  12.235  16.705  13.753  0.1062 -0.0308 -0.0586
27276W        W43170   9.564   3.130  12.819  0.3035  0.0094  0.0194
27277W        W43171  15.252   3.406  13.335 -0.0107 -0.2502  0.1156
27278W        W43172   2.817  11.915   4.843 -0.0649  0.0056 -0.3090
27279W        W43173   2.848   1.994   3.997 -0.2374  0.1171 -0.1861
27280W        W43174   0.970   7.839   0.416  0.0131 -0.3318  0.2714
27281W        W43175  18.082   2.642   6.001  0.0431  0.0092  0.2876
27282W        W43176  15.481  17.891  12.567  0.1666 -0.1249  0.0449
27283W        W43177  14.965   6.012  11.165  0.1119  0.0750 -0.0574
27284W        W43178   3.510   4.110   3.454 -0.0063  0.2818  0.1066
27285W        W43179   0.110  17.815   1.943 -0.2896  0.2526  0.1453
27286W        W43180   1.984   5.690  14.821  0.3173 -0.3554  0.3961
27287W        W43181   2.597   6.352  12.452 -0.3353  0.2285  0.1646
27288W        W43182  12.384   1.488   1.991  0.2966  0.3413 -0.0022
27289W        W43183  10.923  17.552  11.459  0.3336  0.0614 -0.2101
27290W        W43184   0.583   8.438  14.925 -0.0515 -0.0881  0.3210
27291W        W43185   2.155  14.636  11.989  0.0681 -0.2310 -0.0011
27292W        W43186  14.724   2.964   2.182 -0.0564  0.0328  0.2179
27293W        W43187   2.181   5.399  11.754  0.1222  0.0554  0.1568
27294W        W43188  14.481   6.914   5.035 -0.0003  0.0226 -0.0397
27295W        W43189   2.597   6.354  10.546  0.0919 -0.4431  0.1081
27296W        W43190   3.956  15.442   2.262  0.0253  0.0297  0.2165
27297W        W43191  14.780   9.979   0.577 -0.0434  0.1390 -0.1266
27298W        W43192   1.983   8.801   2.110  0.0994  0.0127  0.1103
27299W        W43193   2.467   9.724  12.987  0.0615  0.1213 -0.1968
27300W        W43194  18.313  17.989   4.313  0.0696 -0.2943 -0.0771
27301W        W43195  16.580   3.786   1.861  0.0438  0.2391  0.1897
27302W        W43196  15.900   1.874  14.239  0.2894 -0.0345 -0.0835
27303W        W43197   3.678  10.454  12.246 -0.3361 -0.0779  0.3302
27304W        W43198   9.665   7.133  10.834 -0.3184  0.0757  0.1131
27305W        W43199  12.677   1.655  13.761 -0.2495  0.2425  0.0404
27306W        W43200   8.303  16.026  13.087  0.0038 -0.1006 -0.2086
27307W        W43201  13.229  14.693   2.720 -0.0457 -0.1244 -0.0560
27308W        W43202  14.565  14.421  12.321 -0.2989  0.3667 -0.3479
27309W        W43203   0.425  19.042   3.636  0.0789  0.1491 -0.0471
27310W        W43204   6.570   9.243  10.985  0.0301  0.2440  0.2759
27311W        W43205   8.499  10.972   1.654  0.0676 -0.1252  0.3249
27312W        W43206  17.584   9.895   4.068 -0.2291 -0.2397 -0.1312
27313W        W43207   4.643  15.275   4.111 -0.0097  0.1141  0.3097
27314W        W43208   4.257   9.300   5.634  0.1865 -0.0550 -0.0029
27315W        W43209   9.862  14.617  13.381 -0.0501 -0.2453  0.3821
27316W        W43210   6.262   5.737   4.009  0.1137 -0.0831 -0.4654
27317W        W43211  13.465  14.027  11.925  0.0952  0.0701  0.0468
27318W        W43212  10.314   4.403   4.220  0.0287 -0.0494  0.1845
27319W        W43213  12.814  13.788  10.618 -0.0866  0.0487 -0.1320
27320W        W43214  10.887   4.000   5.026 -0.1860 -0.0010 -0.0255
27321W        W43215   7.836   2.774  15.139  0.1284  0.1766  0.2312
27322W        W43216  16.315   9.438  12.511  0.1816 -0.2845  0.1305
27323W        W43217  19.137   7.490   5.221 -0.3421 -0.3525 -0.0104
27324W        W43218   6.941  10.645  14.958  0.2454 -0.1524  0.0905
27325W        W43219  14.640   1.941   4.726  0.4308 -0.0226  0.2280
27326W        W43220  15.166  17.907  11.723 -0.2362 -0.1792 -0.2967
27327W        W43221   7.882  13.008  13.471 -0.0608 -0.0829  0.0460
27328W        W43222  12.891  14.867  11.944  0.1130 -0.1312  0.0825
27329W        W43223  10.671  10.733   3.636  0.0907  0.0493  0.0334
27330W        W43224   7.851   6.269   1.217  0.2871  0.1367 -0.0702
27331W        W43225   1.518  16.337  11.579  0.0391  0.2945 -0.0649
27332W        W43226  10.290  12.688   2.178 -0.0132  0.0853  0.1571
27333W        W43227   0.819  15.293   9.812  0.1542  0.0514 -0.2669
27334W        W43228   1.302   6.671  14.568  0.2357  0.2468  0.1802
27335W        W43229  15.789   0.934  12.186  0.0301  0.0977  0.0393
27336W        W43230  12.084   3.810   1.441 -0.3009 -0.2362 -0.1082
27337W        W43231  14.586  11.789  11.266  0.2300 -0.2242  0.1477
27338W        W43232  14.833  10.909  12.836 -0.1116 -0.0460  0.0253
27339W        W43233   4.670   9.353  13.548 -0.0919 -0.1090 -0.0543
27340W        W43234  11.817  13.172   3.504  0.0404 -0.1721  0.2438
27341W        W43235  10.563   6.178  14.728  0.1505  0.3379  0.1596
27342W        W43236   6.352  17.023   1.234  0.1748 -0.2219 -0.2584
27343W        W43237  17.461   8.803   5.349  0.0733  0.0086  0.0831
27344W        W43238  10.158  11.866  11.175  0.3710 -0.1743  0.0572
27345W        W43239   7.513  18.704   3.428 -0.0199  0.2152  0.0511
27346W        W43240  11.228  14.933  11.120 -0.0651 -0.0833 -0.1114
27347W        W43241  10.936  11.461   3.525  0.0986  0.1770 -0.1287
27348W        W43242   4.329  16.263  13.960 -0.3577 -0.2418  0.0038
27349W        W43243  13.360   1.064  14.946 -0.1142  0.0351  0.2780
27350W        W43244   4.769  12.732   0.729 -0.0557  0.1837  0.4950
27351W        W43245  19.083   6.683   1.290  0.0886  0.1491 -0.1403
27352W        W43246  13.990  11.906   4.502  0.4303  0.0425 -0.1012
27353W        W43247   5.812   7.231   0.465 -0.0244 -0.0323  0.0177
27354W        W43248   8.531   6.933   0.744  0.0710 -0.0788  0.0463
27355W        W43249  15.643   0.369  12.337  0.1298 -0.1541  0.0472
27356W        W43250   8.376   0.825   1.585  0.1850 -0.2290 -0.1178
27357W        W43251  12.835   9.671   3.562  0.3652  0.0125 -0.1192
27358W        W43252   4.230  17.475   1.438 -0.0339 -0.1728 -0.2539
27359W        W43253  15.212   1.068   5.111 -0.1289 -0.0091 -0.2753
27360W        W43254   3.440  17.429   4.095  0.3510 -0.1299 -0.3109
27361W        W43255   0.162  10.654   3.642 -0.2677  0.0762  0.1425
27362W        W43256   7.242  13.234  12.826  0.0322 -0.2013  0.1276
27363W        W43257  18.819   3.241  12.154 -0.1073 -0.1121  0.0787
27364W        W43258  14.833   9.000   3.906  0.2423 -0.2165 -0.1811
27365W        W43259   6.852  13.432  11.392  0.0793  0.0878  0.0816
27366W        W43260  15.008  10.545  13.357 -0.2064 -0.0716  0.2826
27367W        W43261   7.424  18.802   2.410  0.3910 -0.0591  0.6721
27368W        W43262   5.037  13.526  15.162 -0.2135  0.2139  0.3997
27369W        W43263   8.595   2.275  12.068  0.0553 -0.0006  0.0613
27370W        W43264   7.880   6.770  13.478 -0.0232  0.2836 -0.1380
27371W        W43265  13.323   1.945  14.541  0.2003  0.0454  0.1669
27372W        W43266  11.541  11.380  14.464 -0.0763  0.4693  0.2899
27373W        W43267   3.010  15.228   0.779  0.0736  0.0164 -0.0026
27374W        W43268   7.789  14.595  10.734 -0.0624  0.0960  0.0277
27375W        W43269  16.521  11.049  13.914  0.1669  0.4221  0.2470
27376W        W43270   0.757  19.020   2.829  0.2319  0.0689 -0.0480
27377W        W43271  18.942  13.731  12.856 -0.1495 -0.0265 -0.2473
27378W        W43272  13.839   0.221  12.038 -0.1576  0.0495 -0.2131
27379W        W43273   4.537  11.860  14.400 -0.0156 -0.1085 -0.1575
27380W        W43274  14.732   2.635   1.802 -0.4657 -0.2191  0.2871
27381W        W43275  13.344   3.791   2.332  0.2771 -0.1219 -0.4173
27382W        W43276   6.319  12.903  14.793 -0.0690 -0.0919  0.1784
27383W        W43277  15.231   0.119   4.897  0.1570 -0.1303  0.2301
27384W        W43278   2.243   3.877   0.136 -0.2510 -0.3962  0.2870
27385W        W43279   8.464   3.209   4.568  0.1946 -0.0538  0.0175
27386W        W43280   4.104   7.329  14.323 -0.1571 -0.1489 -0.2120
27387W        W43281   0.642   0.149   2.086  0.0970  0.4537  0.2848
27388W        W43282   8.675   7.389  15.096 -0.1107 -0.0204 -0.2877
27389W        W43283  17.657   7.908   2.068 -0.2514 -0.1574  0.1104
27390W        W43284  10.826  15.006   0.610  0.0667 -0.0697  0.2437
27391W        W43285  16.009   2.139  11.184  0.1507 -0.0755  0.3108
27392W        W43286   5.631   2.981   2.318  0.2519  0.2919  0.0713
27393W        W43287  11.448  16.893  12.246 -0.0908  0.2233 -0.2466
27394W        W43288  17.479   3.983  13.316 -0.0895 -0.1968 -0.2626
27395W        W43289   8.555   0.535   0.138  0.1561 -0.0166  0.6636
27396W        W43290   1.338  10.577   0.196 -0.0800 -0.1023 -0.2070
27397W        W43291  18.253  15.610   0.028 -0.1321 -0.0540  0.2468
27398W        W43292  12.947   2.753   1.619 -0.0388  0.1061 -0.2185
27399W        W43293  10.719  16.612  13.077 -0.0071 -0.0331  0.2218
27400W        W43294   4.516   4.805  11.925 -0.1456 -0.0404  0.0594
27401W        W43295   5.237   0.200   4.783 -0.3347 -0.1583 -0.2724
27402W        W43296   1.969   5.181   2.729  0.0741  0.0614  0.2333
27403W        W43297   6.897  10.184   5.193  0.1521 -0.0423 -0.1632
27404W        W43298  11.818   2.999   4.661  0.0748  0.0251 -0.2575
27405W        W43299  10.288   6.530  11.989  0.1123  0.2054  0.0164
27406W        W43300   5.312  14.661   3.976 -0.1894 -0.0505  0.0618
27407W        W43301   7.683  15.548   4.046  0.0617 -0.2222 -0.4062
27408W        W43302  14.147   5.388  14.575  0.0462 -0.0473  0.1884
27409W        W43303  12.054   5.224   0.498  0.3464 -0.2104  0.2994
27410W        W43304   2.538  18.043  13.748  0.1021  0.0029  0.0144
27411W        W43305  12.952   1.780   3.003 -0.1720 -0.1807  0.2770
27412W        W43306   9.728   6.593  13.111 -0.0651 -0.0247 -0.0178
27413W        W43307  10.326   5.187   5.614 -0.0024  0.0384  0.0912
27414W        W43308   5.132  18.661  10.843 -0.1996 -0.3193  0.0116
27415W        W43309   4.996   6.800   2.897  0.2900 -0.1654  0.0909
27416W        W43310   3.981  12.452   2.627 -0.0423 -0.0649  0.3766
27417W        W43311   1.555  12.034  12.044 -0.0156 -0.1346  0.0219
27418W        W43312  11.325  17.473   0.768  0.2112 -0.0392 -0.1793
27419W        W43313  12.798   6.896  10.593  0.2132  0.3365 -0.0960
27420W        W43314  17.268  15.786   2.745  0.0326 -0.1634 -0.2000
27421W        W43315  14.861  12.343   2.012  0.2607  0.1436  0.1631
27422W        W43316   0.353   8.238   3.687  0.0161 -0.0925  0.0063
27423W        W43317  11.166   5.836  11.981 -0.0737  0.0713  0.1007
27424W        W43318  16.965  15.837  13.409  0.0857  0.0177 -0.1029
27425W        W43319   8.795   9.101   3.747 -0.2373  0.2066  0.0031
27426W        W43320  10.434  17.217  10.123  0.1640 -0.0915 -0.0679
27427W        W43321   1.402  18.770   3.981 -0.1802  0.1574 -0.0480
27428W        W43322   4.040  19.136  10.267  0.3122  0.0592 -0.2590
27429W        W43323   4.167  12.905  13.539  0.2317 -0.2349 -0.0266
27430W        W43324   6.824   5.684  14.815 -0.1851 -0.1106  0.1568
27431W        W43325  10.189  18.100   0.895 -0.3773 -0.0139 -0.2223
27432W        W43326   6.844  13.705   1.707 -0.1496  0.1180  0.0020
27433W        W43327  10.178  15.561   0.468  0.2220  0.1806  0.3986
27434W        W43328  18.428   8.852  14.361  0.0730  0.1090 -0.3044
27435W        W43329  13.374   6.507  11.949  0.2825 -0.2797 -0.3230
27436W        W43330  17.762  14.498  11.546  0.1086 -0.3784  0.2902
27437W        W43331   6.522  16.222   0.121 -0.1999  0.0290 -0.0168
27438W        W43332  12.292  17.224  11.261 -0.1611  0.0404  0.0144
27439W        W43333   4.730  19.009   0.493 -0.1776  0.2049 -0.0601
27440W        W43334   2.836  10.341   4.392  0.2785 -0.1036 -0.1032
27441W        W43335   3.714   3.932   4.114 -0.1907 -0.4126 -0.1699
27442W        W43336  12.272  16.339   0.924 -0.1990  0.1347  0.2455
27443W        W43337  14.210  16.898   0.610  0.0053 -0.1200 -0.0552
27444W        W43338  16.187   7.139  14.530  0.0849  0.1370 -0.0179
27445W        W43339   0.855  16.536   3.875 -0.3213  0.1317  0.0122
27446W        W43340   7.667  11.640   0.756 -0.0100  0.2061  0.3911
27447W        W43341   1.698  18.429   2.929  0.0015 -0.2707 -0.1872
27448W        W43342   5.788   7.838   1.104  0.1132 -0.4206  0.3640
27449W        W43343   4.373   0.083   4.024 -0.0247 -0.0633  0.4028
27450W        W43344   9.083  17.547   2.337  0.2363 -0.0482  0.0610
27451W        W43345   9.475  12.236   4.408 -0.2239 -0.2519  0.0593
27452W        W43346   6.180   9.948   3.974  0.0224 -0.0374 -0.1208
27453W        W43347  15.793   2.158   0.092 -0.0857 -0.0131  0.1476
27454W        W43348  10.694   5.457  13.395 -0.0115  0.0029  0.0268
27455W        W43349  11.816  15.686  11.449 -0.0550  0.0002  0.0479
27456W        W43350   7.546  12.853  12.405  0.1944 -0.0959  0.0403
27457W        W43351   4.821   8.759  11.579  0.1268 -0.4701 -0.1305
27458W        W43352  13.045  16.638  15.056  0.0947  0.0416 -0.3551
27459W        W43353  15.035  18.005  10.834 -0.2029 -0.0413  0.1352
27460W        W43354  15.472   8.362   0.285 -0.1786  0.0704 -0.0030
27461W        W43355   0.559  13.213   3.036  0.1135 -0.1769 -0.2450
27462W        W43356   5.079  10.654   2.780 -0.1806 -0.1366  0.1163
27463W        W43357  15.830  16.256  11.589  0.4458 -0.0675 -0.3352
27464W        W43358  17.245  10.113   4.402  0.1628 -0.2241 -0.0158
27465W        W43359  18.925   3.469  11.065 -0.0997  0.0507 -0.3574
27466W        W43360   5.884  10.948  13.618 -0.2236  0.3137 -0.1118
27467W        W43361   1.306  10.749  12.104 -0.1903 -0.0186  0.1505
27468W        W43362  14.604  18.471  15.099  0.0078 -0.1229 -0.3430
27469W        W43363   7.377  18.276  11.353 -0.1075 -0.1482  0.4215
27470W        W43364   3.347   8.037  12.954 -0.1669  0.2408  0.3036
27471W        W43365  14.829  16.845  11.993 -0.3845  0.1492  0.1814
27472W        W43366   9.576   1.251  13.311 -0.1625 -0.0172 -0.0704
27473W        W43367   5.005   4.339  12.414 -0.0614 -0.0722 -0.1591
27474W        W43368   9.504   5.279   0.251 -0.3324  0.0841  0.2038
27475W        W43369  10.025   4.949  12.165  0.4344  0.1817 -0.2706
27476W        W43370  10.098   3.108   2.989  0.1608  0.0992 -0.1504
27477W        W43371   7.252   7.191  14.262 -0.0427 -0.3333 -0.0508
27478W        W43372  14.449  14.817  10.297 -0.0153 -0.3349 -0.5131
27479W        W43373  13.274   8.760  11.453 -0.1124  0.4158 -0.1164
27480W        W43374  10.422   6.648  14.618 -0.0750  0.0543  0.0259
27481W        W43375  15.870   9.336   4.874 -0.1322  0.1417  0.1991
27482W        W43376   8.306   2.029   0.579  0.0979  0.1463  0.0914
27483W        W43377   4.025   9.345  10.172 -0.1432 -0.0400 -0.0540
27484W        W43378   2.268   1.137  11.483  0.0505  0.0434 -0.0000
27485W        W43379  13.723  11.557  12.794 -0.1079  0.2095 -0.4354
27486W        W43380  10.482  16.754  12.582  0.2482 -0.1900  0.1234
27487W        W43381  17.651  18.862   4.034  0.0465  0.1540 -0.5366
27488W        W43382  12.360   3.990   3.775 -0.0408 -0.0554 -0.1523
27489W        W43383   9.508  10.027  10.124 -0.1120 -0.1244 -0.1225
27490W        W43384  10.016   5.348   2.276  0.0658  0.2576  0.0096
27491W        W43385   6.883   7.425  11.661 -0.1329 -0.1472  0.1794
27492W        W43386  15.591  16.702  11.686  0.1396 -0.0846  0.2545
27493W        W43387   3.064  12.452  15.029  0.0854  0.1795 -0.0626
27494W        W43388  11.153  13.249   0.527 -0.0362 -0.0339 -0.2426
27495W        W43389   7.615   4.988  12.884 -0.1749 -0.0636 -0.1948
27496W        W43390  15.775  17.267  11.668  0.3410 -0.0332 -0.1005
27497W        W43391   9.521   0.430   3.996  0.2539 -0.5532 -0.3181
27498W        W43392  10.516   5.275  11.222  0.1564  0.1258  0.2858
27499W        W43393  13.879   1.343   3.000  0.0343  0.1427  0.0053
27500W        W43394  12.371  12.893  15.144 -0.0408 -0.1565  0.2812
27501W        W43395  15.978   4.979   3.124  0.0446 -0.0143  0.2638
27502W        W43396  14.618  12.418  13.438  0.0878  0.1213 -0.0498
27503W        W43397  13.576  15.789  12.957 -0.1047 -0.1709 -0.0856
27504W        W43398   5.424  11.023  13.810  0.1877 -0.1467 -0.1891
27505W        W43399   5.175   6.866   3.757 -0.0047  0.0503  0.2520
27506W        W43400  13.166  15.366  11.845 -0.0835  0.0047  0.0801
27507W        W43401   2.221   9.604   1.459  0.0516  0.2017 -0.2088
27508W        W43402   7.872  13.771  10.831 -0.3863  0.0087  0.4392
27509W        W43403   6.326   8.875   2.812  0.0124 -0.2178 -0.0379
27510W        W43404   0.408  16.630  15.001 -0.1271  0.1665  0.1126
27511W        W43405  15.105  16.812   1.302 -0.1039  0.2890 -0.1846
27512W        W43406   4.978   0.560  12.970  0.0651  0.2143  0.1752
27513W        W43407  14.002  18.635   4.184  0.1664  0.0226  0.2444
27514W        W43408  15.310  12.859  10.171 -0.4990  0.2053 -0.0787
27515W        W43409   2.184   8.864  14.519  0.2576  0.1183  0.2130
27516W        W43410   4.174   7.119   3.802 -0.2934 -0.0621 -0.1488
27517W        W43411   7.586   9.393  14.835 -0.0898 -0.3532 -0.3021
27518W        W43412  15.342   2.553  10.965 -0.2208  0.0486 -0.0261
27519W        W43413  18.525  17.354   3.531 -0.2582  0.4090 -0.1377
27520W        W43414   6.430  11.123   4.264  0.0897  0.0780 -0.2243
27521W        W43415  18.743   6.606  11.569  0.3629  0.0008  0.2850
27522W        W43416  10.400  15.688   1.877 -0.2217 -0.0417  0.1042
27523W        W43417  15.101  16.364  11.222  0.0996 -0.2968  0.0007
27524W        W43418  15.576   5.166   5.434 -0.5029 -0.1552  0.1933
27525W        W43419  19.183  18.799  14.497  0.1762  0.1508 -0.1473
27526W        W43420   8.801   5.615  13.410 -0.2389 -0.3150  0.0205
27527W        W43421   1.930  14.330   5.675 -0.3233  0.1061 -0.0047
27528W        W43422  14.128   3.884  11.243 -0.3098 -0.0426 -0.0141
27529W        W43423  17.316  11.078   2.150  0.0523 -0.0963  0.0353
27530W        W43424  16.064   6.305  10.273 -0.2444  0.5959 -0.0456
27531W        W43425  14.113  16.728   3.363  0.2511  0.3521  0.2129
27532W        W43426  12.446   3.961  13.020  0.1984 -0.0623 -0.2806
27533W        W43427   3.745   9.600  14.694  0.1988  0.0213 -0.4019
27534W        W43428  15.287  14.936   4.930 -0.4206 -0.1166 -0.3343
27535W        W43429  14.543   6.044   6.221 -0.2496 -0.0986  0.2207
27536W        W43430   3.265  17.842   1.220 -0.0242  0.0130 -0.1164
27537W        W43431   9.951  11.616  11.980  0.1732 -0.0694 -0.3408
27538W        W43432  15.473  10.347   0.921  0.1033 -0.0950  0.2210
27539W        W43433   8.851   4.932   3.187 -0.0032 -0.2759  0.1440
27540W        W43434   6.700   5.356   0.884 -0.0058 -0.1694  0.1646
27541W        W43435  15.315  10.615   2.051  0.2447  0.3315 -0.0472
27542W        W43436   2.133   6.502   1.904  0.0373 -0.0103  0.1155
27543W        W43437   0.629  12.261   0.190 -0.1567  0.3123 -0.0907
27544W        W43438   5.398  10.497  13.695  0.0036 -0.1888  0.0009
27545W        W43439   9.949   8.005  12.780  0.1586 -0.0796 -0.0241
27546W        W43440  10.990  17.362  13.567  0.0562 -0.1726  0.0477
27547W        W43441   8.885  15.915   3.014 -0.2553 -0.1506  0.2295
27548W        W43442   0.206   3.340   3.700 -0.1157  0.0622  0.0457
27549W        W43443   9.396  16.136  12.197 -0.0650 -0.1622 -0.1467
27550W        W43444   0.760   1.480   9.753 -0.2484  0.5230  0.0254
27551W        W43445  12.320   8.540  14.894  0.2126  0.0449  0.1328
27552W        W43446   9.477   3.069  11.092 -0.2986  0.3339  0.1109
27553W        W43447   8.366   3.648  14.424  0.0128 -0.1737 -0.1079
27554W        W43448   9.043   7.451   2.082  0.5077  0.0470  0.2351
27555W        W43449  18.440   5.504  14.241 -0.0038  0.0818  0.4059
27556W        W43450  13.679   2.840  12.011  0.1795  0.1515  0.0913
27557W        W43451  16.367   8.200  11.769  0.3434  0.1376 -0.4051
27558W        W43452  11.812  11.525   3.677 -0.3859  0.0174  0.3214
27559W        W43453  18.828  13.645   1.878  0.0750 -0.0083 -0.1656
27560W        W43454  12.797   4.357  14.281  0.3464  0.1985 -0.3525
27561W        W43455  14.849  13.104   0.528  0.2860 -0.1682 -0.4539
27562W        W43456  11.346   5.201  11.909 -0.0516  0.0606  0.0805
27563W        W43457   0.590   1.206  13.231  0.2696  0.1547 -0.1202
27564W        W43458  14.579   0.631   5.921  0.0887 -0.0838  0.0145
27565W        W43459   7.669  17.975   2.110 -0.0368 -0.1656  0.3844
27566W        W43460  16.457   2.926   0.931  0.1576 -0.1451 -0.2401
27567W        W43461  11.958  15.511   1.049 -0.1060 -0.0360  0.2968
27568W        W43462   2.144   2.150  12.207  0.3215 -0.2606 -0.0358
27569W        W43463  14.508   6.963  12.583 -0.0115  0.2925 -0.0716
27570W        W43464  18.611  14.775  13.674  0.1594  0.1569 -0.1665
27571W        W43465   6.097  12.250  10.996  0.1085  0.2219  0.2095
27572W        W43466   1.817  15.263   0.651  0.1480  0.3558  0.2920
27573W        W43467  17.202   8.466  11.862  0.1695  0.0060 -0.1221
27574W        W43468  18.356   9.614  11.402  0.2997  0.1535 -0.2628
27575W        W43469  10.861   1.825  12.101 -0.3116  0.2189 -0.1322
27576W        W43470   1.977  18.083  13.861  0.0869  0.1904  0.3754
27577W        W43471  18.338   6.132   1.090 -0.1977 -0.0416  0.0444
27578W        W43472  13.170   1.351  11.966  0.1640 -0.1074 -0.1985
27579W        W43473   4.091   2.058   4.706  0.0040  0.0925 -0.0638
27580W        W43474   9.368  15.244  11.761  0.0824 -0.0483  0.1857
27581W        W43475  13.837   5.327   4.761  0.0007  0.1793 -0.4179
27582W        W43476   8.846  17.874  11.634  0.2309  0.0604 -0.0653
27583W        W43477  14.246  13.204   5.020 -0.1182  0.2079 -0.0136
27584W        W43478  15.867  16.269   0.219 -0.2686  0.0783 -0.1468
27585W        W43479   9.581   8.715   0.048 -0.3757  0.1236 -0.0402
27586W        W43480  17.468   9.333   2.958 -0.0093 -0.1659  0.2385
27587W        W43481  14.939   4.092   0.027  0.2375  0.1195 -0.0746
27588W        W43482   5.717  12.349  12.808  0.0976  0.1491 -0.3098
27589W        W43483  13.755  14.360  13.975  0.2012  0.0097 -0.0660
27590W        W43484  13.010   4.407   9.857 -0.0863  0.2454  0.0170
27591W        W43485  13.555   6.356   4.282 -0.1329 -0.2660 -0.1455
27592W        W43486   5.718  11.553  11.380  0.4076 -0.1392 -0.4202
27593W        W43487   3.017  10.427   2.824 -0.1447 -0.0556 -0.0720
27594W        W43488  15.909  18.153   2.818 -0.2541  0.2825 -0.0345
27595W        W43489  16.531   9.923   1.888  0.1025 -0.1109 -0.0302
27596W        W43490  17.321   0.709   3.788  0.0784  0.3540  0.1527
27597W        W43491  12.260  12.572  12.660 -0.1953  0.0365 -0.2680
27598W        W43492  17.009  18.708   1.263  0.0826 -0.3016 -0.0171
27599W        W43493   4.296  18.069   2.155 -0.1180 -0.0462 -0.2080
27600W        W43494  10.404  15.268  13.203  0.1792 -0.1112  0.4460
27601W        W43495  17.409  17.009  12.649 -0.0538  0.1353  0.2907
27602W        W43496  11.044   3.396  12.130  0.0218 -0.1679 -0.0433
27603W        W43497   0.204   0.280   3.500  0.1103  0.2304 -0.2288
27604W        W43498   9.196   7.806   0.452 -0.0314  0.3214 -0.2946
27605W        W43499   6.864  17.494   1.079  0.1644 -0.1542  0.0730
27606W        W43500  12.896  11.016  11.222 -0.1327 -0.5001 -0.0502
27607W        W43501   0.821   6.289  11.618 -0.0952 -0.0287  0.0218
27608W        W43502  11.662   2.625  13.478 -0.0789  0.2353  0.4087
27609W        W43503  16.305  12.271   4.459  0.1634 -0.3915 -0.3200
27610W        W43504   7.750   7.208   0.348 -0.2032  0.0073  0.1215
27611W        W43505  15.635   4.222   3.154  0.1360 -0.0540 -0.0650
27612W        W43506   0.405  10.010   0.765 -0.1272  0.1786  0.1303
27613W        W43507   1.867   3.331  11.716 -0.1593 -0.0516  0.0633
27614W        W43508  16.540  11.963   4.161  0.1810  0.0196 -0.2487
27615W        W43509   6.955  11.003  10.783  0.0105  0.0464  0.2072
27616W        W43510  17.545   2.133  11.153 -0.0396 -0.1563 -0.2074
27617W        W43511   6.971  13.611   3.643 -0.2882  0.1546  0.0424
27618W        W43512  17.761   0.288   2.668 -0.0449  0.2034  0.2474
27619W        W43513   2.321  10.053   0.690  0.1787 -0.2544  0.3325
27620W        W43514  17.371  13.422  11.552 -0.1519 -0.2194 -0.1122
27621W        W43515   0.713   1.126   1.372  0.2497 -0.2284 -0.2734
27622W        W43516   9.908   3.606  11.941  0.0294 -0.0705  0.3536
27623W        W43517   5.544  10.120  10.231  0.2266 -0.0889 -0.0023
27624W        W43518  12.152   7.688   3.034  0.1600 -0.4187 -0.0281
27625W        W43519  17.792  17.054  14.507  0.1224 -0.1692  0.0137
27626W        W43520   8.027   2.715   4.720 -0.0567 -0.0865 -0.0056
27627W        W43521  17.741  18.438  12.297  0.0520 -0.1379  0.1404
27628W        W43522   3.226  18.574  11.552  0.0815 -0.0617  0.3102
27629W        W43523   0.276  13.939   4.285  0.4107 -0.2400 -0.2100
27630W        W43524  13.308   2.395   1.546  0.3765  0.1802  0.0707
27631W        W43525   8.563  18.988   4.605  0.1530  0.2502 -0.1532
27632W        W43526   3.446  11.443   2.561 -0.0646  0.2501 -0.2739
27633W        W43527  13.537  17.819  12.702  0.1035 -0.0728 -0.0937
27634W        W43528   9.260  15.401  14.954 -0.0560  0.1333 -0.0522
27635W        W43529  10.242   8.330   1.432  0.0067  0.0970  0.0608
27636W        W43530   9.881   5.746   5.007 -0.2288  0.1532  0.2463
27637W        W43531  17.298   7.160   2.557  0.1246 -0.0554 -0.3681
27638W        W43532   3.784  17.649  13.268  0.0432  0.3091 -0.1285
27639W        W43533  13.125   6.466   2.407 -0.0809  0.1278 -0.1148
27640W        W43534  18.933   7.180   0.528 -0.6474  0.2375  0.0433
27641W        W43535   7.105  15.441   5.497  0.1572 -0.1169  0.0610
27642W        W43536   1.657   1.795   0.031  0.1527 -0.0387 -0.3559
27643W        W43537  16.378  11.824   0.471 -0.2685  0.1058  0.2325
27644W        W43538  11.193   6.388  11.980 -0.1631 -0.0403  0.1591
27645W        W43539   1.827   8.639  13.859  0.3042 -0.0552  0.0447
27646W        W43540   1.665   2.753  14.890  0.3297  0.4139 -0.1725
27647W        W43541   7.674  14.064   0.063 -0.1445  0.2381 -0.0544
27648W        W43542   1.268   6.256  11.203 -0.0760  0.1139  0.0336
27649W        W43543  18.332  15.202   2.661  0.0889  0.0228 -0.0045
27650W        W43544   0.572  16.685   1.326  0.1136  0.0556  0.0062
27651W        W43545  15.610  16.240   1.889  0.3107 -0.1693  0.1995
27652W        W43546  11.467  11.725   5.009  0.0264 -0.0792 -0.2943
27653W        W43547   0.758   9.421   2.937 -0.0677  0.0452  0.2443
27654W        W43548  12.164  13.591   0.661  0.3278 -0.0188 -0.0169
27655W        W43549   8.211   1.772  11.346  0.2141  0.0453  0.3148
27656W        W43550   8.632   5.192   2.272  0.0520 -0.4346 -0.2799
27657W        W43551  15.821  17.809  12.228 -0.5548 -0.0724  0.2192
27658W        W43552   6.636   2.685   0.815 -0.0588 -0.0348  0.3881
27659W        W43553   6.990  12.787  13.704  0.0271 -0.0560  0.0443
27660W        W43554  12.855  17.783   1.212 -0.0570 -0.5493  0.1330
27661W        W43555  11.627  18.711  10.049 -0.1021 -0.0447  0.0645
27662W        W43556   7.640   1.462   0.114 -0.1970 -0.1514  0.1644
27663W        W43557  17.069  17.774  11.389 -0.0462  0.0165  0.0025
27664W        W43558   9.659  12.805  13.913  0.1814 -0.1720 -0.1202
27665W        W43559  17.472   0.725  12.272  0.1144  0.2106 -0.1775
27666W        W43560   0.897  13.003  13.569  0.6283  0.3259  0.0145
27667W        W43561  16.875   4.602   2.187  0.0568  0.1348  0.2006
27668W        W43562   5.823  12.583   4.670 -0.0014  0.1387  0.1604
27669W        W43563   7.478   0.211   3.481 -0.4893  0.2468 -0.0962
27670W        W43564  18.946   8.559   1.704 -0.0337 -0.1596 -0.1423
27671W        W43565  15.070  11.835  12.646 -0.0799  0.0048 -0.2393
27672W        W43566  17.934  16.431  10.922 -0.0108  0.2303 -0.3334
27673W        W43567   8.151  15.907  14.944  0.1316 -0.1546 -0.2200
27674W        W43568   9.373   2.053   3.112  0.1033 -0.1719 -0.0238
27675W        W43569  17.259   2.039   3.738  0.0636  0.2093  0.3120
27676W        W43570   0.949  13.534   1.732 -0.1162 -0.0091 -0.4813
27677W        W43571  14.501   6.962   2.640 -0.1679  0.0176 -0.0060
27678W        W43572  15.417   7.825   6.037 -0.2106 -0.0838  0.1428
27679W        W43573   6.211  10.049  11.765 -0.1482 -0.3659 -0.1482
27680W        W43574   4.508   7.901  13.459 -0.3945 -0.0608  0.0347
27681W        W43575   8.080   9.433  12.022 -0.2901 -0.4644  0.1098
27682W        W43576  13.580   0.767   1.293 -0.1558 -0.0114  0.1204
27683W        W43577   7.381  10.544   4.127 -0.2187  0.0192  0.1714
27684W        W43578   7.532   8.985   9.891 -0.2657  0.2072 -0.0450
27685W        W43579   2.125   6.665  12.298  0.1030 -0.0352  0.0245
27686W        W43580   7.197   7.998  11.173  0.0107 -0.0445  0.1586
27687W        W43581   8.933  11.167  15.170  0.2292 -0.3097  0.0853
27688W        W43582   7.141  15.421   0.663 -0.2857  0.6408  0.2089
27689W        W43583   1.877  17.890   2.762 -0.1746  0.0371  0.1932
27690W        W43584  17.960  17.179   5.330 -0.1759  0.0070  0.0038
27691W        W43585  13.338  13.293   0.162 -0.3378 -0.0282 -0.1869
27692W        W43586   3.501   9.635   4.328  0.2795  0.0726  0.1194
27693W        W43587  12.880   3.876   5.662 -0.2606  0.1549  0.1607
27694W        W43588   3.574   5.331  10.422  0.0127  0.0358  0.1573
27695W        W43589   0.742   9.189   2.471 -0.1854  0.1255  0.2975
27696W        W43590  11.974   9.295  13.469 -0.0664  0.2407 -0.1239
27697W        W43591   2.345  12.869   2.310  0.1333  0.2958 -0.4155
27698W        W43592   0.860   8.717  10.898 -0.2791  0.4099  0.0415
27699W        W43593  15.884   6.155  12.668 -0.2821  0.2977  0.1467
27700W        W43594   3.175  15.767   5.624  0.1023 -0.2077  0.1207
27701W        W43595  18.693  11.094   4.439 -0.0967 -0.0660 -0.2251
27702W        W43596   6.014  16.825   4.809  0.2016  0.0591 -0.1365
27703W        W43597   4.026   4.840  11.952  0.0124  0.3861 -0.0517
27704W        W43598  17.615   1.117  11.025  0.2624  0.0305 -0.1037
27705W        W43599  18.203  15.261  12.388  0.2194  0.0772  0.1743
27706W        W43600  11.667  16.310  12.094 -0.1401  0.0772  0.5221
27707W        W43601  16.233   8.908   0.181  0.2824 -0.1606 -0.0565
27708W        W43602  11.625   0.780   2.843 -0.2443  0.1919 -0.1032
27709W        W43603   9.108  17.272  12.129  0.2027 -0.0936  0.1115
27710W        W43604   9.474   8.412   2.670 -0.0618 -0.1298  0.1040
27711W        W43605  10.505   5.365   3.138 -0.3127  0.2312 -0.2293
27712W        W43606  17.506   1.422  14.283 -0.4380  0.2267 -0.0304
27713W        W43607   8.824  17.626   1.854  0.1777  0.0108  0.0931
27714W        W43608  14.750   0.034  11.935  0.0098 -0.2004 -0.0872
27715W        W43609  11.670   2.513   2.268 -0.0659  0.1079 -0.2140
27716W        W43610   8.896   2.514   1.740 -0.4031 -0.1195 -0.2330
27717W        W43611   2.295  11.991   3.367 -0.1277 -0.2251 -0.2920
27718W        W43612   2.731   6.558   4.357  0.1266  0.1351  0.0076
27719W        W43613  10.788  12.781  15.104  0.1253  0.0191 -0.3393
27720W        W43614  15.866  16.027   4.755 -0.0796  0.4322 -0.2933
27721W        W43615  12.126  18.321   3.482  0.3461  0.0214 -0.1900
27722W        W43616  12.296   5.561  10.946  0.1824 -0.1341  0.0018
27723W        W43617   5.691  15.208  11.660  0.0550 -0.1437  0.0888
27724W        W43618  11.221  12.020   3.060  0.1660  0.0590  0.0113
27725W        W43619  11.251  11.284   5.391  0.1560 -0.1544  0.0683
27726W        W43620   5.643  15.615   5.487 -0.0519  0.2943 -0.1868
27727W        W43621   7.512   9.856   4.816  0.1764 -0.1166 -0.0254
27728W        W43622   8.915  10.201  10.184  0.1224  0.0249  0.1306
27729W        W43623   0.250  10.958  12.204 -0.1070  0.2226 -0.0106
27730W        W43624   6.328  14.937   4.125  0.0287 -0.1248 -0.0595
27731W        W43625  18.579  18.780  13.741  0.3211 -0.2766  0.1666
27732W        W43626  13.537  15.469   0.012  0.2239  0.2511 -0.0615
27733W        W43627  14.893   2.824  14.368 -0.1217 -0.1991  0.1342
27734W        W43628   0.807   7.620  10.843  0.1180  0.2141 -0.2881
27735W        W43629   7.286  12.855   5.285 -0.0334 -0.0746  0.0074
27736W        W43630   0.011   8.429  14.850 -0.0762 -0.2210 -0.0124
27737W        W43631   7.273   4.226   5.055 -0.0153 -0.3217  0.0372
27738W        W43632   9.046   1.478   2.519  0.1189 -0.1641  0.0112
27739W        W43633   0.149  12.962   4.767  0.2915 -0.1231  0.1681
27740W        W43634  14.663   8.758  12.759  0.0097 -0.0780 -0.0043
27741W        W43635  12.494  11.346   3.928  0.2806 -0.0048 -0.0583
27742W        W43636  14.001  14.784  10.540  0.1327 -0.2337 -0.3097
27743W        W43637  13.132  17.465  12.801  0.3550  0.0922  0.1720
27744W        W43638   2.559   5.202   2.626  0.1677  0.0678 -0.3684
27745W        W43639   1.650   8.617  12.610 -0.1597  0.2521  0.3187
27746W        W43640   7.133   4.815   0.494 -0.0936 -0.1261  0.0708
27747W        W43641   4.756   7.758   1.875 -0.0071  0.2524  0.0009
27748W        W43642   9.643   9.626   3.701 -0.1044  0.2865 -0.1141
27749W        W43643   9.345  14.661  14.185  0.0006 -0.1358 -0.0065
27750W        W43644   9.016  18.497   1.386  0.2106  0.0166  0.2358
27751W        W43645   8.902  18.789  13.025 -0.3171  0.2614  0.0945
27752W        W43646  16.074  12.587  13.727 -0.0170  0.0852  0.0841
27753W        W43647  12.519   2.426   5.234 -0.0802 -0.0040 -0.3152
27754W        W43648   5.706  12.671   2.797 -0.1958  0.1020 -0.0755
27755W        W43649  10.649   9.534   0.805  0.0674  0.2983 -0.2019
27756W        W43650   7.606  15.730   0.912 -0.3963  0.2951 -0.2393
27757W        W43651  11.858  10.706  13.266  0.5082  0.0550 -0.2154
27758W        W43652   4.803  19.141   4.593 -0.1077  0.0088  0.0682
27759W        W43653  16.330   3.879  10.052 -0.0915  0.3755  0.4099
27760W        W43654   9.753   3.668   0.928  0.3108  0.2176 -0.0097
27761W        W43655  12.144   2.737   2.219  0.0120 -0.0148 -0.0634
27762W        W43656  11.489  17.020  13.600 -0.4708  0.0587  0.3412
27763W        W43657  16.551   6.409  14.349 -0.3842  0.0283  0.0878
27764W        W43658   1.732  16.444   0.148 -0.2154  0.0948  0.2675
27765W        W43659   4.399   3.216   4.272 -0.0751 -0.4941  0.2655
27766W        W43660  17.757   4.049  11.989  0.1313 -0.2484 -0.1128
27767W        W43661  10.503   0.917   3.869 -0.2791 -0.1044  0.2410
27768W        W43662  17.112   1.349   1.522 -0.0321  0.1669  0.0698
27769W        W43663   6.410   1.784  11.232 -0.3010  0.0824 -0.4974
27770W        W43664   0.064   4.247  15.074 -0.0393 -0.0183 -0.0803
27771W        W43665   3.693  15.148   5.217 -0.1327  0.3527  0.1237
27772W        W43666   9.054  10.446   4.696 -0.1228  0.2370 -0.0954
27773W        W43667  10.977   4.630  11.212 -0.1476 -0.2639 -0.1100
27774W        W43668  17.934  11.093  13.977 -0.1105 -0.3535 -0.2064
27775W        W43669  13.316   9.026   2.082 -0.0867  0.3363  0.0041
27776W        W43670   2.248  10.772  12.872  0.1062  0.0424  0.1355
27777W        W43671  14.067  18.780   2.183 -0.1692 -0.4871 -0.2141
27778W        W43672   1.114  11.221  14.123  0.5504  0.3389  0.0679
27779W        W43673   3.109  17.334   3.710  0.2405  0.0601 -0.1824
27780W        W43674  17.863  12.132   0.607  0.1164 -0.0054  0.2022
27781W        W43675   1.829   6.427  11.435  0.0684  0.1294  0.4325
27782W        W43676   6.937  10.079  10.975 -0.1784 -0.0385  0.2283
27783W        W43677  13.948   5.812  12.847 -0.1127  0.2890  0.1241
27784W        W43678  17.442   7.734   2.686 -0.1411 -0.2191 -0.1014
27785W        W43679  18.299   8.005   4.539  0.0062 -0.0095 -0.2331
27786W        W43680   8.583  13.461  11.481  0.3701  0.1187 -0.0264
27787W        W43681   3.767   3.316  10.477 -0.0129  0.0577 -0.2296
27788W        W43682   0.543  17.878  13.513 -0.1124 -0.0598 -0.0784
27789W        W43683   3.022  16.647  14.861  0.1353  0.1990 -0.1652
27790W        W43684  14.688  14.495   3.979  0.2634  0.2375  0.1010
27791W        W43685  12.708   0.680  13.951 -0.0188 -0.2498  0.0821
27792W        W43686   7.908   4.322   4.953  0.2147 -0.2412 -0.1394
27793W        W43687   1.697   9.036   5.023  0.1332 -0.0231 -0.2939
27794W        W43688  17.184   9.069  11.128  0.0267  0.1476  0.1099
27795W        W43689  16.460   3.745   4.348 -0.5726  0.1057 -0.3153
27796W        W43690   3.018   1.029  13.445  0.1138 -0.1450  0.3980
27797W        W43691   3.905   5.678  10.544  0.0414  0.2328  0.1601
27798W        W43692   5.226  17.990   1.919  0.1281 -0.1319  0.2394
27799W        W43693  17.098   2.629  13.354  0.1342  0.0776 -0.2033
27800W        W43694   3.679   7.184  12.577  0.0770 -0.0719 -0.0349
27801W        W43695  10.192   3.623  14.184  0.2501  0.1537 -0.0426
27802W        W43696  16.222  16.182   5.157  0.1837  0.3899 -0.0535
27803W        W43697   3.110   1.524   9.827 -0.1564  0.4697  0.1310
27804W        W43698   1.681   2.315  13.493  0.1232 -0.3102  0.2316
27805W        W43699  14.015  12.523   1.713 -0.3130 -0.3175  0.2348
27806W        W43700  14.429  14.068  15.125 -0.3104  0.1580  0.1269
27807W        W43701  13.792  16.749   3.787 -0.1284  0.0020  0.2448
27808W        W43702  15.265  18.544   1.858  0.5635 -0.2253  0.1928
27809W        W43703  10.336  13.726   0.664 -0.3197  0.1373 -0.0168
27810W        W43704   3.022   9.200  10.514 -0.1130  0.1810 -0.0244
27811W        W43705   0.913   1.358   2.487  0.1958  0.1536  0.1147
27812W        W43706  13.798  14.077  14.363 -0.0867 -0.0219 -0.2326
27813W        W43707  16.257   4.288  14.647 -0.1650  0.1163 -0.0888
27814W        W43708   0.154  15.717  12.220  0.0238 -0.2866 -0.0685
27815W        W43709   5.840  18.250  13.031  0.1973  0.2557 -0.2576
27816W        W43710   3.342  19.141   5.016  0.1884  0.0232  0.0610
27817W        W43711   7.379  10.526  12.791  0.0213 -0.4598  0.1002
27818W        W43712  17.070   5.745   4.831  0.0734  0.0732  0.1220
27819W        W43713   4.933   6.103  12.137 -0.0826  0.1598 -0.3909
27820W        W43714   8.556  15.510  11.761  0.2135 -0.1580 -0.1888
27821W        W43715  12.176   4.751   0.705  0.1190  0.1534 -0.0529
27822W        W43716   1.690  12.699  12.711  0.1051 -0.2018  0.1364
27823W        W43717  16.865   8.931   1.762 -0.1858 -0.0131  0.0929
27824W        W43718  18.805  16.737   3.508 -0.0767 -0.2383 -0.0102
27825W        W43719   1.037   2.444  14.250  0.1273 -0.0637 -0.2340
27826W        W43720   4.383  10.456  12.859 -0.0199 -0.1582 -0.1223
27827W        W43721   9.834   4.374  13.747 -0.1070  0.0477  0.0379
27828W        W43722  17.794  11.642  11.830  0.2013 -0.3555  0.1403
27829W        W43723  15.501   0.208  14.387 -0.1792  0.0219 -0.0770
27830W        W43724   6.445  18.022  13.858  0.3096  0.0420  0.2899
27831W        W43725   0.299  16.249  14.178  0.1601  0.4102  0.0365
27832W        W43726  14.841   9.520   2.576 -0.2638 -0.1490  0.3868
27833W        W43727   1.856  12.310   1.556 -0.0896  0.1935  0.0017
27834W        W43728   6.885   6.271   3.613 -0.0386  0.2576  0.2908
27835W        W43729   9.328   8.989   0.367 -0.0508  0.1592 -0.0016
27836W        W43730  16.797  17.113   2.203  0.2282  0.2707 -0.1267
27837W        W43731   1.381  11.986   0.468  0.1495  0.2975 -0.4877
27838W        W43732  11.085   7.805  10.984  0.2134  0.3116  0.0748
27839W        W43733  16.832   3.133  13.373  0.3020 -0.4407 -0.1899
27840W        W43734   4.871   3.544   0.124  0.1992 -0.1202 -0.4169
27841W        W43735   6.027   6.855   0.771 -0.3217  0.1334 -0.1461
27842W        W43736  10.303   9.249   1.136 -0.1740 -0.1352  0.1975
27843W        W43737   0.114  18.958   1.068  0.1181  0.0699 -0.3587
27844W        W43738  10.909  12.984  10.304 -0.0202 -0.0849  0.2069
27845W        W43739  18.956   1.030  10.872 -0.1427 -0.0874  0.2652
27846W        W43740  13.136   0.122  10.932  0.0669  0.2869 -0.3986
27847W        W43741   8.339   7.504   1.475  0.0981 -0.0780 -0.1769
27848W        W43742   1.596   3.291  14.697  0.1394 -0.1159 -0.2541
27849W        W43743   5.354   2.050   0.102  0.0422  0.0004  0.4973
27850W        W43744   3.249   4.054   3.001  0.2740  0.0283 -0.0825
27851W        W43745   4.124  14.196   3.522 -0.1808  0.1124  0.2106
27852W        W43746   9.144  10.971   2.118  0.2001 -0.1280  0.1094
27853W        W43747  11.648  17.899  14.315 -0.2977  0.2044 -0.1161
27854W        W43748  17.211   9.034   0.953  0.3272  0.0806 -0.2108
27855W        W43749   0.138   7.193  11.500 -0.0771 -0.1782  0.0613
27856W        W43750   2.527  11.246  11.538 -0.0126  0.0546 -0.1693
27857W        W43751   0.000   4.373   1.583  0.0632 -0.1016  0.4962
27858W        W43752  13.836   9.814  12.433  0.1461 -0.0655  0.1503
27859W        W43753  14.997   8.770   0.477  0.0180 -0.2978 -0.0267
27860W        W43754   6.039   9.330  13.828 -0.2034 -0.1146  0.0027
27861W        W43755  12.648  12.349  10.818 -0.1791 -0.2188 -0.0833
27862W        W43756  15.139   5.023  14.442 -0.1619  0.0853 -0.0159
27863W        W43757   8.799   4.759   2.433 -0.1036  0.1149  0.0643
27864W        W43758   8.355   4.122  14.228  0.0538  0.3462  0.0351
27865W        W43759  11.571   3.499   5.403  0.0068 -0.1887 -0.0600
27866W        W43760   3.350  13.813   3.730  0.0304 -0.0096  0.1376
27867W        W43761   4.239   7.964  14.930 -0.2167 -0.0667 -0.0746
27868W        W43762  17.618   1.370   1.069  0.0957  0.2808 -0.0149
27869W        W43763   7.297  12.820   3.269  0.1565 -0.0834  0.0102
27870W        W43764   4.511   0.364  12.773 -0.1094 -0.0567 -0.2323
27871W        W43765  13.563   5.657   3.956 -0.1126 -0.1105  0.0482
27872W        W43766   9.537   3.779   1.748 -0.0846 -0.0490  0.3189
27873W        W43767   5.103   2.571  13.098  0.3319 -0.0484  0.1657
27874W        W43768   1.588  18.261   4.112 -0.1266 -0.1025 -0.1462
27875W        W43769   9.255  13.047  10.457  0.2187 -0.0417  0.2415
27876W        W43770  15.598   1.146   3.362 -0.1993 -0.1329  0.1139
27877W        W43771  11.242   6.347   4.727 -0.4570  0.0732 -0.2429
27878W        W43772  11.178   1.862   2.806  0.2732  0.0262  0.0502
27879W        W43773   5.089  18.162   3.623 -0.0650 -0.0117 -0.4179
27880W        W43774  15.072  19.069   0.285 -0.0725  0.2873 -0.1154
27881W        W43775  11.359   7.861  13.878 -0.0128 -0.1300  0.2131
27882W        W43776  15.053  13.854  13.037  0.0679 -0.1153 -0.0330
27883W        W43777   3.155  13.468   3.308 -0.1733  0.1840 -0.1953
27884W        W43778   3.584   2.023   4.748 -0.1325  0.0139  0.4452
27885W        W43779  12.588   5.148  11.030 -0.2602  0.0913  0.1619
27886W        W43780  10.564  18.283   2.453  0.1311 -0.2579  0.1695
27887W        W43781  17.570   8.631   0.248  0.1861 -0.0545 -0.2121
27888W        W43782  12.449   8.033  12.152 -0.0845  0.0191 -0.0050
27889W        W43783  12.081  11.040   5.020 -0.1697 -0.3767 -0.2766
27890W        W43784   9.896  10.303  10.393  0.1018  0.4380 -0.1095
27891W        W43785   3.055  13.596  14.823 -0.0529 -0.0421  0.6192
27892W        W43786  18.159  14.968   3.564  0.0492  0.2968  0.3582
27893W        W43787   5.167  17.989  14.520  0.0153 -0.2672  0.1005
27894W        W43788  11.287  18.202  11.204  0.3012  0.1601  0.2344
27895W        W43789  18.185   8.067   0.775 -0.0729 -0.4050 -0.0807
27896W        W43790  10.512   5.976   2.709 -0.0699 -0.2106  0.1056
27897W        W43791  13.902   9.861   3.234 -0.0840 -0.0602  0.3373
27898W        W43792  12.827   1.494  12.849  0.0647  0.1266  0.2938
27899W        W43793  18.393  11.301  14.077  0.3508 -0.1295  0.0872
27900W        W43794  13.204  17.558   3.878  0.0555 -0.3379  0.1370
27901W        W43795   8.209   1.685   1.338 -0.0859 -0.1044 -0.0223
27902W        W43796   5.548  14.550  11.785 -0.2566 -0.0823 -0.0615
27903W        W43797   9.210   9.464  12.539  0.1812 -0.2606  0.0038
27904W        W43798  11.398   4.525   6.344 -0.2929  0.0821 -0.0182
27905W        W43799  14.505  13.632   5.097 -0.0808 -0.1829 -0.3593
27906W        W43800  11.023  14.631  12.747 -0.0474  0.0871  0.0754
27907W        W43801   1.374  11.100   0.311  0.3213  0.3428  0.0428
27908W        W43802  14.916  12.308   0.740 -0.1465 -0.3406 -0.0068
27909W        W43803  12.592  15.059   1.710 -0.3402  0.2143 -0.0985
27910W        W43804  12.408   0.352   1.246 -0.1415 -0.1078  0.2036
27911W        W43805   5.238  14.287   4.895  0.0315 -0.1412  0.0055
27912W        W43806  11.869  11.308  10.310 -0.0517 -0.0443  0.0337
27913W        W43807  17.569  14.986   2.429 -0.2323 -0.2360  0.0127
27914W        W43808  13.864  11.243  11.382 -0.0113  0.2684  0.1271
27915W        W43809  15.959  14.635  14.473 -0.1952  0.0811 -0.1107
27916W        W43810   1.943   6.729   0.661  0.1694  0.1699  0.0131
27917W        W43811   9.847   2.963  14.386 -0.0397 -0.1701  0.2239
27918W        W43812   2.309   5.067   4.801 -0.0520  0.0154  0.0169
27919W        W43813   4.391   8.595   9.667 -0.2531  0.1676 -0.0201
27920W        W43814   5.001  14.205   1.219  0.0728  0.1127 -0.0804
27921W        W43815  16.416   3.421   2.623 -0.0315 -0.0018 -0.1075
27922W        W43816  12.584   5.738   5.057  0.1362 -0.0835 -0.3596
27923W        W43817   3.665   6.604  10.663 -0.0153 -0.1073 -0.1965
27924W        W43818   8.580  13.664  10.941 -0.0152  0.1108 -0.0213
27925W        W43819  14.951  17.654  13.087 -0.2400 -0.1892  0.0278
27926W        W43820  11.650   3.711   1.033  0.0356 -0.1140 -0.0940
27927W        W43821  12.114  15.939   3.374 -0.0622 -0.1757  0.4260
27928W        W43822   0.675   3.656   1.851 -0.1205  0.1860  0.1540
27929W        W43823  14.571   9.473  13.603 -0.1077  0.0436 -0.0476
27930W        W43824  12.022   0.895  12.022  0.0997  0.0186  0.2169
27931W        W43825   6.512  18.837   0.915 -0.4840  0.1913 -0.3807
27932W        W43826  15.177   5.548  11.577  0.0209 -0.0687  0.2267
27933W        W43827  12.924  10.249  10.680  0.0640 -0.1242  0.2449
27934W        W43828   6.906  13.689  14.621 -0.0421 -0.0555  0.0513
27935W        W43829  15.916  11.478  11.492 -0.0522  0.2277 -0.0680
27936W        W43830   0.686  16.550   0.347 -0.2126 -0.0029  0.5085
27937W        W43831  10.833   1.016  11.516  0.0209 -0.2396  0.1324
27938W        W43832  12.834   3.095   3.247  0.1978  0.2731 -0.0271
27939W        W43833   9.483  13.512   3.555 -0.2916 -0.1366 -0.4372
27940W        W43834   2.548   6.879  12.466  0.1199  0.4815  0.2222
27941W        W43835  13.259  11.886  10.581  0.1135  0.0549  0.0250
27942W        W43836  15.595  18.184   1.850 -0.0375  0.1045 -0.0944
27943W        W43837  10.104  12.949  13.472 -0.2538  0.0753  0.1179
27944W        W43838   9.304   0.127  13.911 -0.0180 -0.2345  0.0722
27945W        W43839  16.528   7.895  14.368  0.2261 -0.1551  0.2857
27946W        W43840  19.180   3.377   1.285  0.1069  0.0103 -0.0329
27947W        W43841  14.759  12.589   4.293 -0.0388 -0.0483  0.2186
27948W        W43842   3.122   0.231   4.105  0.0727  0.1236 -0.0673
27949W        W43843  10.903   1.158   1.815 -0.2943 -0.4370  0.2160
27950W        W43844  18.284  16.329  11.519  0.2703 -0.2284 -0.0989
27951W        W43845   4.858   4.570   4.071  0.3220 -0.1364 -0.2940
27952W        W43846  14.838   9.012  12.151  0.3936  0.0303 -0.1014
27953W        W43847   8.869  14.423  13.353  0.0937 -0.1391 -0.0736
27954W        W43848  18.500  14.656   1.638 -0.3469  0.0669 -0.1536
27955W        W43849   2.405  18.534   0.947 -0.1205 -0.0242  0.0803
27956W        W43850   6.957   0.742  15.157 -0.0149  0.1685  0.1273
27957W        W43851   6.591  19.018  14.790  0.0519 -0.2394  0.0136
27958W        W43852   5.679   8.640  12.147 -0.1425  0.2192  0.0313
27959W        W43853  10.372  18.091   1.380 -0.1396  0.0787 -0.1296
27960W        W43854  10.650   1.494  11.792 -0.0483 -0.3597 -0.3340
27961W        W43855   6.152   8.254  11.947 -0.0249  0.1670  0.1622
27962W        W43856   0.369  17.503  13.904  0.3062 -0.0379  0.0475
27963W        W43857   6.550   1.493  12.122  0.1777  0.2035  0.0020
27964W        W43858  11.793   5.807  15.108  0.3012  0.2017 -0.0541
27965W        W43859  16.927  10.525  10.318 -0.2755  0.2461 -0.0727
27966W        W43860  14.154  16.807  15.069  0.3129 -0.0742  0.2558
27967W        W43861   8.995   5.339   3.569 -0.1017  0.1133 -0.1369
27968W        W43862   8.336  16.342   3.240  0.2265  0.0470  0.0054
27969W        W43863  16.355  12.487   0.918  0.1661  0.2284 -0.2103
27970W        W43864  17.289  15.204   2.069  0.2903  0.4259 -0.1901
27971W        W43865   7.693   6.672   2.216  0.1041  0.3170 -0.0880
27972W        W43866  16.462   5.652   4.168  0.0467 -0.0647 -0.2722
27973W        W43867   6.174  16.117  13.021  0.1535  0.0666  0.0917
27974W        W43868  14.297  10.640   3.851 -0.0023 -0.0615 -0.3279
27975W        W43869   7.633   7.886  10.907  0.0352  0.1450  0.2702
27976W        W43870   8.741  10.385  14.187  0.1211  0.1728  0.3522
27977W        W43871  13.629   4.713  13.871  0.0337  0.0366 -0.1507
27978W        W43872  15.803  13.691  13.032  0.0636  0.0566  0.2158
27979W        W43873   7.099   2.663  13.226 -0.1612  0.0246 -0.0570
27980W        W43874   8.139  17.864  14.921  0.0979 -0.1164  0.1371
27981W        W43875  18.807   0.299   1.790  0.0473  0.0756  0.1353
27982W        W43876  13.608   4.408   5.700 -0.0931 -0.0871 -0.2806
27983W        W43877   1.433  14.701  15.165 -0.0277 -0.1652 -0.1331
27984W        W43878  14.374   2.050  13.500 -0.1108  0.3467  0.2790
27985W        W43879   6.560  10.066  14.317  0.1028 -0.2483 -0.0989
27986W        W43880   3.208  14.955   2.430 -0.4373  0.0567 -0.2601
27987W        W43881  13.583  19.035   4.588 -0.1037  0.2137 -0.1887
27988W        W43882   2.274   4.592   3.206  0.0953 -0.0099  0.1740
27989W        W43883  12.670   5.068  13.256  0.1424 -0.2790 -0.1832
27990W        W43884   2.682   7.645  11.224 -0.2219 -0.1300 -0.2504
27991W        W43885  17.301  12.220   0.269  0.0552  0.2521 -0.1419
27992W        W43886   1.654  18.512   1.483 -0.1494 -0.2725  0.1523
27993W        W43887  17.642   3.325  13.668 -0.4463 -0.0590  0.2045
27994W        W43888  16.479  18.659   5.145  0.2639 -0.0609 -0.0587
27995W        W43889  18.336   5.309  14.976 -0.3605 -0.0048  0.2393
27996W        W43890  11.710   4.069  10.786 -0.1577 -0.0806  0.0104
27997W        W43891   6.580  16.419   5.413 -0.0426  0.0881  0.1390
27998W        W43892   4.442   7.897   1.219 -0.1440  0.1705  0.0318
27999W        W43893  10.175   7.627  12.618 -0.3036 -0.0142  0.2626
28000W        W43894  16.108  10.654   3.775  0.0198  0.4284  0.0589
28001W        W43895  16.321   3.230   4.374  0.0409  0.4574  0.2104
28002W        W43896   9.394  13.974   0.767 -0.0058  0.3703  0.1304
28003W        W43897  14.598   4.007  11.344 -0.2245 -0.2039  0.1529
28004W        W43898  18.058   6.328  11.277  0.1304  0.0164 -0.0899
28005W        W43899   8.555  14.368  12.131 -0.0407  0.2221 -0.2050
28006W        W43900   0.587   8.556   2.366  0.3462  0.4096  0.0600
28007W        W43901  16.224   2.780  11.129 -0.1269 -0.1266  0.1141
28008W        W43902   1.636  18.780  11.514 -0.2434 -0.0569  0.2438
28009W        W43903  11.904  11.076  14.989 -0.0635  0.1519  0.1830
28010W        W43904   8.951   2.456   1.201 -0.2630  0.1825 -0.0807
28011W        W43905  18.387   7.791  11.082 -0.0184  0.2027 -0.1261
28012W        W43906   3.637   1.671  11.341 -0.0637 -0.0976  0.0023
28013W        W43907   3.487   2.159   1.108 -0.2296  0.0745 -0.1901
28014W        W43908   1.457   7.316   0.832  0.2246  0.1798 -0.0580
28015W        W43909   1.953  18.749  14.728 -0.2048  0.4612  0.0098
28016W        W43910   9.888  15.491   0.994  0.0386 -0.4712 -0.1546
28017W        W43911  13.468   4.581  11.055  0.2396 -0.1793  0.1237
28018W        W43912  10.760   4.050  12.816 -0.0792  0.3379 -0.1601
28019W        W43913   5.710   8.470   1.363  0.0465 -0.4260 -0.0140
28020W        W43914  12.735  17.235   3.521  0.3663  0.0991 -0.1829
28021W        W43915   2.768  12.734  11.223  0.0372  0.2748  0.0979
28022W        W43916  13.853   8.257   5.945  0.0426  0.0786  0.0937
28023W        W43917   1.759  16.455   5.967  0.0076 -0.1307  0.1165
28024W        W43918   9.727   6.769   4.760 -0.0649 -0.0361  0.0473
28025W        W43919   1.194   3.789  13.604  0.0771  0.0693  0.4454
28026W        W43920   6.510   6.216   1.238  0.3319  0.0059 -0.1026
28027W        W43921   0.646  19.108   4.089  0.1440  0.0498  0.2396
28028W        W43922  10.846   8.958  12.942  0.2732  0.3840 -0.2610
28029W        W43923  19.125  17.636   5.389 -0.1205 -0.0122 -0.1580
28030W        W43924   4.833  12.117  12.087 -0.0919  0.2027  0.2739
28031W        W43925  12.914  16.083  11.504  0.0954  0.2315 -0.0306
28032W        W43926   1.491  18.144  14.137 -0.0265  0.0042  0.0714
28033W        W43927  15.356  16.226  11.811 -0.0964  0.2990  0.0216
28034W        W43928   7.072  12.128  15.093 -0.1939  0.2132  0.3890
28035W        W43929   1.817   5.110   0.959 -0.1459  0.0444  0.2051
28036W        W43930   7.588   5.635   0.605 -0.1085 -0.2096  0.1248
28037W        W43931  14.334   9.926  12.354 -0.0329  0.1924 -0.0329
28038W        W43932   8.020   3.541   2.955  0.1363 -0.3298  0.2022
28039W        W43933  13.853   7.645   1.465 -0.2676  0.0836 -0.2303
28040W        W43934  14.399  12.266   0.488 -0.1466  0.0848 -0.2283
28041W        W43935   0.554  11.369  12.295 -0.2917 -0.3650 -0.1246
28042W        W43936   8.653  13.146  10.908 -0.2335  0.0636  0.0748
28043W        W43937   2.915   0.855  12.456  0.0148  0.0328  0.1831
28044W        W43938   3.710   0.195  11.554  0.0092 -0.1579 -0.2059
28045W        W43939   5.504   9.652   5.482 -0.2128  0.1108  0.2103
28046W        W43940   8.612   3.389   1.733  0.0650 -0.0401 -0.0641
28047W        W43941  15.040  14.417  14.680  0.1091 -0.3077 -0.1530
28048W        W43942  12.680   6.332   1.913 -0.1402  0.0361  0.1928
28049W        W43943   0.926  16.027  11.829  0.3018  0.2462  0.0644
28050W        W43944   3.661  14.055   2.527 -0.2103  0.4563  0.1925
28051W        W43945   4.316   5.718   1.341  0.0641  0.1762 -0.2422
28052W        W43946   0.518  19.102  14.792  0.0999 -0.0768 -0.1839
28053W        W43947  19.000   8.364   1.016  0.1161 -0.4512 -0.6134
28054W        W43948   0.073   6.481   4.238 -0.2587  0.1071  0.1198
28055W        W43949   7.868  17.456   2.814  0.2442 -0.1747 -0.2147
28056W        W43950   2.000   6.063   1.665  0.2484 -0.1791 -0.0473
28057W        W43951   5.221   3.526   2.723  0.1276 -0.0337 -0.0825
28058W        W43952   3.082  18.881  11.161  0.1544 -0.2599  0.3302
28059W        W43953   1.849  18.056  11.065 -0.3297 -0.0405 -0.1122
28060W        W43954   9.325  14.875   1.305 -0.1350 -0.2972  0.2162
28061W        W43955   9.384  16.720   3.972  0.1065  0.2362 -0.2798
28062W        W43956  13.492  17.679  11.226  0.1960 -0.0386 -0.3155
28063W        W43957   2.083  17.247   4.136 -0.1588 -0.0959  0.2739
28064W        W43958  14.323   2.210   0.923  0.0065  0.3810 -0.3913
28065W        W43959  10.623  15.223   0.217  0.4651 -0.0834 -0.1190
28066W        W43960   2.089   1.292   3.265 -0.0614 -0.1709  0.2384
28067W        W43961   8.258   4.504  12.022 -0.0699 -0.1101 -0.2599
28068W        W43962  11.434  13.741  12.931  0.1750 -0.0968 -0.1689
28069W        W43963  17.378  11.894  11.118  0.2833  0.0985 -0.0723
28070W        W43964  17.276  13.526  14.697 -0.1414  0.4685  0.1900
28071W        W43965   7.561   7.300  10.795  0.1245 -0.3001  0.1362
28072W        W43966   8.259   3.194  12.517 -0.0537  0.2380  0.0767
28073W        W43967  18.099  14.468  11.170 -0.0781 -0.1507 -0.1097
28074W        W43968   1.465  18.320  10.643  0.0568 -0.0277  0.2465
28075W        W43969  11.490  10.093   2.385  0.0114 -0.3074  0.1157
28076W        W43970  17.205   0.955  13.977  0.1797  0.0257 -0.0275
28077W        W43971   3.952  10.672   5.054 -0.1495 -0.0736  0.1659
28078W        W43972  11.972   4.299   3.636  0.1194 -0.0877 -0.0880
28079W        W43973  12.361  11.013  11.059 -0.0372 -0.2163 -0.0670
28080W        W43974  17.422   3.804   3.274 -0.0035  0.0239 -0.0129
28081W        W43975  12.000  10.282  10.792  0.2349 -0.0005  0.1761
28082W        W43976   5.870  17.977  10.546  0.1333 -0.1287  0.0438
28083W        W43977   2.299   5.382   1.041 -0.4405 -0.0161  0.2078
28084W        W43978  13.894   4.750   4.721 -0.0823  0.2872  0.0925
28085W        W43979   2.871  17.202   4.818 -0.2126 -0.0169 -0.0838
28086W        W43980   6.880  11.453   0.284 -0.1520  0.3215 -0.2684
28087W        W43981   5.732  10.303   0.144 -0.1957  0.5123 -0.2034
28088W        W43982   7.045   0.566  11.315  0.1619 -0.0843 -0.3410
28089W        W43983  15.802  13.645  10.683  0.3600 -0.0713  0.1068
28090W        W43984  15.468  12.498  12.117 -0.2539 -0.2869 -0.0299
28091W        W43985   9.222  14.947  15.082  0.0636 -0.3954  0.2083
28092W        W43986  18.835  14.997   0.924  0.0878 -0.1461  0.0891
28093W        W43987  17.339  16.258  14.536 -0.6239 -0.0165 -0.2838
28094W        W43988   5.847  17.479  14.896 -0.0774  0.0165 -0.0424
28095W        W43989  18.111  17.681   2.655  0.2396  0.0241 -0.0800
28096W        W43990  11.756   3.373   0.694 -0.0273 -0.1546 -0.1699
28097W        W43991  17.142   0.397  12.028  0.0952  0.0244  0.1432
28098W        W43992  14.965   9.509   3.708  0.0848 -0.1689  0.0792
28099W        W43993  13.775  18.877   0.173  0.1123 -0.0212  0.1891
28100W        W43994  11.327  10.908  14.210 -0.1534  0.1166  0.1379
28101W        W43995  13.201  15.281   4.232  0.1159  0.1163  0.2693
28102W        W43996   2.622   0.650   3.213  0.2467  0.4031  0.0335
28103W        W43997   2.787   5.058   1.973 -0.0647 -0.4372  0.0159
28104W        W43998  11.482  14.299  13.129 -0.4261  0.4019  0.0089
28105W        W43999   2.312  13.268   1.549  0.0114  0.0476  0.2388
28106W        W44000   2.407  17.136   1.108  0.2519  0.0193 -0.0275
28107W        W44001  19.080  16.360  13.700 -0.2359 -0.1605  0.0348
28108W        W44002  11.629  18.426  14.927  0.1738  0.0788  0.0440
28109W        W44003  13.494  14.212   1.189  0.2495 -0.0222  0.0659
28110W        W44004  11.062  17.104   0.989 -0.0483 -0.0058 -0.1116
28111W        W44005  12.368   8.031   2.210  0.2320  0.1837 -0.1377
28112W        W44006   8.169   8.713  13.078  0.0605 -0.1489 -0.1361
28113W        W44007  10.832   9.235  10.622 -0.1567 -0.3112  0.1365
28114W        W44008  11.272  14.376  11.856  0.0059  0.0609  0.0786
28115W        W44009  13.534  15.216  12.140  0.2103 -0.6608  0.1026
28116W        W44010   0.413   3.954  12.111 -0.0056  0.0822 -0.0257
28117W        W44011   4.993  12.830  12.588  0.0554  0.0018 -0.1053
28118W        W44012   9.464   5.791  13.323 -0.3492 -0.0879 -0.1195
28119W        W44013   7.786   1.687   2.289 -0.4012  0.1535 -0.1599
28120W        W44014   1.839   1.503   4.096 -0.2787 -0.0525 -0.1440
28121W        W44015  11.659   5.666  11.818  0.0153  0.1038 -0.0132
28122W        W44016  10.682   1.894  14.526 -0.0888 -0.3889  0.0320
28123W        W44017  11.836   4.482   2.600  0.1025  0.2716 -0.0101
28124W        W44018   5.476  18.388  12.692  0.1984  0.1986  0.0136
28125W        W44019   0.652   3.167  14.149 -0.4430 -0.1549 -0.2356
28126W        W44020   4.490  14.210  14.821 -0.2968 -0.1768  0.0514
28127W        W44021   7.003  11.234  14.540 -0.0254 -0.4011  0.0204
28128W        W44022  15.665   3.602   3.171 -0.1753 -0.1553  0.4646
28129W        W44023   2.767  18.532   4.362  0.6704 -0.3240  0.2201
28130W        W44024   0.534  17.591   0.166  0.3101  0.1455 -0.3351
28131W        W44025  10.460   4.976   0.978 -0.0391  0.0832 -0.1258
28132W        W44026   5.165   7.017  12.354 -0.1624 -0.1747 -0.0779
28133W        W44027   8.047  15.434  11.659 -0.0184 -0.1734  0.0770
28134W        W44028   3.094   1.738  12.818 -0.1236  0.3161 -0.0665
28135W        W44029  14.299  16.285   0.247 -0.0943 -0.3328  0.3240
28136W        W44030  12.862  16.485   2.849 -0.0246  0.1857  0.0928
28137W        W44031   7.262   6.313  14.156 -0.0910 -0.0807 -0.0345
28138W        W44032   7.310   3.785  12.963  0.1723 -0.0315  0.0864
28139W        W44033  10.013  14.627   3.754  0.0713  0.1205  0.0930
28140W        W44034  15.914  14.151  14.374 -0.1608  0.1343 -0.4299
28141W        W44035   8.445   1.136   3.970 -0.1969  0.4613 -0.0706
28142W        W44036   5.384   8.517  14.215  0.3196  0.2759 -0.2700
28143W        W44037   5.302   2.634   2.484  0.0715 -0.3131  0.0667
28144W        W44038   5.982   2.714  11.487 -0.2771  0.2506 -0.2398
28145W        W44039  19.145  19.050  11.466  0.0685  0.0812  0.2056
28146W        W44040   9.600   6.000  11.784 -0.6572 -0.0763 -0.0525
28147W        W44041  18.837   0.314  11.597  0.2186 -0.1192  0.0199
28148W        W44042  13.705   4.482   6.217 -0.0754  0.0166  0.3718
28149W        W44043  16.504  18.225   5.631  0.2270 -0.3279  0.0570
28150W        W44044   4.938  13.854  14.662  0.0630 -0.0448  0.1099
28151W        W44045  13.057   9.763  13.076  0.0310 -0.2730 -0.0220
28152W        W44046  13.731  14.579   9.254 -0.0288  0.1509 -0.0412
28153W        W44047   2.924   1.384  15.107  0.0891 -0.5747 -0.0522
28154W        W44048   2.216   6.217  12.069 -0.0404  0.2178  0.0587
28155W        W44049   1.636  14.064   1.269 -0.1110  0.3348 -0.1588
28156W        W44050   7.050  16.032  10.612 -0.0492  0.3729 -0.3786
28157W        W44051   9.861  18.554  10.860 -0.0918 -0.2134 -0.5318
28158W        W44052   0.419   5.372   0.581  0.0454  0.1269 -0.0133
28159W        W44053  10.352   4.429  13.671  0.0738 -0.2391  0.0438
28160W        W44054   7.409   5.151   0.132  0.0018  0.2949  0.2692
28161W        W44055  15.899  15.275  15.094  0.0162  0.0161 -0.1925
28162W        W44056   9.688   0.909  11.148  0.0617 -0.1332  0.0021
28163W        W44057  11.757  14.629   3.383  0.1899  0.2764  0.2392
28164W        W44058   2.294   3.015   0.104  0.1369 -0.2854  0.1119
28165W        W44059   0.218   9.141  10.656 -0.1146  0.0452  0.1172
28166W        W44060  18.744  12.862  10.762 -0.1494 -0.4273  0.0171
28167W        W44061   0.170  16.361   1.269  0.0451  0.0944 -0.1945
28168W        W44062  11.199   8.813   2.192 -0.1516  0.3300  0.2814
28169W        W44063   9.974  11.707  10.639  0.0739 -0.1703  0.0184
28170W        W44064  10.129   6.812   3.333 -0.1226  0.1013  0.2971
28171W        W44065   3.427  18.224  10.296  0.0888 -0.3630 -0.0541
28172W        W44066   3.567   5.824   9.596  0.0768 -0.0911 -0.1280
28173W        W44067   8.133  15.441  12.750 -0.2393  0.0244 -0.0100
28174W        W44068   1.282   3.657   0.790 -0.1380  0.1859  0.0244
28175W        W44069  15.326  11.150  12.870 -0.2400 -0.0186  0.1997
28176W        W44070  18.921   9.958  11.062 -0.3296  0.5129 -0.0434
28177W        W44071  16.189   5.774   2.613 -0.1347  0.2010  0.0172
28178W        W44072   6.191  10.445   0.300 -0.1586 -0.0312  0.2648
28179W        W44073   8.884   0.162   2.694 -0.1302  0.1012 -0.0920
28180W        W44074   1.766  15.626   2.423 -0.0922  0.1996  0.0791
28181W        W44075  13.098  18.116  14.437 -0.0911  0.0804  0.0746
28182W        W44076  16.306   9.253   1.160 -0.0063 -0.1176  0.4776
28183W        W44077  11.650   0.528   0.519  0.3096 -0.0869  0.2148
28184W        W44078  18.877  12.349   2.483 -0.0817  0.0850  0.0609
28185W        W44079  11.170   0.531   3.018  0.1845  0.1223  0.0212
28186W        W44080  16.048   0.841   2.544  0.2913  0.1244 -0.0742
28187W        W44081  14.071  10.550   1.688  0.0589  0.1178  0.1242
28188W        W44082   2.178   0.797  14.284  0.1575 -0.1160 -0.2248
28189W        W44083   0.332   0.552   2.810  0.5039  0.1447  0.1772
28190W        W44084   2.287  15.540   2.497  0.1988  0.2783  0.0935
28191W        W44085  16.822   0.294   4.811 -0.0270  0.0401 -0.1392
28192W        W44086  11.187  10.212  13.766 -0.2673 -0.1009 -0.3781
28193W        W44087  12.665  15.394  11.940 -0.2027 -0.4998  0.0340
28194W        W44088  18.736  18.927  13.051  0.0544  0.1365  0.0456
28195W        W44089   7.995  11.971  13.798  0.0265 -0.1179 -0.0296
28196W        W44090   9.716  18.326   0.250 -0.1900  0.0907 -0.2843
28197W        W44091  11.075   8.547   0.761 -0.0393  0.0596 -0.1037
28198W        W44092  14.496   0.541  10.779 -0.0568  0.0277  0.1155
28199W        W44093  13.931  15.257   3.257 -0.2143  0.2424 -0.3072
28200W        W44094  16.009   0.725   4.419 -0.0077  0.2024 -0.1085
28201W        W44095   0.093  13.019   1.280  0.0399  0.2820  0.3127
28202W        W44096  18.043   7.143  12.922 -0.0612 -0.2124 -0.2733
28203W        W44097  18.198  12.450  13.557  0.0633  0.0183 -0.1924
28204W        W44098  15.740   5.407  12.133 -0.2019  0.0940  0.2204
28205W        W44099  10.817  15.080   3.423 -0.0591  0.2404  0.3204
28206W        W44100  17.761   3.250  13.104 -0.0929  0.2723  0.1761
28207W        W44101  18.987   7.910   4.426  0.2104 -0.3271  0.2133
28208W        W44102   4.554  14.430   1.006 -0.2566 -0.1006 -0.2027
28209W        W44103   6.544  12.823   1.397 -0.1119 -0.1011 -0.1357
28210W        W44104   6.200   0.950  14.592  0.1832  0.0313 -0.0582
28211W        W44105  15.189  18.171   1.516  0.1429 -0.0161  0.4947
28212W        W44106  11.033  13.187  14.741 -0.1667 -0.1550 -0.0563
28213W        W44107  12.850  18.681  12.452  0.0471 -0.3181 -0.3089
28214W        W44108   3.587   9.186   1.800 -0.0651  0.2438 -0.1079
28215W        W44109   5.674  11.453  13.625 -0.2828  0.0588  0.0478
28216W        W44110  15.567   1.685   1.583  0.2499  0.0924 -0.0212
28217W        W44111   0.771   4.947   1.393  0.1533  0.1495 -0.0930
28218W        W44112   9.145   8.185   4.642  0.2168  0.3432  0.0938
28219W        W44113  12.628   4.695   1.637 -0.3402  0.1914 -0.2675
28220W        W44114   4.685   9.643   5.577  0.2176 -0.0817  0.1408
28221W        W44115   6.289   3.851   0.881  0.0801  0.0631 -0.3045
28222W        W44116   4.799   0.751  13.637  0.3203 -0.0213  0.2729
28223W        W44117  11.239   8.455  12.651 -0.0067 -0.0146  0.1237
28224W        W44118   2.471  15.554  12.312  0.3092 -0.0868  0.4047
28225W        W44119  13.956   0.746   2.959  0.2443 -0.1907  0.1219
28226W        W44120  10.889   5.614   3.567  0.0411 -0.2325 -0.1771
28227W        W44121  11.492  10.269   3.860 -0.0646  0.1776  0.2147
28228W        W44122  14.206   9.545  11.621  0.2650 -0.4940  0.3163
28229W        W44123  17.741  16.979  12.107 -0.1738 -0.0720  0.2874
28230W        W44124  14.956  16.225   4.628  0.1709 -0.0972  0.3768
28231W        W44125  10.130  11.056  11.992  0.2378  0.4158  0.3479
28232W        W44126  11.806   6.068   0.898 -0.0449 -0.1768  0.0623
28233W        W44127   6.759   5.012   1.413 -0.0095  0.2464 -0.0016
28234W        W44128   7.444  17.557   0.558  0.1410  0.1598 -0.4352
28235W        W44129  13.613  17.051   1.154  0.0667  0.2479 -0.3165
28236W        W44130   8.854   1.123   0.648 -0.0791  0.1798  0.1759
28237W        W44131   1.354   6.363   0.975  0.1948  0.3509 -0.1252
28238W        W44132   5.535  14.495   0.920  0.4485 -0.0431  0.2803
28239W        W44133   4.823   4.751   4.556  0.1096 -0.1220 -0.1316
28240W        W44134   8.690   5.546   0.862 -0.1723 -0.2181  0.0637
28241W        W44135   2.127  10.547   3.523 -0.1537  0.0117  0.2205
28242W        W44136  15.472   4.941  13.572 -0.1455  0.0071 -0.1336
28243W        W44137  12.007  10.102  15.021  0.1074  0.1145  0.1971
28244W        W44138  17.803   4.647   1.403 -0.0940  0.4498 -0.0315
28245W        W44139  18.745  14.544   2.621 -0.0028  0.1062 -0.4256
28246W        W44140  15.712   7.301  14.641  0.4992  0.0201  0.3632
28247W        W44141   5.745  16.698   0.551  0.1422 -0.1444 -0.0212
28248W        W44142  17.275   5.028  15.091 -0.1838  0.1425 -0.1254
28249W        W44143   5.223   5.832  14.203  0.3039 -0.1463 -0.0698
28250W        W44144  11.631  10.434  10.521 -0.0142 -0.3970  0.1922
28251W        W44145   4.351   0.101   0.154  0.0367  0.0609 -0.2135
28252W        W44146   6.291   3.575   2.570  0.0718 -0.1129  0.0541
28253W        W44147  12.681  11.782   5.383  0.0504 -0.1332 -0.1045
28254W        W44148  15.558   3.747   0.777  0.2240 -0.2227  0.2473
28255W        W44149  12.560  10.176   2.580  0.2198 -0.1307 -0.2781
28256W        W44150   9.756   5.452   9.809  0.1519  0.0073 -0.1965
28257W        W44151  14.495   9.735  10.830  0.5153 -0.2782 -0.2154
28258W        W44152   0.318   0.976   4.140 -0.5826  0.2515  0.0393
28259W        W44153   9.797  18.958   2.876  0.0587  0.4638 -0.4675
28260W        W44154  16.478   4.523   4.875  0.1313 -0.2166  0.0321
28261W        W44155   4.343  11.847   1.998  0.3416 -0.3663 -0.0809
28262W        W44156  16.278   1.871  11.485  0.1238 -0.2838 -0.0104
28263W        W44157   7.754  17.726  13.522 -0.0853 -0.1370 -0.0186
28264W        W44158   7.857  18.787  13.319  0.0231 -0.0156  0.2945
28265W        W44159   7.842  13.364   4.690  0.3864 -0.0104 -0.0212
28266W        W44160   9.493  18.262   3.549 -0.3171  0.3538  0.4964
28267W        W44161  16.275  17.159  13.158 -0.2596  0.1136  0.2315
28268W        W44162  16.734  14.358   2.664  0.1900 -0.0042  0.0456
28269W        W44163  15.186   1.573   0.941 -0.2778 -0.1861  0.1607
28270W        W44164   3.077  13.997   4.155 -0.0605 -0.1276 -0.1591
28271W        W44165   9.653   7.726   0.331 -0.1091 -0.2840 -0.1155
28272W        W44166   9.080  13.345   3.686  0.1282  0.1433 -0.3908
28273W        W44167  12.032   0.247   2.047  0.0431  0.0433 -0.0968
28274W        W44168   6.432   3.198  12.092 -0.1085  0.1302  0.1697
28275W        W44169  11.723   1.589  11.594  0.1762  0.4442 -0.0176
28276W        W44170  14.302   8.351   5.143  0.3987 -0.0369 -0.1298
28277W        W44171   1.317   2.779  12.134 -0.1881 -0.1944 -0.2051
28278W        W44172   2.380  16.738   3.346 -0.1375 -0.1781  0.2076
28279W        W44173  13.560   7.993  11.068  0.0287  0.2996  0.1294
28280W        W44174  16.675  10.750   5.097  0.1028 -0.0917 -0.1444
28281W        W44175   6.858  10.052  14.756  0.1385 -0.0745 -0.2126
28282W        W44176  18.800   2.554  13.262  0.2328 -0.4226 -0.2714
28283W        W44177  11.667   1.396   1.966 -0.1689  0.1445 -0.0460
28284W        W44178   5.052   0.387  11.124 -0.0524 -0.2713  0.1139
28285W        W44179   2.799  17.211  10.006 -0.2104 -0.2023 -0.0342
28286W        W44180  14.089   7.776   0.989 -0.0431  0.2808 -0.1809
28287W        W44181  17.712   1.568   2.978  0.1673 -0.1011  0.1282
28288W        W44182   1.135   5.128  14.325 -0.1270 -0.3343  0.1155
28289W        W44183   4.863   1.158   5.409 -0.1020 -0.0684 -0.2018
28290W        W44184   6.853  16.557   2.895 -0.1810 -0.0897  0.2060
28291W        W44185   8.689   1.812  13.092 -0.2921 -0.2242  0.1358
28292W        W44186   1.453   8.007  10.558  0.0733 -0.2717  0.2412
28293W        W44187   6.079  12.071   2.396 -0.0747 -0.1066  0.1045
28294W        W44188   6.521   9.977   0.988  0.3248 -0.1241 -0.2462
28295W        W44189   3.559  16.152  15.057  0.2305  0.2694  0.2309
28296W        W44190   4.209  17.248   5.232 -0.0669 -0.1848 -0.0773
28297W        W44191   4.158  11.819  15.041  0.1897  0.2909  0.0800
28298W        W44192  11.918  13.190   2.411 -0.3454  0.2566  0.3046
28299W        W44193  17.007  18.114   3.853 -0.1927 -0.1957  0.3219
28300W        W44194   5.908   1.135   2.934  0.0378 -0.1433 -0.0521
28301W        W44195   8.358   8.701   3.987  0.1040 -0.2831  0.0950
28302W        W44196   5.502  18.794  11.758  0.4133 -0.1561  0.2331
28303W        W44197   7.754   5.784   1.154  0.1990  0.0039  0.2770
28304W        W44198  13.081   6.983  14.968 -0.3599  0.0803  0.1761
28305W        W44199  16.279   3.131  14.527  0.1398  0.1173 -0.1951
28306W        W44200   8.749   6.183  15.187  0.0216  0.1373  0.1960
28307W        W44201   9.433   6.155  10.574  0.1298 -0.0257  0.0282
28308W        W44202   6.519  14.237   2.438 -0.2437 -0.1866 -0.0919
28309W        W44203   5.714   3.445   4.702  0.2892 -0.4191 -0.0565
28310W        W44204   4.653   3.871  14.980 -0.0024  0.4341  0.1469
28311W        W44205   5.164  13.025  15.042 -0.1413  0.1301 -0.2768
28312W        W44206  14.555  14.893  13.649  0.0094  0.0602  0.0297
28313W        W44207   8.127   7.112  11.319 -0.0686  0.0503  0.0836
28314W        W44208  13.914  15.811   0.130  0.0090  0.2689  0.2125
28315W        W44209  16.967  18.011  10.982 -0.7642 -0.1035 -0.1104
28316W        W44210   3.385  10.350  10.934 -0.2050  0.0271 -0.0760
28317W        W44211   1.713  10.656   3.776  0.3043 -0.2600  0.1858
28318W        W44212  13.478   6.208  14.734  0.2560  0.1715 -0.1252
28319W        W44213  18.709   9.547  11.769 -0.2517  0.0606  0.1190
28320W        W44214   5.402  13.904   2.506  0.2705 -0.0051  0.1266
28321W        W44215   5.241  13.439  11.562 -0.2778  0.3047  0.0502
28322W        W44216  16.458  11.131   3.822  0.0848 -0.0924  0.2931
28323W        W44217   7.728  11.671   1.548 -0.0572 -0.2017 -0.1781
28324W        W44218  18.064   3.120   0.203 -0.2056  0.2502  0.1334
28325W        W44219   8.695  15.751   3.858  0.0820 -0.0815  0.1730
28326W        W44220  16.226  18.783  14.472  0.0235  0.1101 -0.2560
28327W        W44221  18.827   2.976   1.350 -0.1879 -0.3192 -0.2389
28328W        W44222  18.538  13.823  11.911  0.3181 -0.0339 -0.1494
28329W        W44223  15.827   7.653   0.735  0.1637  0.1632  0.1798
28330W        W44224   9.505   8.346   0.561  0.3101  0.1830  0.0878
28331W        W44225   0.978  10.921  15.152  0.2591 -0.0791  0.2301
28332W        W44226  14.061  12.994   2.802  0.1802  0.1153  0.2784
28333W        W44227  14.338  13.413   2.129  0.3562  0.0360 -0.2645
28334W        W44228  17.893   5.380  11.005  0.1612  0.3278  0.0666
28335W        W44229  17.971  15.236  15.003 -0.2118 -0.0069  0.2521
28336W        W44230  11.695   3.936  14.728  0.0210  0.1554 -0.4019
28337W        W44231  17.528  14.952  14.583  0.0556 -0.2066  0.1868
28338W        W44232   3.143   3.360  13.195 -0.1269 -0.0308  0.0641
28339W        W44233   8.225   7.111   4.722  0.0186 -0.1959  0.1898
28340W        W44234   2.603  10.522   4.922  0.2191  0.2244 -0.3134
28341W        W44235  18.860   9.368   0.724 -0.0629 -0.1526 -0.0647
28342W        W44236   0.490  14.655  11.403  0.0012  0.1111 -0.2441
28343W        W44237  17.633   9.610   5.080 -0.2932 -0.1286  0.0914
28344W        W44238  17.547   7.364  14.857 -0.0244  0.3393 -0.2882
28345W        W44239   7.254   8.024   3.660  0.2105  0.1305 -0.3422
28346W        W44240   9.203   8.687   1.465 -0.1089 -0.1029  0.1803
28347W        W44241   7.131  13.161  15.023 -0.1182  0.2155 -0.1173
28348W        W44242  17.388   3.862  14.249 -0.0807  0.1000  0.4046
28349W        W44243  17.997   8.235   3.049  0.1325  0.0233 -0.0190
28350W        W44244  17.603  19.073  15.044 -0.1785 -0.0251  0.0186
28351W        W44245   3.655   1.057  11.119 -0.0276  0.2525 -0.1424
28352W        W44246   9.627   9.363  14.560 -0.0790 -0.2851 -0.0225
28353W        W44247  17.703  16.240  13.784 -0.0828 -0.6614 -0.0270
28354W        W44248   0.407   1.777  14.559  0.3067 -0.1655 -0.2423
28355W        W44249  17.784   2.695   4.882  0.2697 -0.3086 -0.2105
28356W        W44250   0.793  17.835   3.010 -0.0707  0.1385  0.4287
28357W        W44251  15.685   0.344   3.827  0.1340  0.0251  0.0944
28358W        W44252  15.364  15.633  12.575  0.1337  0.0032  0.0791
28359W        W44253  13.287   2.398  14.284 -0.1239 -0.0324  0.0915
28360W        W44254  19.106   4.171   2.100 -0.3161 -0.3101  0.1534
28361W        W44255  13.899  17.941  11.468  0.0573  0.1303 -0.1241
28362W        W44256   5.381  18.063  10.370  0.0927 -0.2486  0.2462
28363W        W44257  17.316   0.307  13.365  0.1048 -0.2286 -0.0978
28364W        W44258   5.112   6.152   1.216  0.1897  0.2421  0.0413
28365W        W44259  11.893  17.383   1.667 -0.2812 -0.2023 -0.2470
28366W        W44260  10.873  11.033  14.848 -0.0769 -0.5058  0.1161
28367W        W44261   1.285   0.937   3.306 -0.3587  0.2138 -0.0171
28368W        W44262  15.019  15.009  13.895 -0.3164  0.2237  0.1956
28369W        W44263  18.180  16.072   3.616  0.0835 -0.0143  0.2202
28370W        W44264  17.409  18.621  12.934  0.2195 -0.2562  0.2050
28371W        W44265  13.000   0.444  10.413 -0.4403  0.0503 -0.0536
28372W        W44266  15.658   7.246   0.073 -0.0114  0.1074  0.1112
28373W        W44267  12.751   9.682   0.908 -0.0310 -0.0638  0.1016
28374W        W44268  18.397   7.132  10.994  0.0389  0.0349  0.2718
28375W        W44269   6.404  15.501  13.100  0.0263  0.2100 -0.5533
28376W        W44270   7.699   3.826  12.616 -0.1524 -0.1490  0.0681
28377W        W44271   4.500  11.543  13.838 -0.2850 -0.2419  0.0455
28378W        W44272   3.819  17.711   4.078  0.0162 -0.3386  0.1452
28379W        W44273   3.839  13.819  14.273 -0.3067 -0.0319  0.0626
28380W        W44274   7.733  13.538  14.725  0.0237  0.1593 -0.0563
28381W        W44275  16.738  15.418  13.545 -0.2476  0.1702  0.2620
28382W        W44276  12.398   3.971  13.578  0.2004 -0.3127 -0.0273
28383W        W44277   7.501  16.000  12.338  0.1733 -0.0663 -0.3596
28384W        W44278   8.076  13.189  11.459  0.5513 -0.1746 -0.1156
28385W        W44279   6.449   2.895   4.720 -0.1036  0.2505 -0.2451
28386W        W44280   9.578  12.956   3.830  0.0220 -0.0888  0.1672
28387W        W44281  19.088  13.519   4.105 -0.4721 -0.2422 -0.1840
28388W        W44282   6.914  14.648  11.179  0.0749 -0.1248 -0.1025
28389W        W44283   1.385   9.137  11.589 -0.0647  0.1015  0.0170
28390W        W44284  11.822   6.691  14.507 -0.0605  0.4478  0.0315
28391W        W44285   7.702   2.473   9.633  0.3162  0.1490  0.1117
28392W        W44286   4.524   3.011  14.170  0.0781 -0.0234 -0.4708
28393W        W44287   8.984  11.729   2.150  0.2753  0.1606 -0.0149
28394W        W44288  11.356   7.453  12.851  0.4043 -0.1423  0.0507
28395W        W44289  15.439   8.204  11.841 -0.1851  0.1333  0.1226
28396W        W44290   5.016  14.029   3.114  0.1320  0.0668  0.0094
28397W        W44291   1.303   0.774   9.547 -0.3440  0.0683  0.1653
28398W        W44292   4.927   9.521   0.298 -0.2905  0.3926 -0.3039
28399W        W44293   3.870  10.224   2.839 -0.0255  0.0348 -0.1372
28400W        W44294  11.660   6.194   4.917  0.2104 -0.1275 -0.2277
28401W        W44295  15.814   9.341  11.919  0.2635  0.2573 -0.1138
28402W        W44296   4.744  17.534   1.451  0.2302 -0.1671  0.0171
28403W        W44297  13.963  11.602   5.470  0.0584 -0.0200  0.0212
28404W        W44298   6.155  15.226   1.213 -0.3257 -0.0621  0.2030
28405W        W44299  12.042  15.011   3.674 -0.1562  0.1556 -0.1806
28406W        W44300  15.086  11.676   2.715 -0.0112  0.0928 -0.2444
28407W        W44301  13.394   6.306  13.515  0.2824  0.0973 -0.1283
28408W        W44302   3.369   4.470  15.057 -0.1528 -0.3263  0.1199
28409W        W44303   7.154  16.410   4.484  0.2114  0.2935  0.1589
28410W        W44304  17.154   3.395   1.245 -0.1733 -0.1758 -0.1092
28411W        W44305  12.541   7.726   1.278 -0.1630 -0.0166 -0.3241
28412W        W44306  15.373   0.838   2.030  0.0438 -0.2498 -0.0071
28413W        W44307   1.066  12.823  11.104 -0.0084  0.1286 -0.1358
28414W        W44308  18.843   6.138   2.535  0.1797  0.2567 -0.0672
28415W        W44309  16.881  11.169  12.991 -0.3334 -0.1236  0.5700
28416W        W44310   2.122   5.779   0.678  0.0196 -0.0551 -0.0383
28417W        W44311   7.289   8.793  10.607  0.0380 -0.0967  0.0909
28418W        W44312  12.929   7.990   2.505 -0.0188  0.0263  0.4666
28419W        W44313   8.406   5.016  14.111  0.0401 -0.0265 -0.1180
28420W        W44314  15.830   1.906  12.909 -0.1603  0.1203 -0.0842
28421W        W44315  18.627  17.145   3.982  0.1421  0.0690 -0.0447
28422W        W44316   2.190  13.369   0.157  0.1682  0.2229  0.2119
28423W        W44317   2.941  17.711  13.650 -0.1073 -0.1724  0.2646
28424W        W44318   9.623   5.268  13.423  0.1109 -0.0855 -0.0256
28425W        W44319  14.607   4.704   0.727 -0.3070  0.0134  0.1397
28426W        W44320  17.270  15.247  10.706 -0.2804  0.4269 -0.0581
28427W        W44321   7.857   5.763  13.791 -0.2710  0.0547  0.0683
28428W        W44322   5.807   8.870  11.491 -0.0932  0.0610  0.2252
28429W        W44323   4.071   2.321  13.826  0.1489 -0.3655 -0.2845
28430W        W44324  14.513   5.202   0.722 -0.0663 -0.0956  0.0480
28431W        W44325  16.755   9.890  14.709  0.3504 -0.1067  0.1578
28432W        W44326   2.455  14.566   3.500 -0.0553  0.1730 -0.0449
28433W        W44327   0.299   7.937  15.035  0.2814  0.0049 -0.1798
28434W        W44328   2.217  10.873   2.733  0.4359  0.0842  0.1065
28435W        W44329  14.578  12.447   4.847 -0.5027  0.2322 -0.2291
28436W        W44330   9.600   5.271   2.596 -0.0454  0.0057  0.0721
28437W        W44331  12.273  14.212  14.124 -0.5571  0.0015  0.0283
28438W        W44332  12.724   8.193   3.758  0.4098 -0.1914  0.2507
28439W        W44333  13.604  10.527  12.993 -0.1782 -0.0984  0.0899
28440W        W44334   3.529   2.726   3.123 -0.1674  0.1777 -0.0105
28441W        W44335  14.724   2.247   0.555 -0.1586  0.1571 -0.2366
28442W        W44336  15.931   6.176   2.869  0.0522  0.0758 -0.1292
28443W        W44337   3.069  16.241  12.644  0.0425 -0.0757 -0.2854
28444W        W44338   7.974   0.703   0.884  0.1603 -0.2784  0.1243
28445W        W44339  17.733   3.372  11.364  0.3304 -0.0465 -0.1302
28446W        W44340  12.295   0.708   3.572 -0.2999 -0.0653  0.0724
28447W        W44341   8.724  16.128  10.089 -0.0670  0.0437 -0.2001
28448W        W44342   9.567   5.643  12.530 -0.0493 -0.2416  0.1478
28449W        W44343  12.735  11.882  14.729 -0.4135 -0.0576  0.1695
28450W        W44344  10.155  15.159  13.911 -0.2994 -0.2679  0.0190
28451W        W44345   4.359  12.027   0.243 -0.0939 -0.3235 -0.2249
28452W        W44346   6.475   2.597   1.662 -0.2464  0.0452  0.3494
28453W        W44347  11.488  15.560   2.657 -0.2089 -0.0799 -0.0708
28454W        W44348   1.805   7.240  14.439  0.1736 -0.2002 -0.0753
28455W        W44349  10.200   2.504  13.478 -0.1804 -0.2090  0.0137
28456W        W44350   4.355  15.192  14.604  0.1904  0.1601  0.1578
28457W        W44351  10.208  16.362  10.738  0.3591  0.4350 -0.0715
28458W        W44352  14.497  17.705  14.646  0.1501  0.1117 -0.3168
28459W        W44353  11.555   1.755  12.942 -0.1262 -0.0187 -0.0379
28460W        W44354   1.067  18.498  14.188 -0.2010 -0.0901  0.4764
28461W        W44355   3.286   0.640   4.465 -0.1568  0.1077 -0.0589
28462W        W44356   7.161   8.526   3.577  0.1154  0.2959 -0.1384
28463W        W44357  13.818  17.805   1.779 -0.0369  0.1372 -0.1161
28464W        W44358  12.341   4.137   2.474 -0.2148 -0.1434  0.1171
28465W        W44359   4.937   3.083   4.295  0.1174  0.1224  0.1804
28466W        W44360   8.268   6.264   4.635 -0.1260  0.3674 -0.1052
28467W        W44361  10.890   4.944  13.379 -0.2505  0.1166  0.0358
28468W        W44362   5.502   9.912   2.639  0.1200 -0.2338  0.0206
28469W        W44363  13.539  18.828   2.868 -0.1197  0.0580  0.0641
28470W        W44364   6.326  18.668   0.472  0.2287  0.1529  0.0215
28471W        W44365   8.899  10.595  11.938  0.0498 -0.1469 -0.0638
28472W        W44366  12.009  17.039  10.923 -0.1140  0.1940 -0.0278
28473W        W44367  14.892  17.003  10.664 -0.0794  0.3960  0.0987
28474W        W44368  14.715   5.630   2.335 -0.0200 -0.1634  0.2303
28475W        W44369  11.282   1.470   4.006 -0.2870  0.0979 -0.0076
28476W        W44370  13.880   6.554  13.491 -0.0345 -0.1545  0.2360
28477W        W44371   0.994  10.060  11.595 -0.0275 -0.0574  0.0438
28478W        W44372   6.664  17.832   2.874  0.2912 -0.0987 -0.2786
28479W        W44373  14.152  10.836  13.700  0.1195 -0.3742  0.1116
28480W        W44374   5.380   5.197  10.378 -0.0276 -0.1764 -0.1184
28481W        W44375  12.215  16.284  12.272  0.0649 -0.0485  0.2971
28482W        W44376  15.642   5.646   5.240 -0.0232 -0.3260  0.0196
28483W        W44377   9.520   3.255   1.816  0.0036  0.0258 -0.2643
28484W        W44378  18.191   5.363   0.563  0.0397  0.1900  0.0956
28485W        W44379  17.381   9.287   5.399  0.0891 -0.0002  0.1012
28486W        W44380  10.492   4.145   1.885 -0.2042 -0.2011 -0.0547
28487W        W44381  17.309  18.756   2.972 -0.0507 -0.2816 -0.3419
28488W        W44382  18.494   6.603  11.096  0.1714  0.0170  0.0711
28489W        W44383  16.524   5.657   3.080 -0.1039 -0.1157  0.0585
28490W        W44384  11.636  15.164   4.198 -0.4338  0.2623 -0.3524
28491W        W44385  15.568  13.008   0.594  0.0100  0.1504  0.4829
28492W        W44386   9.042  10.616   3.152 -0.0442 -0.2960 -0.0748
28493W        W44387  16.149   7.456  14.953 -0.0235  0.4710 -0.2115
28494W        W44388  10.017   8.302   0.897  0.0865  0.3698  0.2799
28495W        W44389   6.297  12.098   3.994 -0.2583 -0.0984  0.1921
28496W        W44390  16.464  17.530  13.608 -0.1144 -0.2017 -0.0582
28497W        W44391  11.399  18.379  12.960  0.3824 -0.0101  0.2674
28498W        W44392  12.085   1.644   0.698 -0.0805  0.0146 -0.2908
28499W        W44393   8.857  17.086   3.177 -0.1734 -0.0881  0.0114
28500W        W44394  11.349  18.304   4.685 -0.2416 -0.1699  0.0821
28501W        W44395   7.674   5.114   2.759 -0.1395 -0.2266  0.0956
28502W        W44396   0.689   7.159  12.004  0.0721  0.0610  0.0110
28503W        W44397   3.828   5.551  11.047 -0.3304  0.2450  0.0535
28504W        W44398   2.833  10.869   2.751  0.0760 -0.0331  0.2095
28505W        W44399   5.416  18.262   2.332 -0.0377  0.1033  0.1007
28506W        W44400   2.429   4.986  11.579  0.0739 -0.2286  0.3055
28507W        W44401  10.052  13.424   4.783 -0.1239 -0.2719  0.1203
28508W        W44402  15.332  11.081  14.480 -0.0173 -0.2480 -0.0193
28509W        W44403   1.916   7.807  12.836  0.0024  0.1081  0.5184
28510W        W44404   2.499  13.341   5.722 -0.4067  0.0780 -0.1666
28511W        W44405  14.355   5.317  12.689 -0.3153  0.0211  0.1937
28512W        W44406   5.691  18.446  13.824 -0.0159 -0.2314 -0.2438
28513W        W44407   7.801  18.898  10.829  0.0823  0.0821  0.2165
28514W        W44408   2.408   6.717   1.032  0.0732 -0.0878  0.0576
28515W        W44409   7.734   1.894   4.032 -0.2445 -0.2085  0.3340
28516W        W44410   7.256   3.303  13.786  0.3515 -0.1521  0.1745
28517W        W44411  18.997  14.228   3.609  0.0156  0.2362  0.0555
28518W        W44412  14.059   0.536  15.018  0.0105  0.1578  0.0266
28519W        W44413   5.134  16.216   9.995  0.0922 -0.0678  0.1317
28520W        W44414   7.023   1.029  11.524  0.1082  0.1491 -0.0715
28521W        W44415  18.898   1.928  13.846  0.2006  0.2841 -0.0125
28522W        W44416   1.038  15.560  13.052  0.0713 -0.0424 -0.0199
28523W        W44417  17.713   4.715  12.955 -0.0876 -0.2220 -0.1374
28524W        W44418   3.831  16.670   1.054  0.0614  0.1927  0.2648
28525W        W44419   4.328  17.001  10.675  0.1432 -0.0001 -0.3758
28526W        W44420   8.220  16.768  12.217 -0.2887 -0.1400 -0.0289
28527W        W44421  10.232  11.205   5.103 -0.2293 -0.1241 -0.2435
28528W        W44422   1.900  10.140  11.847  0.3681 -0.0996  0.2957
28529W        W44423  15.297  15.075  10.882 -0.1650  0.5269 -0.5184
28530W        W44424  17.665  11.814  13.070  0.0279  0.0673 -0.2339
28531W        W44425  14.760   3.551  11.493  0.1571  0.2010  0.3248
28532W        W44426   2.342   7.085   0.705  0.2102 -0.1021 -0.2037
28533W        W44427  12.603  15.721   3.689  0.3063 -0.2471  0.1103
28534W        W44428  15.752  12.290   1.082  0.0685  0.2290 -0.1955
28535W        W44429   4.475   1.295   0.683 -0.4527  0.0799  0.0515
28536W        W44430  12.872  18.425  13.011  0.0377 -0.2040 -0.0749
28537W        W44431  18.370  14.925  14.088 -0.2100 -0.0839 -0.0645
28538W        W44432   6.246   5.832  13.147 -0.2856 -0.3314 -0.0727
28539W        W44433  12.512   0.513   0.153  0.0515  0.0437 -0.0553
28540W        W44434   9.984   2.270  12.820 -0.0900  0.2137  0.1047
28541W        W44435  17.236  15.820  14.296  0.0556 -0.0717 -0.0520
28542W        W44436   5.018  15.612  11.262  0.0550 -0.1800 -0.3620
28543W        W44437   7.240   2.258  14.763  0.1326  0.3552  0.0791
28544W        W44438   7.217  11.392   0.783  0.4512 -0.1167  0.0410
28545W        W44439   8.257  18.619   5.337 -0.0478 -0.3909  0.3376
28546W        W44440  17.671  14.204  12.759  0.0026  0.0007  0.1258
28547W        W44441   0.547   3.249   6.023 -0.1218 -0.1872  0.3286
28548W        W44442  10.479   3.641  14.878  0.0220  0.0801 -0.2505
28549W        W44443   1.987   7.370  11.814 -0.1322  0.0429 -0.0735
28550W        W44444   7.285   8.744  13.943  0.0457  0.4625  0.0867
28551W        W44445  17.454  12.646   2.471 -0.3062 -0.0972 -0.0027
28552W        W44446   7.205   9.672   4.388  0.0996  0.0898 -0.0086
28553W        W44447  11.122  10.385  11.506 -0.0269 -0.0179 -0.1426
28554W        W44448   2.214   1.542  13.160 -0.1229  0.0445  0.1827
28555W        W44449   5.154  15.815   2.158  0.1116  0.0613  0.1121
28556W        W44450   3.866   7.208   0.913 -0.0043 -0.2466 -0.2587
28557W        W44451   1.952  17.413   5.884 -0.0823 -0.3913  0.0408
28558W        W44452  13.121   4.313  15.138  0.0286  0.0666 -0.2471
28559W        W44453  10.175   2.347   2.622 -0.1682 -0.2086 -0.0060
28560W        W44454  13.721  11.672  12.006  0.0820  0.1420  0.1347
28561W        W44455  17.902  18.961   0.348  0.0750  0.1501 -0.0091
28562W        W44456  12.138   5.356  11.463  0.1042 -0.1077 -0.0823
28563W        W44457  12.826  12.101   2.280 -0.1042 -0.5166  0.2149
28564W        W44458   7.449   5.917   3.280  0.0871  0.0482 -0.2993
28565W        W44459  14.646   3.476   2.497  0.1547 -0.1292 -0.2974
28566W        W44460   8.890   4.896  10.491 -0.3105  0.0996  0.2103
28567W        W44461   6.773   2.177  14.595 -0.0453 -0.0140 -0.1305
28568W        W44462   2.340   9.228   1.953  0.1391  0.0046  0.0397
28569W        W44463   2.000   6.546   4.639  0.0568 -0.0235  0.0557
28570W        W44464  13.577  16.232   2.286  0.1621  0.2337 -0.0557
28571W        W44465   6.209  17.319  11.346 -0.0237  0.0256 -0.0939
28572W        W44466   5.697   2.675   5.183  0.0833  0.3083  0.0476
28573W        W44467   1.768   6.712  13.229 -0.0087  0.1293 -0.0807
28574W        W44468  16.460   8.421   4.031  0.4231  0.2890  0.1086
28575W        W44469   4.386  14.612   3.416  0.0110  0.5698  0.1078
28576W        W44470  13.109   2.043   4.040  0.0778 -0.3423 -0.3043
28577W        W44471  15.188  16.014   1.574 -0.2459 -0.0698 -0.2643
28578W        W44472   3.943  11.223  12.680 -0.1479 -0.1956  0.1779
28579W        W44473  17.161  19.159   5.089  0.1202 -0.3189  0.1367
28580W        W44474   2.347  16.638   1.572 -0.0659 -0.2630 -0.0714
28581W        W44475  17.412  13.525   3.482  0.1786 -0.1993  0.3087
28582W        W44476  10.687   5.296  14.291 -0.2341 -0.2296 -0.3738
28583W        W44477   6.415  11.301  14.896  0.0371  0.1342  0.1793
28584W        W44478   4.646  14.881   1.273  0.1427 -0.2394  0.1434
28585W        W44479   1.722  18.763  12.019 -0.3392  0.3611  0.2962
28586W        W44480  17.010  18.379  14.665 -0.1437 -0.0542 -0.3690
28587W        W44481   7.181   9.051   4.348 -0.2894 -0.0904  0.0757
28588W        W44482   6.036   4.871   2.512 -0.2459  0.1680  0.1317
28589W        W44483  14.363  17.508   1.942 -0.0659 -0.1894  0.1446
28590W        W44484  10.147   3.692   2.605  0.2434 -0.0142  0.2211
28591W        W44485  12.632  13.182  12.676 -0.4606 -0.2039 -0.2957
28592W        W44486   2.290   7.649   0.813  0.0781  0.2487  0.0331
28593W        W44487  11.670   5.863   1.936 -0.1453  0.0793 -0.0145
28594W        W44488   4.142   0.961   4.259 -0.2309  0.1300  0.6222
28595W        W44489   1.149   8.087   1.665 -0.0430 -0.1653 -0.0764
28596W        W44490  16.371   1.172  10.650  0.1513  0.0220 -0.2239
28597W        W44491  16.817  17.396  12.471 -0.0874  0.0049 -0.0067
28598W        W44492  19.174   1.990  14.273 -0.0295  0.0578 -0.0683
28599W        W44493  18.572   5.418  11.967 -0.3367  0.1185 -0.1939
28600W        W44494   1.774  10.660  11.857 -0.1608 -0.3502  0.0035
28601W        W44495   4.084   9.320  13.318  0.3203 -0.1648  0.0146
28602W        W44496   3.024  11.284  12.451  0.0583 -0.1379 -0.3895
28603W        W44497  16.960  16.740  13.598 -0.0071  0.0506 -0.2116
28604W        W44498  16.731  10.499  11.213 -0.1474  0.0086  0.1207
28605W        W44499  10.341   4.668   0.661 -0.3270 -0.0783  0.0957
28606W        W44500   2.857   0.216  11.736  0.1301 -0.1792 -0.0392
28607W        W44501   9.181  15.320   3.004  0.0523  0.1901 -0.2229
28608W        W44502  12.415  11.717  11.763  0.0237 -0.0129  0.0144
28609W        W44503   1.047  17.938  12.715 -0.0577  0.2551  0.0725
28610W        W44504   2.354   7.518  13.035 -0.0895  0.0692 -0.3262
28611W        W44505   5.506   9.002   3.524  0.2655  0.3509 -0.0362
28612W        W44506   0.750   4.528   1.777  0.4465 -0.0061  0.1999
28613W        W44507   0.681   4.842   0.913 -0.0495  0.0803 -0.3614
28614W        W44508   4.622  12.493  12.877  0.2883  0.2949 -0.2519
28615W        W44509   7.601  13.011  14.494 -0.0373 -0.0251  0.0110
28616W        W44510   1.141  18.585   4.900 -0.4866 -0.3300  0.0243
28617W        W44511  15.024   7.316  13.229 -0.1940  0.2367 -0.0350
28618W        W44512   3.607   9.731  14.128 -0.0923 -0.1946 -0.2211
28619W        W44513  15.982  10.052  12.202  0.1472  0.6607  0.2264
28620W        W44514   5.691  17.468   3.906 -0.0605 -0.0325  0.0787
28621W        W44515   7.370  11.267  10.306  0.2743 -0.0047  0.1437
28622W        W44516  19.109   7.164  14.994  0.2020  0.0433 -0.2974
28623W        W44517   7.271   1.372   0.848 -0.2672 -0.0085 -0.0777
28624W        W44518  15.716  17.871  13.392  0.0556 -0.2975  0.1481
28625W        W44519   6.604  13.586  10.831  0.3019 -0.1069  0.1164
28626W        W44520  13.323  17.481   4.378 -0.5308 -0.0786  0.2365
28627W        W44521   9.190   1.775  13.177 -0.0118 -0.0262 -0.0495
28628W        W44522   7.371   2.979   0.823  0.2056  0.0238  0.0895
28629W        W44523   9.924  16.188  12.125  0.1945  0.2514  0.1834
28630W        W44524  15.166   4.046   5.973  0.1045  0.1692 -0.0253
28631W        W44525  14.265   3.394  12.604  0.2732  0.1409 -0.0968
28632W        W44526  15.661   3.493   3.645  0.1361  0.2609 -0.0057
28633W        W44527  13.949   9.881  13.567  0.2031 -0.1027 -0.0890
28634W        W44528   9.637  17.258   4.029  0.3043  0.0839  0.3661
28635W        W44529   5.969   6.905  11.631 -0.0337  0.0153 -0.3061
28636W        W44530   4.297  16.293  12.024 -0.0123  0.1571  0.0988
28637W        W44531  14.931  15.214   5.060 -0.1324 -0.0578  0.3760
28638W        W44532  17.150   3.775   2.125  0.1093  0.0071 -0.2790
28639W        W44533   3.247   3.663   3.726 -0.0006  0.0359 -0.1175
28640W        W44534  14.108   7.579   0.493 -0.4030  0.2120 -0.2804
28641W        W44535   9.527  19.113  12.845 -0.0934  0.0299  0.0712
28642W        W44536  14.842  12.547  10.474 -0.3447 -0.0325 -0.2121
28643W        W44537  15.831   6.149  10.981 -0.4525  0.0886  0.1189
28644W        W44538  16.106   3.228   3.783  0.0434  0.3221  0.0021
28645W        W44539   7.649  19.041   0.490 -0.1757  0.1619 -0.0579
28646W        W44540   1.938   0.146   3.666  0.0554  0.3224  0.1600
28647W        W44541   6.193  18.838  10.655  0.1908  0.0148 -0.2701
28648W        W44542  16.548   5.211  10.960  0.2229 -0.0402  0.2279
28649W        W44543  17.903  11.136   4.773 -0.2418 -0.1017  0.3243
28650W        W44544   2.557  14.771  11.722 -0.0873  0.3109  0.2346
28651W        W44545   6.823   3.655   3.446  0.1501 -0.1364  0.1041
28652W        W44546  14.766  11.393   0.338 -0.2751 -0.1231 -0.0661
28653W        W44547  10.219   7.145  14.618  0.0875  0.2605 -0.2466
28654W        W44548  13.999  14.873   0.586 -0.2308 -0.0906 -0.3620
28655W        W44549  14.158   3.556   2.597  0.1826  0.0187 -0.1520
28656W        W44550   3.295   0.480  11.706 -0.1698 -0.3003 -0.0117
28657W        W44551  10.621  16.600   0.028  0.1232  0.1342 -0.2066
28658W        W44552   2.623   4.847  13.494  0.2275  0.3040 -0.0614
28659W        W44553   5.192   7.295   2.125  0.2073  0.2985 -0.2341
28660W        W44554  15.508   5.356   3.021 -0.2098 -0.3059 -0.0341
28661W        W44555   6.831  16.215   0.575  0.3197 -0.2758  0.4834
28662W        W44556  15.965   5.350   3.904 -0.0393 -0.0117 -0.0196
28663W        W44557  12.709   5.407   2.326  0.0097 -0.3439  0.2847
28664W        W44558  13.066  10.806   3.346  0.0123  0.1953  0.2178
28665W        W44559   5.542   7.462   4.309 -0.1466 -0.0388 -0.0073
28666W        W44560   0.794   1.019  14.184  0.0285 -0.3970  0.2189
28667W        W44561  12.055   0.582  12.435 -0.2875 -0.1417  0.0170
28668W        W44562  15.461  14.004  14.320 -0.1925  0.1836 -0.1196
28669W        W44563   2.983   6.554   0.309  0.1715 -0.2549 -0.1675
28670W        W44564   5.965  16.181  14.894 -0.2171 -0.1577  0.5313
28671W        W44565   2.552  14.113   3.262 -0.1735 -0.2143  0.2413
28672W        W44566   2.648   0.112  10.726 -0.4069 -0.1569  0.1250
28673W        W44567   5.128   7.591   3.228  0.1852  0.0599 -0.0699
28674W        W44568  12.900   5.158  13.782 -0.0630 -0.0970 -0.0162
28675W        W44569  19.036  16.548   1.863  0.1575 -0.2423 -0.1200
28676W        W44570   8.152  17.842   3.136  0.0931 -0.0796 -0.0691
28677W        W44571  18.379   6.295   1.636  0.0857 -0.2785  0.1473
28678W        W44572  11.825   7.190   4.763 -0.0732  0.2508 -0.0652
28679W        W44573   3.769   7.877  11.595 -0.0082  0.2197  0.3229
28680W        W44574  12.803   7.104   3.651  0.0540 -0.1022  0.0536
28681W        W44575  15.015  18.378  10.121  0.0575  0.2184  0.0677
28682W        W44576  15.773   7.673   9.604  0.3857 -0.1078  0.0868
28683W        W44577   1.011  16.989  14.789 -0.0424 -0.0222 -0.0204
28684W        W44578  14.934   7.478   3.170  0.0970  0.0782  0.0524
28685W        W44579  10.227   3.432   5.949  0.0455  0.1123 -0.4059
28686W        W44580   9.159  12.340   3.237  0.4781  0.1325  0.1515
28687W        W44581   3.234  18.223  12.646  0.0866 -0.2371 -0.1036
28688W        W44582   0.011  14.126   5.086 -0.2573 -0.1988  0.0690
28689W        W44583   7.899   1.193  14.415 -0.1796  0.4337 -0.2194
28690W        W44584  14.422   7.861   5.216  0.3209  0.0798 -0.0526
28691W        W44585  18.241  15.675   2.417 -0.1504  0.1047 -0.0319
28692W        W44586   8.802  12.331   4.557  0.1284  0.0828 -0.3217
28693W        W44587  16.770  15.838   2.955  0.0865  0.1373 -0.1173
28694W        W44588   9.606  15.314   4.563  0.2065 -0.0094 -0.1347
28695W        W44589  10.492  10.690  13.321  0.2196  0.2168 -0.1890
28696W        W44590   0.301   4.574  14.109 -0.2545  0.0414 -0.1297
28697W        W44591   4.388  18.680  13.168 -0.0690  0.0573 -0.0587
28698W        W44592   7.042   3.581  12.121 -0.1990  0.4847 -0.0203
28699W        W44593  16.525  17.809  11.178  0.0490  0.0703  0.5160
28700W        W44594  14.087  12.560  12.083 -0.1007 -0.0655  0.1208
28701W        W44595  13.584  11.222  13.438  0.1051  0.1032  0.3110
28702W        W44596  15.838   6.948  12.196  0.2158  0.0717  0.3728
28703W        W44597   9.050   5.856   3.356 -0.0495  0.3028 -0.2217
28704W        W44598   6.793   8.951  12.544 -0.0032 -0.2396 -0.2272
28705W        W44599   8.742   3.481   5.598 -0.1251 -0.1574  0.0496
28706W        W44600  15.853  19.106  14.148 -0.0374  0.0708  0.0495
28707W        W44601   0.218   1.606   5.962 -0.2590  0.0604 -0.2378
28708W        W44602  16.211  13.762   4.762 -0.0339  0.1404 -0.1024
28709W        W44603  18.139  11.915  13.248 -0.2519 -0.2592  0.0354
28710W        W44604   0.003   3.580   0.128 -0.1503 -0.1561 -0.1135
28711W        W44605  12.512   8.854   0.050  0.0368 -0.2044 -0.0281
28712W        W44606   1.245  14.002   0.011  0.1256 -0.0064 -0.1868
28713W        W44607   6.541  15.314  10.990  0.1242 -0.2598  0.0995
28714W        W44608  16.269   5.655  11.813  0.1482 -0.1161 -0.0742
28715W        W44609   9.450   6.903  15.046 -0.0198 -0.4320  0.1611
28716W        W44610  11.305  12.500  11.419 -0.1305  0.4932  0.2214
28717W        W44611   6.617  15.252  10.478  0.0011 -0.1597 -0.2116
28718W        W44612   4.353  12.769   9.884 -0.3605 -0.1717  0.1213
28719W        W44613  13.652   5.391   0.830  0.0070 -0.0823 -0.2935
28720W        W44614  12.861   7.579   4.021  0.1084  0.5076 -0.4030
28721W        W44615   6.905   3.027  13.605 -0.1456 -0.0244  0.0668
28722W        W44616  19.053  15.438  11.042 -0.0206 -0.1045 -0.4568
28723W        W44617   6.351  15.571   0.863  0.0072 -0.0934  0.0494
28724W        W44618   1.127   5.817  12.117 -0.1571  0.1738  0.0684
28725W        W44619   5.975   4.403  10.806 -0.1138 -0.2049  0.0682
28726W        W44620   1.213   5.686   5.012  0.0527  0.0566  0.3262
28727W        W44621  14.387  12.458  10.164  0.0919 -0.2229 -0.0271
28728W        W44622   3.311   6.346  13.546  0.1417 -0.0747  0.1976
28729W        W44623  13.779  13.952  11.472  0.2364  0.1191 -0.1207
28730W        W44624  14.556  13.308  11.462 -0.0302 -0.2568 -0.2951
28731W        W44625   0.057   7.595   0.143  0.1496 -0.4007  0.0210
28732W        W44626  14.571  16.466  10.795  0.2008  0.1421  0.2539
28733W        W44627  12.470   0.376   5.919  0.0148  0.3035 -0.1010
28734W        W44628   3.721  15.691  14.203  0.0940 -0.0342 -0.0941
28735W        W44629  15.578  10.820   3.923  0.1108 -0.0330 -0.1192
28736W        W44630   1.189  11.038   2.314 -0.0791  0.4507  0.2377
28737W        W44631   3.800   5.356  11.820 -0.1977 -0.2847 -0.1934
28738W        W44632   5.034   1.222  13.833 -0.2060  0.1635 -0.1358
28739W        W44633   6.749  18.010   4.249  0.0207  0.1752  0.1540
28740W        W44634  11.202   4.980   1.544 -0.0348  0.0343  0.1050
28741W        W44635  13.712  17.063   2.745  0.0468  0.0976  0.0406
28742W        W44636  10.868  14.906   2.982  0.0972 -0.0710 -0.0598
28743W        W44637   0.732  14.767  13.711  0.0362  0.4455 -0.0180
28744W        W44638   6.382  12.008   0.723  0.1421 -0.2652  0.1011
28745W        W44639   7.975   8.432   3.079 -0.0945  0.2336  0.3412
28746W        W44640  15.921  15.596  14.678 -0.3235  0.0140 -0.1651
28747W        W44641  17.554   0.561   0.683  0.0045  0.2111 -0.0112
28748W        W44642  15.407   0.326   1.793 -0.1328 -0.1611 -0.1925
28749W        W44643  14.807  11.470   3.717 -0.0401  0.0528 -0.0177
28750W        W44644  12.988  18.005   2.150  0.1230 -0.1532  0.1212
28751W        W44645   9.093  15.050   4.625  0.1144  0.0991  0.4430
28752W        W44646   8.080  16.019  11.117  0.0332  0.2298  0.1831
28753W        W44647   3.657  15.580  12.829 -0.1368  0.1061  0.3363
28754W        W44648   2.631  14.150   0.560  0.1987 -0.2338  0.0062
28755W        W44649   6.981  16.249  12.506  0.1047 -0.2537  0.2271
28756W        W44650   4.552   4.188   3.164  0.1194 -0.2828  0.0596
28757W        W44651  15.477  14.861  11.311 -0.1241  0.4723  0.1443
28758W        W44652   5.447  15.659  11.640 -0.0900  0.0978 -0.3511
28759W        W44653   2.204   0.167  13.807  0.3741 -0.0306  0.2457
28760W        W44654   8.671  12.653   3.944  0.0839  0.3553 -0.0766
28761W        W44655  10.789  16.085  13.214 -0.0629  0.1904 -0.2805
28762W        W44656  10.368   3.707   0.594 -0.0070 -0.0548  0.1944
28763W        W44657   7.591   9.650   1.051  0.4943 -0.3949  0.1268
28764W        W44658   7.175   4.433  13.082 -0.1342  0.0720  0.1616
28765W        W44659   7.258   3.985   1.140  0.1951  0.1483  0.2522
28766W        W44660   7.492  15.981   4.411  0.0730 -0.0362  0.0235
28767W        W44661   9.531   1.120   4.526 -0.0517 -0.2601 -0.2483
28768W        W44662  12.614   2.968  14.690 -0.1479  0.0120  0.4364
28769W        W44663  12.934  16.237   9.728 -0.0275 -0.1009 -0.0295
28770W        W44664   5.545   9.100   0.923  0.0991  0.1146 -0.0481
28771W        W44665   9.547   2.135  11.026  0.3182 -0.3208  0.1483
28772W        W44666   5.263  14.979  11.723  0.0587 -0.1877 -0.1454
28773W        W44667   6.418   4.358  14.080  0.0789  0.1725 -0.0128
28774W        W44668   8.933  17.956  10.601  0.1522  0.1002 -0.1422
28775W        W44669   2.328  14.116  13.408 -0.3342  0.1475 -0.2023
28776W        W44670   3.270  16.413   3.597 -0.0319 -0.0921 -0.1597
28777W        W44671  13.517  15.245   2.839 -0.1645  0.0443 -0.1285
28778W        W44672   2.600  17.680  14.743  0.3369  0.1548 -0.0869
28779W        W44673   3.791  16.088   1.356 -0.3485 -0.1480  0.3290
28780W        W44674   6.803   8.810   2.105  0.0393  0.0256 -0.1205
28781W        W44675   2.581  17.313  12.695 -0.1653 -0.2843 -0.0782
28782W        W44676  15.033  18.587  14.697 -0.0449  0.0489  0.1645
28783W        W44677   4.746  14.279  11.921  0.0982 -0.0158 -0.1703
28784W        W44678  11.764  10.387   5.293  0.0102 -0.0373  0.3108
28785W        W44679   1.381   9.896  14.489 -0.0128 -0.1986  0.0567
28786W        W44680   9.673  12.483   3.281 -0.2340 -0.0281  0.2827
28787W        W44681  10.671  14.433   0.056 -0.1686  0.1244 -0.1929
28788W        W44682  10.383  14.009  13.974  0.2425  0.1333  0.0457
28789W        W44683   2.968   4.691  14.535 -0.0289 -0.1546 -0.1011
28790W        W44684   7.397  15.963   0.240 -0.2375  0.0878  0.0834
28791W        W44685   2.561   8.585  11.862  0.0492  0.3225  0.0535
28792W        W44686   2.987  17.930   0.042  0.1486 -0.1116 -0.0508
28793W        W44687   2.542  13.965  14.419  0.0962  0.1580  0.1557
28794W        W44688   4.748   6.239   4.730 -0.3727 -0.0045  0.2133
28795W        W44689  16.519  14.269  12.549  0.4582 -0.0398  0.2364
28796W        W44690  17.877  11.264   1.198  0.1707 -0.1486  0.0736
28797W        W44691  15.154  13.328   3.897 -0.2539  0.3203  0.0648
28798W        W44692  16.771   8.011   2.902  0.1557 -0.0844 -0.0737
28799W        W44693  15.705   3.432  12.262 -0.0406 -0.1182 -0.3881
28800W        W44694   9.881   5.689  11.408  0.0573 -0.2647  0.0090
28801W        W44695  17.258   4.005   2.557 -0.0738  0.0089  0.0403
28802W        W44696   4.214   6.365  11.433 -0.2192 -0.0078 -0.2353
28803W        W44697   4.239  14.531   4.781 -0.1112 -0.3007  0.3106
28804W        W44698  16.993  16.773  14.064  0.2806  0.0681 -0.0285
28805W        W44699  10.803   8.095   0.700 -0.3594 -0.0238  0.1601
28806W        W44700  11.164   2.671   0.604 -0.0491  0.2563  0.1315
28807W        W44701  11.458   0.184   2.639  0.3987 -0.1815 -0.2507
28808W        W44702  12.225   2.004  13.506  0.0141 -0.1224 -0.0984
28809W        W44703  14.324   6.206   5.670  0.0202  0.2484 -0.0550
28810W        W44704  18.935  13.264   1.543 -0.1303 -0.3117 -0.1569
28811W        W44705   7.842  11.967   2.513  0.1406  0.1760 -0.0211
28812W        W44706   4.815  10.428   0.774  0.0269 -0.0287 -0.2153
28813W        W44707  10.686  11.877   2.123  0.1822  0.0682 -0.3113
28814W        W44708   5.700   5.052  13.097 -0.2290 -0.1815 -0.2077
28815W        W44709   2.761  14.408   4.141 -0.0426 -0.0096 -0.0473
28816W        W44710   3.285   3.589   4.263 -0.3118 -0.0298  0.2735
28817W        W44711   4.718  10.114   1.541  0.1249  0.1111 -0.0960
28818W        W44712  14.920  17.021   3.756  0.0115  0.1527  0.2417
28819W        W44713   6.968  11.464   1.769  0.3440 -0.3161  0.1210
28820W        W44714  15.419   5.909  14.621 -0.0309 -0.3523  0.0162
28821W        W44715  10.191  17.274  10.920  0.1691  0.0730  0.0225
28822W        W44716  12.316   9.698   0.562  0.0960 -0.1295 -0.2924
28823W        W44717   3.909  10.771  14.975  0.1124  0.3160 -0.1092
28824W        W44718   5.671  11.641  12.229 -0.2515 -0.1548  0.0344
28825W        W44719   1.955  15.906  14.510 -0.0527  0.0548 -0.0095
28826W        W44720   5.017   6.353  13.831  0.0831 -0.2283 -0.3188
28827W        W44721   3.096  18.355  11.036  0.0397 -0.1777 -0.0059
28828W        W44722   6.443   6.711  14.002 -0.1911  0.3367  0.2868
28829W        W44723  18.020  11.889   2.543 -0.2178 -0.0681  0.2447
28830W        W44724   7.251  18.881  10.460  0.1719 -0.0678 -0.1595
28831W        W44725  18.556   7.946  10.627 -0.2151 -0.2965 -0.0031
28832W        W44726  14.078  10.870   3.450  0.1834 -0.5757  0.1319
28833W        W44727  11.683   0.946   2.404 -0.0798  0.0400  0.0277
28834W        W44728   7.220  11.432  11.755 -0.2537  0.1875  0.0057
28835W        W44729  13.827   1.711  14.256 -0.4304 -0.3063 -0.0854
28836W        W44730   2.024   3.553  14.731  0.0846  0.3231  0.0944
28837W        W44731   8.991   8.534  11.136 -0.0070  0.0583  0.0608
28838W        W44732  16.786  13.521   1.347 -0.1751  0.1328 -0.0535
28839W        W44733   0.299  16.610  13.816 -0.0536  0.2779  0.2652
28840W        W44734  10.409   3.710  12.089  0.1068  0.1154 -0.0286
28841W        W44735   5.432   0.125  13.439 -0.0451 -0.3567 -0.0183
28842W        W44736   2.400  18.103   1.855  0.1465 -0.2330  0.0875
28843W        W44737   3.900   9.376  12.878  0.5857 -0.1013 -0.0133
28844W        W44738   3.799   8.808   1.596 -0.2174  0.0492 -0.1151
28845W        W44739  18.461   9.645   4.655  0.3344  0.3456  0.0718
28846W        W44740  14.354  11.805   0.862  0.1914  0.2845  0.2899
28847W        W44741  17.353   1.339  11.502  0.0038  0.1642 -0.2781
28848W        W44742  10.475  12.086   3.054  0.1126  0.0703  0.1518
28849W        W44743  18.982   0.763   0.667  0.1035  0.3232  0.0669
28850W        W44744  10.581   2.060  11.252 -0.1400 -0.0362  0.1970
28851W        W44745   8.329  15.462  12.170  0.1136  0.3069  0.0206
28852W        W44746  17.078  10.872   4.786 -0.2157 -0.0533  0.2947
28853W        W44747  15.596   0.530  12.782 -0.3127  0.3102  0.2462
28854W        W44748   8.864   4.653   0.482  0.1469 -0.1220 -0.2643
28855W        W44749  18.988  18.792   5.859  0.4346 -0.3285 -0.2106
28856W        W44750   5.631  10.757  14.982  0.3987 -0.6849  0.0045
28857W        W44751   7.329   8.082   2.788  0.2471 -0.3206 -0.1581
28858W        W44752  14.346   4.108  13.073  0.4326 -0.2514  0.0142
28859W        W44753  16.897   4.157   4.837 -0.0949  0.1003  0.0301
28860W        W44754  10.649   8.388   2.612 -0.1323 -0.0593  0.1612
28861W        W44755   3.813  12.900  10.124  0.0646  0.4728  0.0713
28862W        W44756  10.863   2.339  14.931  0.1106 -0.0430  0.0304
28863W        W44757   3.472   4.871   4.143  0.0096  0.2485  0.1490
28864W        W44758   2.593   0.947   3.677 -0.0296  0.0640 -0.2209
28865W        W44759   7.727  16.846   4.777 -0.0200 -0.0882 -0.2258
28866W        W44760  18.641   4.006   3.274 -0.5345 -0.0091 -0.2627
28867W        W44761  10.657  10.304  14.958 -0.0151  0.0941  0.0566
28868W        W44762   5.860  12.021  14.776 -0.2198 -0.2212  0.0938
28869W        W44763   3.398  18.675  10.765  0.0792 -0.2298 -0.1681
28870W        W44764  17.648   5.402   0.792 -0.1550 -0.2970 -0.1027
28871W        W44765   3.149  13.217  13.914 -0.1374 -0.3634 -0.2740
28872W        W44766   9.832   4.623   0.402  0.0971 -0.0515 -0.1988
28873W        W44767  14.349  15.808  12.263  0.0224 -0.2347  0.2813
28874W        W44768   6.207   4.698  12.043  0.1779  0.4410 -0.2506
28875W        W44769   1.819   4.940   0.335  0.0201  0.0819  0.0784
28876W        W44770   1.808  16.245   5.497 -0.1823  0.0706 -0.0167
28877W        W44771   4.875   8.289  15.127  0.1994 -0.2728  0.4525
28878W        W44772  10.897  13.985   0.173 -0.0344  0.6711  0.3515
28879W        W44773  12.243   9.250   0.342 -0.1380  0.1992  0.4305
28880W        W44774  16.534   8.442  12.995  0.2067 -0.1972 -0.2175
28881W        W44775  17.969  17.330  11.609 -0.0002  0.3212 -0.0721
28882W        W44776   5.112  11.642  13.018  0.0827 -0.3393  0.4281
28883W        W44777   5.315  10.924   3.191  0.2363  0.1112 -0.0720
28884W        W44778   6.853   4.629  12.752  0.2379  0.1815 -0.0631
28885W        W44779  17.913  12.500  14.969  0.0302  0.0565  0.0525
28886W        W44780  15.522   5.125  14.004  0.2344 -0.0996  0.0156
28887W        W44781   2.883   9.071   2.450  0.1292  0.0858 -0.3272
28888W        W44782   9.184   4.403  12.508  0.0383 -0.1028  0.2442
28889W        W44783  11.931   4.482  11.094  0.0947 -0.3458  0.1297
28890W        W44784  10.221   2.425  14.822  0.1334  0.0906 -0.1908
28891W        W44785   6.643   9.936   1.942 -0.1403  0.0490  0.1746
28892W        W44786  14.983   3.407  11.003 -0.4770 -0.1156 -0.2291
28893W        W44787   8.675  12.420  10.275  0.0365 -0.0341 -0.0385
28894W        W44788   4.819   8.796   0.280  0.0634  0.0684 -0.6919
28895W        W44789   6.826   8.162  14.487  0.0355 -0.3243  0.1566
28896W        W44790  13.913   3.387  11.806 -0.0794  0.4401  0.2011
28897W        W44791   9.345  14.785  11.452 -0.2866 -0.1790 -0.1232
28898W        W44792   8.027  17.784   2.448  0.2836  0.4399  0.2638
28899W        W44793  18.594  12.006  12.618  0.0091  0.0446  0.1682
28900W        W44794   5.196  16.050  14.311  0.0551 -0.1019 -0.0300
28901W        W44795  15.354   9.824  14.720  0.0523  0.1576 -0.1504
28902W        W44796  17.775  13.181  10.790 -0.1913  0.0932  0.0100
28903W        W44797  14.529  15.940  10.872 -0.0738  0.1083 -0.2083
28904W        W44798  11.788  17.318   3.271  0.0028 -0.0090 -0.1230
28905W        W44799  12.847  18.120  15.139 -0.0885 -0.0521 -0.1105
28906W        W44800  10.284  18.403   1.844  0.1970  0.2267  0.0304
28907W        W44801  11.808  10.569   4.452  0.0706 -0.0145 -0.4528
28908W        W44802   5.210   6.374  11.504  0.0744  0.1683  0.1465
28909W        W44803  10.513   7.926  10.889  0.1503  0.0449 -0.0186
28910W        W44804   5.371   0.445   9.763  0.0578 -0.0927 -0.4547
28911W        W44805  12.067   6.645   5.224  0.0358 -0.0729  0.1133
28912W        W44806   3.520  13.440   1.958 -0.0270  0.3273 -0.0107
28913W        W44807  11.100   0.302   2.056  0.5193 -0.1280 -0.1116
28914W        W44808   3.351  17.268   0.422  0.0428  0.0733 -0.0901
28915W        W44809   2.081  14.176   2.231  0.0190 -0.1146  0.0271
28916W        W44810  16.785   8.910  11.358  0.2787  0.1554 -0.1087
28917W        W44811  15.068  17.294   0.938 -0.0352  0.0995  0.2852
28918W        W44812  17.659   5.767   1.101  0.0578  0.1251 -0.0687
28919W        W44813   7.434  13.847   2.500  0.0432 -0.2857 -0.1236
28920W        W44814   6.262   2.717   2.881 -0.2288 -0.0522 -0.0519
28921W        W44815  17.134  11.556   2.325 -0.0236  0.2341  0.0518
28922W        W44816  11.265   9.408  12.452 -0.2803 -0.1816  0.0918
28923W        W44817   5.023   5.044  10.754 -0.3681 -0.1598 -0.1420
28924W        W44818   4.501  15.270  14.130  0.0318  0.0078  0.0440
28925W        W44819   3.867   7.755  10.584 -0.0214  0.0301 -0.2512
28926W        W44820  18.592  15.105   1.415 -0.1775 -0.0680 -0.1802
28927W        W44821   4.882   2.251  10.659  0.1035  0.2163 -0.3342
28928W        W44822   6.868   6.288  12.810 -0.2252 -0.1317  0.1271
28929W        W44823   7.145  14.210  14.031 -0.2085  0.2424  0.1291
28930W        W44824  11.419   8.101  12.381 -0.0840  0.4253 -0.0875
28931W        W44825  18.033   2.685  14.653  0.1023  0.0243 -0.1628
28932W        W44826  13.228   1.731   4.699  0.3379 -0.1560  0.2774
28933W        W44827   9.962   4.924   4.932 -0.0933  0.0091  0.0962
28934W        W44828  11.385  12.795  14.804  0.1331 -0.1236 -0.0775
28935W        W44829   7.533   7.636  12.955  0.2667  0.2736 -0.0244
28936W        W44830   5.130   9.128   0.085 -0.3004 -0.2843 -0.3948
28937W        W44831   7.645   0.906   4.669  0.0736  0.1256  0.0958
28938W        W44832   5.035  18.022  13.514 -0.3865  0.0204  0.2775
28939W        W44833  10.759   2.437  11.654  0.0354  0.0881  0.0899
28940W        W44834   2.705   1.243  11.633 -0.1800 -0.2348 -0.1722
28941W        W44835  10.373  16.480   0.502 -0.1514 -0.1341  0.2757
28942W        W44836  17.247   2.919   5.048 -0.1717 -0.0817 -0.0698
28943W        W44837   3.679  10.828  10.656 -0.0153 -0.1476  0.2408
28944W        W44838  12.640  10.838   4.284 -0.2451  0.2060  0.1833
28945W        W44839  19.036  13.947   4.622  0.0408  0.1767  0.2235
28946W        W44840   3.894   8.838   2.096 -0.0963 -0.0137  0.0823
28947W        W44841  16.401   9.485  10.833 -0.2087  0.1475 -0.0618
28948W        W44842   5.671   5.768   3.373 -0.2354 -0.0075  0.1255
28949W        W44843   1.276  13.915   1.619 -0.1282  0.0414 -0.0449
28950W        W44844   2.357   0.147  12.528 -0.0601  0.0283 -0.1834
28951W        W44845   8.768  17.003  13.373 -0.3238  0.0304 -0.0392
28952W        W44846   2.186  17.255   3.254  0.0257  0.1801  0.1172
28953W        W44847  13.205   8.462   0.542 -0.1906  0.1554  0.2827
28954W        W44848   8.200   2.163   4.004 -0.3298  0.2697 -0.1206
28955W        W44849  12.441   3.728   5.432 -0.1936  0.2985  0.3547
28956W        W44850  17.037  16.272   1.524  0.0889  0.0214 -0.1856
28957W        W44851   5.601  13.408  13.287  0.0013  0.0501 -0.2359
28958W        W44852  10.152   8.635   9.924  0.2104  0.2558 -0.0332
28959W        W44853   7.896   7.585  10.543  0.0199 -0.1205 -0.0129
28960W        W44854  13.298   6.589   1.172 -0.4053  0.2826  0.4905
28961W        W44855   7.648  17.437   3.821 -0.0960 -0.1722 -0.1146
28962W        W44856   6.307   9.829  10.199  0.0824  0.1750 -0.0970
28963W        W44857  15.391   9.942   3.555  0.0593 -0.3141 -0.0529
28964W        W44858  18.499  13.314   1.759  0.1503  0.0571  0.0791
28965W        W44859  17.618   4.655   0.046  0.3409 -0.1185 -0.0683
28966W        W44860  17.490  11.722   2.626  0.1204 -0.0059  0.1464
28967W        W44861   3.357   7.020  13.738  0.0129 -0.0690  0.3123
28968W        W44862   5.003   6.375   2.068 -0.1225 -0.0686  0.0419
28969W        W44863   0.277  18.170   4.557 -0.2844 -0.0833  0.0664
28970W        W44864   0.302  17.060   0.188  0.2610 -0.2475 -0.0798
28971W        W44865   5.019   1.073   4.786  0.0380  0.3095  0.3292
28972W        W44866   6.136  10.262   4.362 -0.0715 -0.0174 -0.1478
28973W        W44867   9.531  10.707   1.184 -0.1841 -0.0057  0.0986
28974W        W44868   0.484  11.098   1.923 -0.4480  0.2623 -0.0531
28975W        W44869  18.879  11.908   4.885  0.1120 -0.0406  0.0210
28976W        W44870  10.475  16.520  13.721  0.0817  0.0591 -0.1589
28977W        W44871  15.435   5.556  14.959 -0.0852 -0.0403 -0.0587
28978W        W44872   8.906  10.740   4.287  0.2009 -0.0070 -0.3637
28979W        W44873   1.560   5.911  12.887  0.2068  0.0641  0.1176
28980W        W44874  13.251  14.515   3.581  0.0251  0.2349  0.0567
28981W        W44875   8.696  12.696  15.126 -0.3035  0.0591 -0.0534
28982W        W44876   0.954  12.971  15.165 -0.0038  0.1713  0.0189
28983W        W44877  15.436   9.821  12.334 -0.2512 -0.0940  0.2769
28984W        W44878   8.268   0.825   2.721  0.1416 -0.0205 -0.1570
28985W        W44879  16.808   2.160   0.378  0.1110 -0.0796 -0.0301
28986W        W44880  11.669  12.875  11.560 -0.0252 -0.0500 -0.3333
28987W        W44881   4.554  15.894  11.258  0.0535  0.1482  0.1086
28988W        W44882   7.507  13.258   2.449  0.2869 -0.1715  0.1354
28989W        W44883  17.502   0.178   3.772  0.4441  0.0131 -0.0816
28990W        W44884  12.347   0.990   3.103  0.0902 -0.0933  0.4016
28991W        W44885   2.193   1.730   0.034  0.1205  0.1343  0.0703
28992W        W44886   1.695  16.667  14.232  0.0402  0.0779 -0.1424
28993W        W44887   2.195  11.312   2.453  0.1099 -0.1335  0.0385
28994W        W44888  15.886  12.344  12.463 -0.1254  0.3960 -0.1014
28995W        W44889   9.772   6.208   0.601 -0.1965  0.3846 -0.1241
28996W        W44890   4.556   6.084  12.468 -0.1278  0.0454  0.1416
28997W        W44891   4.626   6.463   2.923  0.3256 -0.1599 -0.0024
28998W        W44892  12.244   5.218  14.483 -0.0412  0.1058 -0.1546
28999W        W44893   8.167   6.439  12.030  0.2829  0.0347  0.0211
29000W        W44894  15.323  12.030   1.805  0.0883  0.0585  0.2288
29001W        W44895   4.345   0.368  13.624  0.4583  0.0777  0.0570
29002W        W44896   4.244  10.046   1.405  0.2267 -0.1486  0.0411
29003W        W44897   1.145   3.513   3.004  0.1758  0.1408  0.4045
29004W        W44898  18.269   4.825   0.619  0.3256  0.4085 -0.3752
29005W        W44899   6.431   7.486   3.539 -0.2220  0.1307  0.0975
29006W        W44900   8.442   1.415   4.662  0.2289 -0.1532 -0.1292
29007W        W44901  17.588  10.009   0.404  0.1084 -0.0188  0.2042
29008W        W44902   3.698  10.170  13.930  0.2927 -0.1330 -0.0900
29009W        W44903   1.128  18.152   2.063 -0.2189 -0.0155 -0.1769
29010W        W44904  18.245   6.386   5.338  0.2673 -0.0083  0.0514
29011W        W44905   1.820  13.271  12.630  0.0538 -0.0845  0.1897
29012W        W44906  17.181  16.337  13.456 -0.1785  0.1252 -0.0030
29013W        W44907   0.495  18.264  12.939  0.1361 -0.1078  0.3430
29014W        W44908   9.065   4.926   3.875  0.0304 -0.5313 -0.0677
29015W        W44909  15.190  10.410   9.987 -0.1541 -0.0628  0.0467
29016W        W44910   6.324  18.181   3.143 -0.2335 -0.3448 -0.0591
29017W        W44911  11.042  12.545   5.073  0.0562 -0.1289 -0.1255
29018W        W44912  14.151   4.847   0.405  0.3349  0.3340 -0.1664
29019W        W44913   5.591  15.577   4.763 -0.1515 -0.1420  0.0662
29020W        W44914   1.409   3.298   4.346 -0.2040 -0.0399  0.1088
29021W        W44915  15.123   9.104   0.872 -0.4348 -0.3758  0.1678
29022W        W44916  12.647   8.339  11.808 -0.0630  0.2291 -0.2759
29023W        W44917   3.211  12.282   1.363  0.0564  0.1188  0.0335
29024W        W44918   2.746  12.822   4.548 -0.1096  0.0275 -0.2064
29025W        W44919  17.896  10.813  11.706  0.1716  0.0647  0.0926
29026W        W44920   1.816  13.818   1.705  0.0305 -0.4155 -0.1798
29027W        W44921   2.461  15.501   3.021  0.1394  0.1150 -0.0507
29028W        W44922   2.989  12.031  10.453 -0.0564  0.2597  0.1563
29029W        W44923  12.290  10.176   1.050 -0.0735 -0.1523  0.0621
29030W        W44924   7.501   4.401   1.322 -0.0030  0.1123  0.3293
29031W        W44925   3.680  16.369   3.877 -0.0225  0.1269 -0.0527
29032W        W44926   6.411   8.707   1.242  0.0448  0.1481 -0.3158
29033W        W44927  14.514  12.487  10.856 -0.5790 -0.1064 -0.0079
29034W        W44928   6.077   1.817  14.015 -0.2833 -0.2399  0.0553
29035W        W44929   3.968   0.583   1.508 -0.0696  0.0008  0.0484
29036W        W44930  15.553   6.019   5.619  0.3119  0.0489  0.2775
29037W        W44931  13.643   7.272   4.178  0.2918  0.3258  0.0741
29038W        W44932  18.418   0.613   2.935 -0.0660 -0.4185  0.1393
29039W        W44933   2.729   1.924   5.835  0.0383  0.0169  0.3194
29040W        W44934  14.273   5.264  13.364 -0.2525  0.0514  0.1649
29041W        W44935  10.013  15.015  10.023  0.3163  0.0050 -0.4873
29042W        W44936   6.465   3.190  10.791  0.1624 -0.1120 -0.2441
29043W        W44937   1.105  16.892   4.735 -0.4437  0.3513 -0.3040
29044W        W44938   9.522  15.366   9.234  0.1977 -0.0176 -0.0371
29045W        W44939  16.451   5.160  15.133  0.2662  0.1391 -0.1091
29046W        W44940   6.826   3.937   1.941  0.1561 -0.0163 -0.2508
29047W        W44941  15.820   4.274   4.049  0.1426 -0.0019 -0.1857
29048W        W44942  18.704   9.603  15.015 -0.3170 -0.2309  0.0904
29049W        W44943   1.603  15.162  10.537  0.0195  0.0709 -0.0984
29050W        W44944   6.647   2.515   4.937 -0.1714 -0.0425  0.1548
29051W        W44945   1.898   1.273  14.121 -0.0625 -0.0834  0.2044
29052W        W44946   3.919  11.020  10.209  0.3586  0.1255 -0.0560
29053W        W44947  15.889  13.283  14.000  0.3174  0.2810 -0.0227
29054W        W44948  14.960  11.462  11.189  0.0389 -0.1711  0.3021
29055W        W44949  13.773   3.476   0.211  0.2687  0.0212  0.3117
29056W        W44950  15.455  15.607   4.523  0.1076 -0.4667  0.1051
29057W        W44951  17.217  13.014  12.055  0.2667  0.2161  0.0634
29058W        W44952  12.774  11.019   3.739 -0.1932  0.2680  0.0536
29059W        W44953   3.047  11.197  11.444  0.2781  0.2999  0.0445
29060W        W44954   7.022  11.993  13.693  0.0899  0.0703  0.0656
29061W        W44955   3.902   6.566   1.581  0.0322 -0.0911 -0.1934
29062W        W44956  16.167  11.969  12.080  0.0891  0.0372  0.0221
29063W        W44957   5.198   0.798   9.369  0.0087  0.1531 -0.0074
29064W        W44958   1.659   0.830  12.183  0.2236 -0.2027 -0.2566
29065W        W44959   1.011  12.765   4.968 -0.0341 -0.1368  0.0513
29066W        W44960  16.197  12.487  14.411 -0.2385  0.0018 -0.0219
29067W        W44961   6.289   9.066   2.026 -0.2425  0.1978  0.0726
29068W        W44962  10.316  12.559   1.383  0.2083 -0.0933 -0.0058
29069W        W44963   3.084   0.962   3.437  0.0435  0.0589 -0.2761
29070W        W44964  15.481  14.048  10.805 -0.2644 -0.0448 -0.0105
29071W        W44965   8.719   4.702   3.578  0.0723 -0.1373  0.1922
29072W        W44966  17.815   1.935   1.983 -0.1273  0.3492 -0.2549
29073W        W44967  17.438  10.986  14.355 -0.0061  0.0944 -0.0453
29074W        W44968  13.787   8.866   1.960 -0.1964  0.0838 -0.1301
29075W        W44969   4.990   3.117   3.672  0.1574 -0.1232  0.0702
29076W        W44970   7.432   6.124  13.661  0.0680 -0.1995 -0.0868
29077W        W44971   4.720   3.072  13.713 -0.3260  0.0014  0.2667
29078W        W44972   6.015  13.744  13.085 -0.1220  0.1685  0.3843
29079W        W44973   2.617  11.194   5.407 -0.1108  0.3489  0.0456
29080W        W44974  12.844   0.150   1.452  0.0137 -0.2154  0.1239
29081W        W44975   3.716   3.145   1.439  0.3602  0.1264 -0.3788
29082W        W44976  14.741   7.802   3.557  0.3152  0.2237  0.2251
29083W        W44977   4.510   8.823   4.374  0.0362 -0.3067  0.0161
29084W        W44978  14.782   7.054   9.623 -0.2293 -0.0957  0.0130
29085W        W44979  11.673   8.896   3.613 -0.0977  0.1206  0.1539
29086W        W44980  14.654   4.235   0.875 -0.0165  0.1767  0.1400
29087W        W44981   4.664   7.499  13.653  0.0161  0.3230 -0.0791
29088W        W44982   2.650  13.778   9.740  0.2212  0.1540  0.1080
29089W        W44983  10.455   0.846  11.154 -0.1286  0.1865 -0.0346
29090W        W44984   5.448  10.774   0.315  0.2793 -0.0092  0.0832
29091W        W44985  18.258   9.782  12.515  0.1546 -0.0292  0.5283
29092W        W44986   1.347  19.097  11.824 -0.4449  0.0982  0.0343
29093W        W44987  17.377   8.342  10.594  0.0834  0.0728 -0.2336
29094W        W44988  13.801  15.011  15.177 -0.2611 -0.1075  0.0711
29095W        W44989   6.662  10.728  12.852  0.1448 -0.0265  0.1985
29096W        W44990  10.297  15.974  14.837  0.0405 -0.1646 -0.1967
29097W        W44991  18.485   5.833  12.724  0.2163  0.2652 -0.0340
29098W        W44992  11.034   9.593   5.699  0.1404 -0.2175 -0.2491
29099W        W44993  10.148  13.741  12.184  0.0578 -0.1097 -0.0542
29100W        W44994  16.945  16.942  12.299  0.2141  0.0240 -0.2569
29101W        W44995   8.340  13.585   4.471  0.3010 -0.0748  0.1840
29102W        W44996   4.392  18.020   4.168  0.1328  0.1451  0.0544
29103W        W44997  10.641   0.781  14.547 -0.3050  0.2492 -0.0277
29104W        W44998   6.380   7.076   1.027 -0.1625 -0.1431  0.0695
29105W        W44999   9.907   4.945  10.215 -0.0206  0.0571 -0.3582
29106W        W45000  16.522  14.905  10.816 -0.3675 -0.2271 -0.0243
29107W        W45001  12.437  12.303  14.872 -0.1523 -0.0935  0.0003
29108W        W45002   1.916  15.160  13.161 -0.1824  0.0546  0.0269
29109W        W45003   9.633  18.820  14.739  0.3795 -0.1922 -0.1549
29110W        W45004  10.353   6.994  15.099  0.3176 -0.0805  0.1156
29111W        W45005   7.865   3.805  10.967 -0.0252  0.0301 -0.1271
29112W        W45006   6.693   8.802   5.054  0.2515  0.4755 -0.1922
29113W        W45007  11.576   8.602  12.270 -0.0308  0.0478 -0.0834
29114W        W45008   1.798  16.130  14.045  0.1247  0.2191 -0.0701
29115W        W45009  16.120  11.334   2.929  0.0643 -0.0409 -0.1519
29116W        W45010  15.861   4.820   4.947  0.1153  0.1257  0.0977
29117W        W45011   6.595  18.821  10.366 -0.1112  0.2373  0.2917
29118W        W45012  10.328  10.459  14.079  0.0040 -0.2017 -0.2845
29119W        W45013   7.207  17.351  11.702 -0.0167 -0.1470 -0.2955
29120W        W45014  10.211   0.723   0.894 -0.0438 -0.0069  0.0524
29121W        W45015  16.589   7.837  11.435  0.1115 -0.4905 -0.2967
29122W        W45016   4.898  12.081   2.824 -0.0126  0.6019 -0.0897
29123W        W45017   5.463   3.257  13.519 -0.2401  0.0618  0.1945
29124W        W45018   6.389  15.688   3.410  0.0370  0.0863 -0.0545
29125W        W45019  18.732  11.193   5.315 -0.3249 -0.4598  0.1473
29126W        W45020   6.915  19.153   0.976  0.0752 -0.2415  0.5844
29127W        W45021   9.079   9.871  12.999 -0.0016 -0.2483 -0.1208
29128W        W45022   8.072   5.136   3.098  0.0804 -0.3967 -0.0931
29129W        W45023   9.814   8.594   3.754 -0.0970  0.1123  0.2024
29130W        W45024  11.583  14.692   2.881 -0.0253 -0.1500 -0.0748
29131W        W45025  10.906   8.800  13.422  0.0830  0.2393  0.3729
29132W        W45026   0.413  17.430   5.449  0.2509  0.2819 -0.1022
29133W        W45027  15.364  16.999  12.155  0.0187  0.2158 -0.3283
29134W        W45028  15.732   2.886   0.958 -0.1196  0.1429 -0.0292
29135W        W45029  15.977   0.817  12.641 -0.2045 -0.2112  0.0352
29136W        W45030   1.295   7.162  14.408 -0.1431 -0.0090 -0.0639
29137W        W45031   1.794   8.811  10.713 -0.0837  0.1170  0.2473
29138W        W45032  17.883  11.528   4.416  0.0531  0.3817  0.1199
29139W        W45033   7.605  14.763  12.294  0.0333  0.0260  0.0593
29140W        W45034   8.678  11.447   3.406  0.3124 -0.1914  0.0597
29141W        W45035  12.938  14.612  13.024  0.0609 -0.1525  0.0376
29142W        W45036  12.501   4.802   4.262  0.0354  0.5343 -0.0765
29143W        W45037  14.878  15.701   2.379 -0.0489 -0.1388 -0.0981
29144W        W45038   8.394  13.606   1.383  0.0200  0.0766  0.1549
29145W        W45039  10.075  17.461  12.294 -0.4034 -0.2142  0.3162
29146W        W45040   7.304  11.364   3.407  0.1363  0.2578 -0.3185
29147W        W45041   5.955  18.918   0.136  0.3399  0.0826  0.3657
29148W        W45042  11.891   3.785   3.796  0.1591  0.0199 -0.3401
29149W        W45043  11.826   8.457   3.350  0.0597 -0.4117  0.1509
29150W        W45044   9.329   7.783  15.041  0.0737  0.0108 -0.1116
29151W        W45045   5.744   7.559   9.913  0.5164 -0.2221  0.2028
29152W        W45046  14.671  14.309   4.495  0.3199  0.0274  0.0044
29153W        W45047   9.600   7.579  12.489 -0.2353  0.3380 -0.3633
29154W        W45048  18.449   1.858   1.004  0.1227  0.2697 -0.1281
29155W        W45049  18.972  16.816   0.638  0.1311 -0.1100  0.1427
29156W        W45050   3.870   9.747   2.029  0.0607  0.0460  0.1352
29157W        W45051   9.420  18.571   0.965  0.1218 -0.0139  0.0406
29158W        W45052  13.359   4.639  12.219  0.0339 -0.1082  0.3258
29159W        W45053   3.038  12.398  14.526 -0.0243 -0.2430 -0.0819
29160W        W45054  17.326   3.749   4.343 -0.0018  0.2956  0.3039
29161W        W45055  10.219   6.194  11.547  0.2237 -0.0250  0.0219
29162W        W45056  19.157   2.390   5.018 -0.3644 -0.1880  0.0211
29163W        W45057  13.342  10.023  14.570  0.3808  0.1049  0.2040
29164W        W45058   8.165  14.430   0.880 -0.0497 -0.1274  0.2015
29165W        W45059   6.937  15.095  12.577  0.0456  0.3263  0.0399
29166W        W45060   0.014  11.830   3.142 -0.0887  0.1869 -0.1288
29167W        W45061  18.095  14.804  13.604 -0.0321  0.0473  0.0188
29168W        W45062   6.768   9.439  14.062  0.0978 -0.0032  0.2767
29169W        W45063   6.621  16.272  13.704  0.2703  0.2515 -0.0188
29170W        W45064   0.439  15.098  13.934  0.3859 -0.1431 -0.4006
29171W        W45065   0.949  10.315   2.989  0.3729 -0.0977 -0.1281
29172W        W45066  18.094   2.230  13.799  0.1417  0.1298 -0.0080
29173W        W45067   7.103  16.080  11.985 -0.1833  0.0746  0.2224
29174W        W45068   9.675   8.974   5.265 -0.0039 -0.1452 -0.1335
29175W        W45069   9.217  13.270   4.733 -0.1962  0.1859  0.0512
29176W        W45070  13.274   2.463  14.800 -0.2537  0.0045 -0.0417
29177W        W45071   8.223   2.760   1.092 -0.3428 -0.0363  0.0473
29178W        W45072   4.750  13.122   0.082  0.1733 -0.2532  0.2228
29179W        W45073   9.083   3.704  10.675  0.0662 -0.0037 -0.1209
29180W        W45074   8.642  13.746  12.820  0.2931 -0.2642 -0.1697
29181W        W45075   6.894  12.084   1.958  0.1323  0.0177 -0.1936
29182W        W45076   3.908  13.276   1.610 -0.1035 -0.0706  0.0667
29183W        W45077   3.834   4.431   2.377  0.1274 -0.1051  0.1208
29184W        W45078   2.834   5.843  13.283 -0.0783  0.3163  0.4049
29185W        W45079   9.266  13.093  14.034  0.1370  0.1274  0.0604
29186W        W45080  19.144   4.738  15.174  0.1824 -0.0317  0.0413
29187W        W45081  17.711  12.885   5.234 -0.3766 -0.4185 -0.1029
29188W        W45082  12.587   1.075   2.195  0.2258  0.3006  0.2457
29189W        W45083   4.041  14.925  11.223 -0.0980 -0.4195 -0.1038
29190W        W45084  15.708   4.904   2.318  0.0014  0.1453  0.3777
29191W        W45085   7.574   7.499   1.849 -0.2416  0.0961  0.0318
29192W        W45086   7.245  16.743  15.070  0.1277 -0.1444 -0.1734
29193W        W45087  16.443  13.419  14.251  0.2855 -0.0497 -0.0334
29194W        W45088  16.368   4.104  11.485 -0.1261  0.0900  0.3345
29195W        W45089   5.918   3.269  13.292 -0.4171 -0.0763 -0.1349
29196W        W45090   1.573  13.922  12.549  0.0607 -0.0166  0.0826
29197W        W45091  18.777  12.369   4.738  0.1153  0.0015  0.1102
29198W        W45092   8.816   1.852  10.697 -0.1570 -0.0891 -0.1572
29199W        W45093   3.465  17.570  12.123 -0.0373 -0.2881  0.1211
29200W        W45094  11.407   4.875   2.673  0.1665 -0.3507  0.0567
29201W        W45095   1.443  15.980  14.353 -0.2641  0.0182 -0.1068
29202W        W45096  10.788  13.567   0.470 -0.0676 -0.2834 -0.0359
29203W        W45097   5.052  17.901   4.429 -0.0064  0.0084 -0.0455
29204W        W45098  13.295  10.344  10.339 -0.0747 -0.0539  0.0223
29205W        W45099   2.890   3.950   4.501  0.1949 -0.2870 -0.1583
29206W        W45100   2.155  18.545  13.069 -0.2621  0.0267 -0.1749
29207W        W45101  15.074   1.414  12.831 -0.1244 -0.4004 -0.0155
29208W        W45102   5.136   6.424   4.245 -0.0457  0.3150 -0.0093
29209W        W45103  12.207  14.021   3.315 -0.2254 -0.0239  0.4817
29210W        W45104   5.577   5.762   0.050 -0.0456  0.2131 -0.0414
29211W        W45105   8.741   1.605  14.782  0.3190 -0.3117  0.2384
29212W        W45106   9.955  19.073  14.986 -0.4491  0.3015 -0.0586
29213W        W45107  13.156   6.685  10.865  0.0327 -0.2907 -0.0489
29214W        W45108   7.692   7.088  14.534  0.0899  0.1691  0.0461
29215W        W45109  17.256   8.211  11.049 -0.1397 -0.0368 -0.0901
29216W        W45110   3.603   0.989   4.137 -0.1396 -0.1178  0.2241
29217W        W45111   0.306  14.949  14.426  0.1010 -0.2144  0.0362
29218W        W45112   4.419   7.939   2.738  0.0725  0.0036  0.1010
29219W        W45113   3.906   8.682  13.416 -0.1204  0.1013  0.0239
29220W        W45114  14.368   8.760   3.557 -0.2625  0.0915 -0.0326
29221W        W45115   5.225  10.373   1.322 -0.1137  0.1949  0.0155
29222W        W45116  11.031   3.442   3.849  0.3147 -0.1678 -0.2154
29223W        W45117   1.803  11.260   1.989 -0.2560 -0.1187  0.1220
29224W        W45118  11.077  10.888   5.091  0.1210 -0.2699  0.1691
29225W        W45119   8.272   7.945   1.316 -0.1310 -0.1165  0.0053
29226W        W45120  10.883  17.132   1.487  0.2921 -0.0111 -0.1142
29227W        W45121   0.877  16.466   2.637  0.3862 -0.0281 -0.2438
29228W        W45122  11.784   2.652  14.119 -0.1489 -0.1328  0.0336
29229W        W45123  14.520  12.615  11.762 -0.1253 -0.0968  0.2010
29230W        W45124  12.215   0.849   2.642  0.3437  0.1016  0.1496
29231W        W45125  13.217  10.424   1.719  0.1774 -0.2472  0.0638
29232W        W45126   6.457   1.240   2.273  0.2924 -0.0856 -0.2221
29233W        W45127   9.724  13.351   1.770 -0.2099 -0.0967  0.0958
29234W        W45128  15.166   7.846  11.429 -0.2461 -0.0290 -0.1487
29235W        W45129   4.647  14.065   3.562 -0.1904 -0.0400 -0.2674
29236W        W45130  18.730   4.634   4.816  0.0513  0.0640 -0.6040
29237W        W45131   3.257  10.851  11.063 -0.1265 -0.0341  0.1721
29238W        W45132  18.062   0.606   1.721 -0.0708 -0.2827 -0.1437
29239W        W45133   9.029  14.270  11.448  0.3892  0.2129 -0.1865
29240W        W45134   7.846  16.357   2.395  0.0058 -0.1199  0.3784
29241W        W45135   0.169   8.593  13.602  0.1222 -0.0296 -0.1547
29242W        W45136  13.908   1.672  11.396  0.0984 -0.1124 -0.0046
29243W        W45137   3.916  17.544   1.977 -0.0703  0.0264  0.2912
29244W        W45138   5.652  17.346  11.261  0.2725 -0.0372 -0.0822
29245W        W45139   1.107   1.914  14.331  0.1275 -0.1186  0.2993
29246W        W45140   8.656   6.837  13.926 -0.2177  0.0369  0.2733
29247W        W45141  17.877   5.909   2.431  0.0776 -0.0603 -0.2287
29248W        W45142   4.830  17.117  14.148 -0.0977 -0.1210  0.0278
29249W        W45143  12.659   4.965   0.769  0.0701  0.1216  0.2215
29250W        W45144  11.397  13.229  10.363  0.5894  0.5587 -0.0311
29251W        W45145  13.993  16.592  12.642 -0.3289  0.0257 -0.2403
29252W        W45146   8.048   7.460  13.837  0.2133 -0.0224 -0.1060
29253W        W45147   8.435   6.042   3.128  0.3069  0.1516 -0.2245
29254W        W45148   6.838   6.639   1.056  0.0110 -0.0292 -0.1344
29255W        W45149  10.066   7.595   3.414  0.1271 -0.1679  0.2408
29256W        W45150   0.945  11.833   2.009 -0.1427 -0.4204 -0.0732
29257W        W45151   6.433  17.763   3.373  0.2958  0.1218 -0.3401
29258W        W45152   5.895  10.420  13.733 -0.0391  0.0865 -0.2245
29259W        W45153   6.564   0.559  10.733 -0.1018 -0.1282  0.0647
29260W        W45154   1.798   7.177   2.325  0.1075  0.1565 -0.1208
29261W        W45155   6.720  19.012   0.517  0.0125 -0.1645  0.3015
29262W        W45156   4.274  17.245  13.713  0.0644 -0.0758 -0.1741
29263W        W45157   4.070   5.010   9.912 -0.1227 -0.0104 -0.0163
29264W        W45158   7.775  14.517   0.538  0.0353  0.0913 -0.0034
29265W        W45159   8.984   3.911  13.467  0.0462 -0.2221 -0.0390
29266W        W45160  18.565  11.771   0.504  0.3190  0.0094 -0.4867
29267W        W45161   2.865   3.217   0.033  0.0625 -0.0660 -0.1648
29268W        W45162  12.981  17.812   0.612 -0.2773 -0.1647 -0.0754
29269W        W45163   8.324  18.470  11.591  0.1453 -0.1999  0.1126
29270W        W45164  12.933  15.403  10.928  0.0513  0.1229  0.3215
29271W        W45165   2.640  13.688  13.435 -0.3788 -0.1288  0.3323
29272W        W45166  18.425  12.493  10.644 -0.0378  0.0322  0.2329
29273W        W45167  16.614  13.026   4.401 -0.0252  0.0940  0.2769
29274W        W45168   4.387  16.242   0.712 -0.1344  0.1136  0.3660
29275W        W45169   2.999  13.581   2.021 -0.2022  0.3144 -0.0824
29276W        W45170  10.485   0.363  11.336 -0.1368 -0.0169  0.0300
29277W        W45171   4.219  14.065  14.048  0.0365 -0.0409 -0.1948
29278W        W45172  13.063  12.454  11.742 -0.3353  0.0648 -0.1646
29279W        W45173   0.829   1.869   3.921 -0.2569  0.1524 -0.3037
29280W        W45174  16.402   1.827   3.263 -0.2323 -0.0143  0.1052
29281W        W45175  12.633  10.049  12.455 -0.0066  0.0796 -0.1644
29282W        W45176   8.998  16.344  11.211 -0.2708 -0.2604  0.0022
29283W        W45177  18.723   6.461  14.433 -0.1024 -0.3481  0.2318
29284W        W45178   3.502   4.899  12.547  0.0916 -0.2224  0.1625
29285W        W45179   3.212  11.480  14.432  0.2764 -0.1487  0.2580
29286W        W45180   6.664   1.382  11.298 -0.2398  0.1496  0.0890
29287W        W45181  11.849  14.832  14.367 -0.0977  0.0333 -0.0704
29288W        W45182  11.446   4.650   0.120  0.1856  0.2763  0.2292
29289W        W45183   2.384   8.497  13.253 -0.1264 -0.2684  0.1089
29290W        W45184  10.796  14.960  13.341 -0.1968 -0.4863  0.1193
29291W        W45185   6.909  16.231  10.194 -0.1338  0.3306 -0.2708
29292W        W45186   2.832   6.955  10.839  0.1040  0.1109  0.0492
29293W        W45187  16.193   2.232  12.424 -0.1313 -0.0742  0.0938
29294W        W45188  14.604  10.600  11.270  0.2106 -0.1028 -0.0849
29295W        W45189  14.277   7.935   5.788 -0.2953 -0.0775  0.2651
29296W        W45190  18.027  14.859   2.533 -0.0572  0.2299  0.0420
29297W        W45191   3.587   2.145   1.635 -0.3021  0.2123  0.1158
29298W        W45192  14.599  16.151   3.883 -0.3242  0.0688  0.0896
29299W        W45193   3.825   6.314  11.738  0.1058  0.1243 -0.2983
29300W        W45194  12.074  14.181  11.015 -0.1818 -0.1138  0.4759
29301W        W45195  11.161  13.930  12.109  0.1456 -0.1484 -0.1272
29302W        W45196  12.619  10.671  10.805  0.2663  0.2117  0.0831
29303W        W45197   4.360  11.210   4.555 -0.1177 -0.3120  0.0757
29304W        W45198  14.964  11.012   0.015  0.1728 -0.2200 -0.1194
29305W        W45199  17.108   1.925   4.213  0.0811  0.1158  0.0473
29306W        W45200  16.986  16.878   6.261 -0.0592 -0.0596  0.1499
29307W        W45201   3.608   5.099   2.205 -0.2912  0.2687  0.1472
29308W        W45202  17.593  14.209  10.328 -0.1605  0.2758 -0.0990
29309W        W45203   1.026  18.396   1.109  0.2913  0.2368 -0.0557
29310W        W45204   0.070  14.725  13.106 -0.1229 -0.1474 -0.4717
29311W        W45205   9.217  13.866  12.691 -0.1357  0.0689 -0.2186
29312W        W45206  11.070  13.797  11.158  0.2293  0.1308  0.1172
29313W        W45207  14.370   7.181  13.206  0.0396  0.1129  0.2715
29314W        W45208  12.343   3.086   4.193 -0.3381 -0.0294 -0.0712
29315W        W45209   1.355  13.287   4.362 -0.0451  0.0926  0.2392
29316W        W45210   2.934  10.303   1.298 -0.3269 -0.3772 -0.1884
29317W        W45211  16.938   6.073  14.273  0.2295 -0.0239  0.0070
29318W        W45212  12.464  18.543   1.723 -0.0755  0.0030  0.2072
29319W        W45213   9.609   0.078  12.017  0.0783 -0.1211  0.2996
29320W        W45214  13.603  12.822  14.803 -0.0961 -0.1018 -0.1172
29321W        W45215   7.567  16.255  11.932 -0.2387  0.2464  0.0040
29322W        W45216   8.300   1.003  13.621 -0.1419  0.1200 -0.0985
29323W        W45217  13.688   3.011   4.661 -0.1146  0.1632  0.1152
29324W        W45218   9.570   9.248  13.484 -0.3680  0.1684 -0.2198
29325W        W45219   4.516   1.425   2.397 -0.1321  0.1109 -0.0388
29326W        W45220   5.626   9.239  10.577  0.0839  0.1590 -0.0074
29327W        W45221   5.238   2.817   9.460 -0.0649 -0.2408  0.3373
29328W        W45222   7.439  15.840   1.977 -0.1188 -0.0398 -0.0475
29329W        W45223   7.255   3.598   4.089  0.1441  0.3875 -0.0863
29330W        W45224  18.531  14.052   4.536  0.2857 -0.0546  0.0507
29331W        W45225  16.051  16.689   3.999  0.0049  0.3236  0.0763
29332W        W45226   9.838   2.808   3.936 -0.3167  0.0531 -0.1702
29333W        W45227  15.700  14.558   4.905 -0.0279 -0.0063 -0.2551
29334W        W45228   4.535   7.190   0.093 -0.1989  0.2333 -0.1534
29335W        W45229   7.333   3.185  14.946 -0.2307  0.0958  0.1568
29336W        W45230   9.984  12.766   3.658 -0.4148  0.1207 -0.0712
29337W        W45231   7.890   0.468   4.503 -0.1808  0.1348 -0.3708
29338W        W45232  15.183  17.725   2.658  0.1711 -0.2316  0.5778
29339W        W45233   2.231  13.303  12.400 -0.0435 -0.5161 -0.1885
29340W        W45234  18.904  14.394   0.741  0.0780  0.1795  0.0530
29341W        W45235   0.387  12.872   5.927 -0.0713 -0.0051  0.0426
29342W        W45236  14.756  10.402   0.043  0.3014  0.1428 -0.0381
29343W        W45237  13.821  16.107   1.737  0.2603 -0.0393 -0.1411
29344W        W45238  15.911   4.533   2.017 -0.4059  0.4018 -0.2860
29345W        W45239  14.736   7.857  10.213  0.2148 -0.0510 -0.0607
29346W        W45240   4.253   7.464   2.644 -0.2722  0.0614 -0.0161
29347W        W45241   0.579   2.818   1.125  0.5095  0.0748 -0.0008
29348W        W45242   1.550   9.594  11.201 -0.0579  0.3423  0.1528
29349W        W45243  17.005   9.867  14.239 -0.0731  0.2216  0.1294
29350W        W45244   4.090   4.364   1.947 -0.1444  0.3112  0.0885
29351W        W45245  15.864   1.583   5.424  0.1362  0.2696  0.0556
29352W        W45246  11.709   2.046  11.321  0.0153 -0.1394  0.2413
29353W        W45247  18.763   6.693  13.151  0.0103 -0.0982 -0.2655
29354W        W45248   6.722   7.202  11.238 -0.1707 -0.2657  0.2101
29355W        W45249   1.744   6.157   3.085  0.3065 -0.4139  0.0220
29356W        W45250   2.786   9.809   3.151  0.7223 -0.1597  0.0450
29357W        W45251  12.145  15.676  13.577  0.2567 -0.5122  0.2413
29358W        W45252  15.435  15.889   3.973  0.1892  0.2425 -0.0839
29359W        W45253   9.373   0.202   3.506  0.0622  0.0744  0.0625
29360W        W45254   6.490  13.341   1.262  0.5519 -0.0865  0.0772
29361W        W45255  15.687   9.631   2.206 -0.0781 -0.2655 -0.1497
29362W        W45256   3.863   2.190   3.936 -0.0504  0.0488 -0.1220
29363W        W45257  19.092  11.936   1.822 -0.0830 -0.0948 -0.1087
29364W        W45258  14.243  13.945  12.336 -0.0238  0.0171 -0.1515
29365W        W45259   8.005  17.314   3.327  0.0948  0.2532 -0.2121
29366W        W45260   3.197  17.870  10.586  0.1020 -0.0401  0.0825
29367W        W45261  12.857  13.944   1.664  0.0224  0.0361 -0.2681
29368W        W45262  16.096   6.042   0.582  0.0889 -0.1367  0.0042
29369W        W45263   3.171  13.844   2.428 -0.0762  0.1282 -0.3416
29370W        W45264  13.901   1.256  12.953  0.2360 -0.2162 -0.4411
29371W        W45265  14.582   5.510  14.916 -0.2985  0.2511  0.0026
29372W        W45266   1.950  12.598  14.719  0.2728 -0.1404 -0.3227
29373W        W45267   6.856   5.808   4.157  0.1154  0.3063  0.3814
29374W        W45268  12.365  18.837  13.040  0.3047 -0.1617 -0.1136
29375W        W45269   3.715   5.681  14.906  0.0244 -0.1514 -0.0695
29376W        W45270   6.481   4.508   1.195 -0.0043 -0.1678  0.1988
29377W        W45271  18.967   4.037   0.218  0.0898 -0.0008  0.3621
29378W        W45272   9.710  17.364   1.581  0.1070 -0.0491 -0.3259
29379W        W45273   9.986  17.498  10.004 -0.4307 -0.1705 -0.1284
29380W        W45274   0.797  13.402  14.880  0.1402  0.0517  0.1036
29381W        W45275   5.754   1.280   4.139  0.4941 -0.0090 -0.3568
29382W        W45276   1.001  11.017   1.837  0.2006 -0.2076 -0.1613
29383W        W45277  11.550  11.881  14.386 -0.1268 -0.0145  0.1869
29384W        W45278   5.422   4.199  13.936 -0.0293 -0.0909  0.2772
29385W        W45279   4.068  12.327  15.166  0.0488 -0.0662 -0.0529
29386W        W45280   1.785   3.598   0.062 -0.1120 -0.1667 -0.2711
29387W        W45281  16.025  16.771  14.062  0.0391  0.0924  0.0435
29388W        W45282  16.413  17.604  12.122 -0.2311 -0.1797  0.3116
29389W        W45283   6.423   4.153  14.612 -0.0516  0.1156  0.0633
29390W        W45284   9.634   3.476  14.259  0.1001 -0.3269  0.3459
29391W        W45285   5.930  11.138   5.022 -0.0288  0.1532 -0.3546
29392W        W45286   9.400   4.769   5.515 -0.2465  0.1153 -0.0688
29393W        W45287   0.703   8.641  13.442  0.0407 -0.2718  0.2574
29394W        W45288   1.493   0.419   1.107  0.0366 -0.1814 -0.1080
29395W        W45289  13.282  14.401  10.729 -0.2395  0.0514  0.1427
29396W        W45290  17.612   9.333  11.572 -0.0568  0.0284 -0.0141
29397W        W45291  16.917   3.697   4.729  0.0549 -0.0413  0.1282
29398W        W45292  13.409  13.878   2.073 -0.0114 -0.1395  0.0712
29399W        W45293  11.820   4.187   1.357 -0.2313 -0.1879 -0.0402
29400W        W45294  10.853   6.031   3.915 -0.0215  0.2113 -0.0298
29401W        W45295   9.551  10.811   1.691  0.2187 -0.3058  0.1365
29402W        W45296   9.864   7.653   2.897  0.0509 -0.0068  0.1109
29403W        W45297   3.276  18.385   1.407  0.1332 -0.0165  0.3438
29404W        W45298   3.624  10.595  14.515  0.1862 -0.1792  0.0677
29405W        W45299   7.787   6.487   3.387 -0.1268 -0.0184  0.0116
29406W        W45300   0.960   3.586  14.040  0.2395  0.0299  0.0652
29407W        W45301   2.966  16.002   2.569  0.2882  0.1601 -0.0123
29408W        W45302  14.240  19.025  11.671  0.1504  0.0315 -0.0302
29409W        W45303   2.181  18.029  11.939  0.2933  0.2937 -0.0247
29410W        W45304   5.894   4.088  13.661  0.0125 -0.0088  0.2174
29411W        W45305   3.533  18.354  13.564  0.0588  0.0838 -0.2005
29412W        W45306  17.404   9.226   3.764  0.3651  0.1105  0.2496
29413W        W45307   7.160   5.841   3.711 -0.0599  0.0993 -0.1903
29414W        W45308  15.585  12.548  11.083  0.1239 -0.1417 -0.1879
29415W        W45309  16.964  11.222  11.371 -0.3243 -0.0229  0.0669
29416W        W45310  15.592  14.553  13.064 -0.0312  0.0827 -0.1793
29417W        W45311   8.943  13.847   0.705  0.1489 -0.0903  0.2025
29418W        W45312   1.940   8.718   3.438  0.2102 -0.1941  0.0884
29419W        W45313   1.595  19.087  12.379  0.2003  0.2585  0.3282
29420W        W45314   1.820   8.322   3.676  0.0913  0.1994  0.0243
29421W        W45315   4.168   9.529  15.008 -0.1872  0.1650 -0.1293
29422W        W45316   7.425   0.733  11.650  0.1235 -0.2097 -0.0287
29423W        W45317   6.459   6.213   0.428 -0.0414 -0.0878 -0.0518
29424W        W45318   3.556   3.545  12.664 -0.3299 -0.3574  0.0025
29425W        W45319  12.039  11.871  11.486 -0.0181  0.3055  0.0539
29426W        W45320  16.692   7.425  11.195  0.3344  0.2762 -0.0896
29427W        W45321   1.935  14.698  14.340 -0.0732 -0.2869  0.1188
29428W        W45322  17.573   1.804   0.690 -0.1079  0.0478  0.1873
29429W        W45323   5.315  14.179   1.673 -0.0788  0.0715 -0.1159
29430W        W45324  16.301  17.131   4.021  0.0152 -0.0033  0.0768
29431W        W45325   9.079   2.124  12.246  0.4286  0.1127  0.2047
29432W        W45326   2.424   2.150  14.718 -0.0092 -0.1563 -0.1189
29433W        W45327  14.112   4.946  14.372  0.0952  0.4441 -0.1501
29434W        W45328   2.265  13.010   4.343  0.2792 -0.3009 -0.1370
29435W        W45329   9.382  17.254   0.137  0.2173  0.1686 -0.1660
29436W        W45330  10.380  15.072   3.155 -0.2462  0.5010 -0.4272
29437W        W45331   3.161   8.570  14.432 -0.0663  0.1734 -0.2539
29438W        W45332  18.309  11.378   9.986 -0.0304 -0.0525  0.0378
29439W        W45333  11.845  11.961   1.976  0.2098  0.1387 -0.0796
29440W        W45334  11.192   8.953  12.568  0.0625  0.1906  0.0174
29441W        W45335  16.301  11.386   0.114  0.0693  0.3612 -0.2618
29442W        W45336   4.212   4.040   2.334  0.1507 -0.2159 -0.2173
29443W        W45337  16.667   0.405   3.151 -0.1169  0.5093 -0.2838
29444W        W45338   0.656  11.917   5.053  0.0700  0.2394 -0.3318
29445W        W45339  12.633   9.301   0.593  0.1385 -0.5281  0.1281
29446W        W45340  15.862   7.650   3.808  0.0454  0.0232 -0.1860
29447W        W45341  15.259  13.198  14.094  0.0630  0.1288  0.2072
29448W        W45342   8.533  16.602  14.668 -0.0357  0.0046  0.1091
29449W        W45343   2.481   6.964   3.485  0.1799  0.0446 -0.1823
29450W        W45344   2.332   7.941  14.624 -0.0708  0.1506  0.0517
29451W        W45345  13.095  18.555   4.211  0.4266  0.0799  0.0784
29452W        W45346  19.094  14.258  14.942 -0.1458  0.0008 -0.1897
29453W        W45347  12.151  15.407  13.989  0.0028  0.3013  0.0096
29454W        W45348   8.637  17.892   3.289 -0.2015 -0.1292 -0.0747
29455W        W45349  10.112   3.947  13.722  0.1140 -0.0556 -0.1124
29456W        W45350   2.144  11.581  15.121 -0.0352 -0.0590 -0.0406
29457W        W45351  10.800   9.705   0.287  0.0103  0.2280  0.2856
29458W        W45352   8.440  18.251  14.306  0.0977  0.0973  0.2173
29459W        W45353  10.586  14.898  10.343  0.2519 -0.1800  0.1274
29460W        W45354  13.441   2.891   1.402  0.1149 -0.0220  0.2183
29461W        W45355  11.076  15.185   1.447 -0.1838  0.3276  0.0093
29462W        W45356  18.640  18.571   4.187 -0.1917  0.0288 -0.3507
29463W        W45357  15.525  16.654  12.497 -0.0128  0.4451 -0.2532
29464W        W45358   5.253  13.352   3.900 -0.4129 -0.1485  0.1086
29465W        W45359   3.694  15.772   0.955 -0.2416 -0.0837  0.1943
29466W        W45360  15.600  15.279   0.258  0.4087  0.1157 -0.0378
29467W        W45361   6.664   0.815  12.786 -0.0473 -0.0293 -0.2996
29468W        W45362  13.478  11.899   6.076 -0.0609 -0.2203  0.1499
29469W        W45363  15.122  14.418  10.725 -0.0059 -0.1223  0.2886
29470W        W45364   6.686  15.127   0.829  0.2596  0.0925 -0.1389
29471W        W45365  13.450  15.821  13.539 -0.1011  0.1809 -0.3214
29472W        W45366   2.065  16.880  14.540  0.1464 -0.1067  0.0936
29473W        W45367   5.771   3.209  11.440 -0.2134  0.1861  0.0350
29474W        W45368   0.661   4.149   4.638  0.1084 -0.1675 -0.0559
29475W        W45369  12.310  16.762  11.515  0.1488 -0.1037  0.0249
29476W        W45370  15.111   1.472   0.260 -0.1340 -0.1431  0.2292
29477W        W45371   8.513   5.759   3.548 -0.1930 -0.1023 -0.3415
29478W        W45372  15.273   2.789  11.536 -0.0810 -0.1903  0.0527
29479W        W45373   9.828  10.522   3.749  0.1528 -0.1500 -0.3038
29480W        W45374  16.679  18.335   4.676 -0.1497 -0.0238  0.0156
29481W        W45375   7.329   4.999  13.316 -0.0885 -0.0255  0.2446
29482W        W45376   5.428   3.110  10.661  0.0257 -0.0665  0.2961
29483W        W45377  10.434   4.505   1.121 -0.2057  0.2059 -0.0895
29484W        W45378   6.679  10.408   3.191 -0.0141  0.0059  0.0891
29485W        W45379   8.571   8.474   1.530  0.3418  0.0634 -0.1064
29486W        W45380   2.721   3.331   1.608 -0.2666  0.2241 -0.0147
29487W        W45381   3.069  15.603   2.273 -0.2546 -0.0273  0.1019
29488W        W45382   6.896   3.971  10.068  0.0858 -0.2327  0.0670
29489W        W45383   7.074  18.359   1.537 -0.2762 -0.0047  0.0799
29490W        W45384  11.582  17.370   1.281 -0.0107 -0.2388  0.2438
29491W        W45385  18.236  11.938   1.328  0.1872 -0.0335  0.1624
29492W        W45386   3.489   9.320   1.066 -0.1509 -0.3248  0.1353
29493W        W45387  14.982  17.340  13.904 -0.4072  0.1060 -0.1122
29494W        W45388   1.368  15.257   2.402 -0.0974  0.1559  0.0959
29495W        W45389  15.043  10.023  12.100 -0.1094 -0.2883  0.2620
29496W        W45390  15.418   9.716   0.993  0.0352  0.4126 -0.3167
29497W        W45391  17.974  13.720  12.712  0.0268 -0.1787 -0.2487
29498W        W45392   2.762  12.584  12.696 -0.1076  0.2510  0.0763
29499W        W45393   1.385   9.785   3.976 -0.0286  0.2236 -0.2856
29500W        W45394   6.916   2.915   4.886  0.0011  0.0487  0.2629
29501W        W45395  12.757   0.799   3.306  0.1532 -0.2413  0.0066
29502W        W45396   7.383  10.675   4.628 -0.0165  0.4736 -0.2188
29503W        W45397  11.828  13.348  12.550  0.1038  0.0241  0.0387
29504W        W45398  12.046  13.629  11.065 -0.1779 -0.1335 -0.1675
29505W        W45399   8.197  13.931  13.825  0.1044  0.1597 -0.0667
29506W        W45400   0.713   1.160   3.183  0.1815 -0.1646 -0.0715
29507W        W45401  14.047  15.947   4.504 -0.1681  0.0317  0.0115
29508W        W45402   1.893  17.756   0.980  0.0846 -0.2465 -0.0916
29509W        W45403  16.479  10.361  10.555 -0.3731 -0.0348  0.0874
29510W        W45404   7.605   3.487   4.427 -0.2026  0.0276 -0.0561
29511W        W45405   2.607  19.063  11.159 -0.1531 -0.0896  0.1822
29512W        W45406   1.494   2.100  10.613  0.2799 -0.1115 -0.0176
29513W        W45407  16.447  18.478  11.617 -0.2172 -0.0695 -0.1987
29514W        W45408  16.409   4.478   0.360 -0.1228  0.2418 -0.2178
29515W        W45409   0.262   5.230   3.582  0.0665  0.0390 -0.0160
29516W        W45410   5.904  15.312  12.356 -0.0983  0.3901 -0.0167
29517W        W45411   4.863   6.478   1.601 -0.2462 -0.0512 -0.3378
29518W        W45412   0.021   5.972  13.555  0.0983  0.3125 -0.1428
29519W        W45413  15.015   5.545  12.936 -0.1825 -0.2678  0.0883
29520W        W45414   2.388   4.023   5.153 -0.0218  0.2046  0.1723
29521W        W45415   8.164  11.260   2.642 -0.2100  0.1812 -0.0148
29522W        W45416  13.435  15.913   3.347 -0.1154  0.0188  0.4121
29523W        W45417  15.090   2.048   4.590 -0.3024  0.3088 -0.2172
29524W        W45418   6.680  15.109  14.044  0.1405  0.0550 -0.3039
29525W        W45419  12.423   0.103   1.795 -0.1414  0.4420 -0.2752
29526W        W45420  10.250   5.786   3.059 -0.1460  0.0728  0.2740
29527W        W45421  15.227  12.540  14.909 -0.1566 -0.1163  0.2747
29528W        W45422   3.167  18.419   4.087  0.3316 -0.0533  0.4153
29529W        W45423   4.360   9.708  13.377  0.2336  0.1431  0.1256
29530W        W45424  17.885   5.181   1.853 -0.0714  0.3106  0.1136
29531W        W45425  14.274  12.365   1.202 -0.0567 -0.1238  0.1146
29532W        W45426  17.695   5.165   3.367 -0.0060 -0.0469 -0.4578
29533W        W45427  17.868  10.596  12.809 -0.0568 -0.1397  0.0671
29534W        W45428   6.764  13.455  14.196  0.1303 -0.0206 -0.1503
29535W        W45429  16.066  10.964  11.318 -0.0436  0.0892 -0.1114
29536W        W45430   7.283   5.829   2.287  0.0564 -0.2407  0.3525
29537W        W45431  13.424   5.096  13.112 -0.0752  0.0949 -0.1193
29538W        W45432  18.983  12.568   1.203  0.1252  0.2661 -0.1668
29539W        W45433  15.194   7.292   1.977  0.0423 -0.1236  0.0728
29540W        W45434  15.612  10.269   1.790  0.0670 -0.3118  0.1038
29541W        W45435   4.707   5.468   4.975 -0.1252 -0.3701 -0.1248
29542W        W45436  16.509  18.761   4.410  0.1502 -0.0089 -0.0556
29543W        W45437  17.472   6.789   1.462 -0.1151  0.2200  0.1399
29544W        W45438   1.161   1.063   4.860  0.4601  0.1259  0.0801
29545W        W45439  16.326   5.138   4.183  0.1029  0.0428 -0.0396
29546W        W45440  17.865  16.495  15.132  0.2040 -0.1033 -0.1102
29547W        W45441   5.665  15.305  10.696 -0.2828 -0.1528 -0.0027
29548W        W45442   9.945   1.056   2.552 -0.0753  0.0258  0.1826
29549W        W45443   9.138  11.276  10.084 -0.0582 -0.3300 -0.2301
29550W        W45444   0.075   8.973   3.455  0.2040 -0.2824 -0.0472
29551W        W45445   6.628  16.253   4.635 -0.0389  0.3771 -0.1285
29552W        W45446  17.841  14.792   0.251 -0.1276 -0.1807 -0.2646
29553W        W45447   8.710   0.342  11.926  0.2295  0.2827 -0.0953
29554W        W45448  11.273  17.323   2.258 -0.0794  0.1129  0.2539
29555W        W45449  17.254   5.260  11.629  0.1146 -0.1105  0.2941
29556W        W45450  11.408  12.832  11.056 -0.4087 -0.0139 -0.0873
29557W        W45451  10.743   7.405   1.773  0.1604 -0.4130  0.3821
29558W        W45452   7.476   8.920  13.023 -0.2697 -0.0558  0.0665
29559W        W45453   4.667  17.626  13.559  0.1049  0.1489 -0.1020
29560W        W45454  16.893  13.788  11.605 -0.1267 -0.2138 -0.1549
29561W        W45455   4.501   6.479   0.592  0.0358  0.1897  0.2363
29562W        W45456   5.203   0.677  15.074  0.0978  0.1936 -0.1711
29563W        W45457   3.468  12.063   3.836 -0.0810  0.3920 -0.4399
29564W        W45458   3.831  15.658   1.825 -0.1174  0.0136  0.0888
29565W        W45459  10.593  16.738   5.119 -0.0987 -0.3061 -0.1254
29566W        W45460   4.672  13.391   4.871  0.1285  0.0322  0.0537
29567W        W45461  11.881  15.522   5.003  0.1666  0.0209  0.1775
29568W        W45462   5.290  14.816   1.891  0.0339  0.2081 -0.1787
29569W        W45463   8.216  13.107   3.420  0.0898  0.0819 -0.1743
29570W        W45464  15.973  19.141  11.028 -0.1745 -0.1999 -0.2053
29571W        W45465  15.788  15.866   2.308  0.0527  0.1773  0.1687
29572W        W45466  18.286   8.670  13.849  0.1744  0.1239  0.0083
29573W        W45467  15.103  16.874  11.530  0.0078  0.5222 -0.2738
29574W        W45468  14.912   0.742   1.958 -0.0645  0.0688  0.3530
29575W        W45469   7.014  17.987  13.842  0.4908  0.1528  0.0532
29576W        W45470   4.400  12.283  11.906  0.1154  0.0199  0.3424
29577W        W45471   3.167   0.030  10.747  0.0277 -0.1683  0.1389
29578W        W45472   7.491   9.529   9.556  0.2774 -0.0044  0.0451
29579W        W45473   4.017  11.624  10.869 -0.3473 -0.0434 -0.2656
29580W        W45474   4.502  10.051   5.860 -0.1945 -0.0936 -0.1309
29581W        W45475   1.388  11.439   1.732 -0.1021  0.0770  0.0412
29582W        W45476  17.283   7.522   2.243  0.1408  0.1251  0.1750
29583W        W45477  18.608  18.617  10.153 -0.1570  0.0648 -0.1485
29584W        W45478   7.915   2.242  13.129  0.1487 -0.3443 -0.0375
29585W        W45479   8.183  15.239   4.180  0.3001 -0.0948  0.0280
29586W        W45480   1.858  10.002   5.253  0.3622 -0.3054 -0.1639
29587W        W45481   4.927   7.813   0.276 -0.1154 -0.0395 -0.0343
29588W        W45482   9.451  14.713   4.856 -0.6147 -0.1225 -0.0177
29589W        W45483   8.740  15.136   5.283 -0.1844 -0.0448  0.0288
29590W        W45484  10.731  17.133  13.228  0.1616 -0.0925 -0.3205
29591W        W45485  13.125   4.043   3.305 -0.1105 -0.2070 -0.0606
29592W        W45486   5.091   2.991  13.378 -0.0313  0.0288 -0.0585
29593W        W45487   4.908   1.021  14.564  0.2190 -0.0258 -0.1877
29594W        W45488  17.448  16.348   4.628 -0.3804  0.2509  0.0504
29595W        W45489   5.253   5.101   3.938  0.2573  0.2375  0.1607
29596W        W45490   2.994   0.852  13.006  0.0220 -0.4022 -0.2406
29597W        W45491   5.557  15.146   2.589  0.0591  0.1673  0.2390
29598W        W45492  13.315  17.746   1.471  0.0518  0.1304  0.0593
29599W        W45493   2.935   2.928  13.032 -0.0145  0.1142 -0.0386
29600W        W45494  15.015   4.439   6.348 -0.0582 -0.1533 -0.3228
29601W        W45495  15.961  18.219   4.061  0.3928 -0.1314 -0.0809
29602W        W45496   5.879   4.969  12.652 -0.0243  0.3264  0.1678
29603W        W45497   8.297   2.284   4.568  0.0652  0.2494 -0.1717
29604W        W45498  18.352  10.224  12.395 -0.0047 -0.1817 -0.0041
29605W        W45499   0.282  17.385   2.115 -0.2061 -0.1878 -0.0456
29606W        W45500  10.760  18.207  11.601  0.1496  0.4843  0.2969
29607W        W45501  11.775   2.134   0.219 -0.0888 -0.0033  0.0588
29608W        W45502   5.281  15.617   4.335 -0.0612  0.0525 -0.2839
29609W        W45503   6.422  14.857  10.767 -0.3063 -0.0059 -0.1447
29610W        W45504  13.872   5.896   0.066  0.1526 -0.3725  0.0153
29611W        W45505   2.457  11.189   4.345  0.2539  0.2811 -0.2012
29612W        W45506   2.527  12.500   2.044  0.2068  0.2620 -0.1811
29613W        W45507  18.615   1.337   3.572 -0.0073  0.2627  0.1087
29614W        W45508  17.954   6.491   3.520  0.1575  0.1369  0.0007
29615W        W45509   4.632   7.380  12.657 -0.2561  0.0828  0.0512
29616W        W45510   1.446  17.138   2.911 -0.1436  0.1754 -0.2149
29617W        W45511  17.993  18.265   2.022  0.1740  0.3742 -0.0820
29618W        W45512  11.534  17.474  12.287 -0.0127  0.0733  0.2227
29619W        W45513  18.353  16.018  12.440 -0.0776  0.4001  0.0824
29620W        W45514  18.377  14.786  12.666 -0.2483  0.2258 -0.2071
29621W        W45515  10.532   4.722   3.795  0.1525  0.2720  0.0624
29622W        W45516  14.833  15.356   4.167 -0.1425 -0.2817  0.1454
29623W        W45517   5.945   9.266   1.699  0.1211  0.0598 -0.3998
29624W        W45518   8.631   3.601  13.343  0.1094 -0.1594 -0.1977
29625W        W45519  11.280   4.677   0.603  0.3550  0.1883  0.1778
29626W        W45520   7.029  17.358   4.386 -0.0819 -0.0569 -0.0694
29627W        W45521   9.077  14.737  10.122  0.2997 -0.0683 -0.4635
29628W        W45522  12.069  10.532   4.972 -0.1130 -0.0093 -0.2362
29629W        W45523   8.433   4.029   2.280 -0.3347  0.1904  0.2140
29630W        W45524  10.991   0.824   3.918 -0.0735 -0.0609  0.0781
29631W        W45525  14.313   9.061  12.908 -0.0087  0.1838  0.1897
29632W        W45526  12.739  18.001  13.382 -0.2506 -0.0941 -0.1145
29633W        W45527  13.310   1.394  10.685  0.1870  0.2478  0.0358
29634W        W45528   6.077   2.562   2.388  0.1934 -0.1930 -0.1301
29635W        W45529   3.430   6.147   4.593 -0.3045  0.1883  0.0020
29636W        W45530   8.480   4.730  10.800  0.0554 -0.0322 -0.1361
29637W        W45531   7.300   6.424   4.955 -0.1321  0.0337 -0.2847
29638W        W45532  10.730   0.278  14.270  0.0399 -0.1139  0.1296
29639W        W45533  14.824  13.440   0.196 -0.4787  0.3182 -0.2027
29640W        W45534   9.711   0.662  12.117 -0.1078 -0.0370 -0.2837
29641W        W45535   5.844   0.779  12.228  0.1274  0.0244  0.1999
29642W        W45536  15.589   2.661   2.864  0.2935  0.1036  0.0243
29643W        W45537   4.883   4.283   1.246  0.0820  0.3037 -0.0461
29644W        W45538  19.073  11.205  12.881  0.1775  0.1744  0.0515
29645W        W45539  12.855   6.165  13.775 -0.0963 -0.3032  0.3382
29646W        W45540   5.971  13.960  10.387 -0.3565 -0.0979 -0.2456
29647W        W45541   7.825   6.494  13.855  0.1999  0.2293 -0.0382
29648W        W45542  18.137  10.389   5.274  0.0304 -0.0120 -0.0728
29649W        W45543   0.293   0.557   5.903 -0.0070 -0.2178 -0.3018
29650W        W45544  13.774  14.619  14.841 -0.1355  0.0960 -0.1595
29651W        W45545  17.827   9.870  11.619  0.0458 -0.2396  0.0517
29652W        W45546   6.350   6.178   3.747 -0.1933  0.0858 -0.3634
29653W        W45547  13.386  16.560  10.642 -0.0660 -0.1409 -0.1229
29654W        W45548  13.824   4.044   2.428 -0.1397  0.3197  0.0759
29655W        W45549  13.394  16.894  11.732  0.1534  0.1902 -0.1572
29656W        W45550  14.767  11.375   1.374 -0.1349 -0.1401  0.1127
29657W        W45551  10.706  17.795   0.971  0.0452  0.3323  0.2467
29658W        W45552   3.811  15.390   4.809  0.1161  0.1013  0.1871
29659W        W45553  17.656  13.118  14.550 -0.2873  0.2155 -0.0149
29660W        W45554  13.611   7.846  15.027 -0.2540 -0.0289  0.0033
29661W        W45555   4.103   5.827   0.829  0.2240 -0.1830 -0.0893
29662W        W45556  18.877  11.415   4.860  0.0729 -0.0768  0.1005
29663W        W45557  11.639  14.211  14.913  0.0100 -0.0454  0.1392
29664W        W45558  12.392  10.550   3.924 -0.5375 -0.0425 -0.1268
29665W        W45559   7.408   5.731   0.126 -0.0507  0.0019  0.1039
29666W        W45560   3.249  18.260   5.633  0.2322  0.0262 -0.0281
29667W        W45561  10.715   0.108  12.000 -0.2359  0.2102 -0.4819
29668W        W45562  18.161   9.869   9.257  0.0757 -0.0881  0.4256
29669W        W45563  15.987  12.501  10.764  0.3374  0.1503  0.3682
29670W        W45564   9.018  10.092  12.090 -0.6745 -0.1570  0.0868
29671W        W45565   2.684   8.685   4.102  0.1413 -0.3031  0.0773
29672W        W45566   1.482   9.896  14.966 -0.1555 -0.1226  0.2001
29673W        W45567   8.531  11.224   1.224  0.1606 -0.0378  0.0079
29674W        W45568   7.491  15.512  13.673 -0.1904 -0.0160 -0.1460
29675W        W45569  18.903  10.764   0.929 -0.3562  0.0690 -0.1579
29676W        W45570  10.820  16.569   1.353  0.0933  0.0218  0.0685
29677W        W45571   7.468   6.252  14.644  0.1273  0.1167 -0.1063
29678W        W45572  18.336   4.644   1.097 -0.1767  0.0022 -0.2787
29679W        W45573   4.044   6.379  12.719  0.0643  0.3524 -0.2585
29680W        W45574  15.682  17.201   0.406  0.2999  0.0477 -0.0871
29681W        W45575   0.004  10.612   2.787 -0.0484  0.1962 -0.0054
29682W        W45576   4.768   2.764   0.237 -0.0587 -0.0699 -0.0274
29683W        W45577   1.130  16.397   5.124 -0.1121 -0.2621  0.2323
29684W        W45578  14.117   2.433   3.278 -0.1210  0.3508  0.0954
29685W        W45579   6.756  10.515  13.355  0.0182  0.1359  0.2899
29686W        W45580   9.276   1.687  12.442  0.1661  0.3789  0.3174
29687W        W45581  18.247  10.527  10.546 -0.1538 -0.1698 -0.0554
29688W        W45582   9.750   6.196  13.485 -0.1314 -0.0238  0.2249
29689W        W45583  17.346  18.373   1.148 -0.0351  0.0858  0.2170
29690W        W45584  19.138  18.827   1.998 -0.3295  0.2412  0.0155
29691W        W45585   4.035   9.799   4.516 -0.0898  0.1812  0.1285
29692W        W45586   6.973   8.128   0.883  0.5013 -0.1440  0.0845
29693W        W45587   6.064   6.318   2.798 -0.3120  0.0257  0.3262
29694W        W45588   4.506   8.519   3.215  0.1275  0.0744  0.3008
29695W        W45589  13.887   4.359  12.964 -0.0454 -0.2829 -0.0579
29696W        W45590  16.412   3.977  13.735 -0.2105  0.1433 -0.1142
29697W        W45591   8.266  11.186   3.654  0.2829  0.2972  0.0441
29698W        W45592  14.036  11.332  13.821 -0.1632  0.2912  0.1553
29699W        W45593   8.050   9.981  11.604 -0.0947 -0.1202 -0.0363
29700W        W45594   2.622  16.106   0.385  0.0452 -0.3092  0.2828
29701W        W45595   0.239  17.311  12.979 -0.0646  0.0763  0.0982
29702W        W45596   4.532   2.585  12.433 -0.0010  0.0976  0.1585
29703W        W45597   5.785   3.770  13.220 -0.0470  0.1150 -0.0466
29704W        W45598   1.798   4.673  13.982 -0.1301 -0.2176 -0.1094
29705W        W45599  14.316  14.336  14.526  0.1230  0.2100  0.3595
29706W        W45600   1.226  12.946   5.629  0.1727  0.2670  0.0687
29707W        W45601   8.393   0.946   0.351  0.0107 -0.0496  0.0379
29708W        W45602   0.159  15.824   5.041 -0.0833  0.3398  0.0783
29709W        W45603   5.906  11.488  10.669 -0.0395 -0.2711  0.0751
29710W        W45604  17.819  18.157   4.307 -0.1132  0.1165 -0.2891
29711W        W45605   5.782  13.208  11.302 -0.3355  0.1501  0.0662
29712W        W45606   5.744  16.409  10.749  0.0126 -0.2300 -0.0787
29713W        W45607   7.642  17.029   3.542 -0.0924 -0.1192  0.1342
29714W        W45608  11.823  12.125  14.085  0.2274 -0.3285 -0.1834
29715W        W45609   1.643   1.086   1.672 -0.2623 -0.4253 -0.1965
29716W        W45610   7.962   3.847   4.709  0.1571 -0.1393  0.1908
29717W        W45611  11.999   3.879   0.002 -0.0447 -0.0253  0.0370
29718W        W45612   6.198   0.898  13.061  0.3180  0.1892 -0.2421
29719W        W45613   0.719   0.244   3.659  0.0053  0.1156  0.0136
29720W        W45614   0.715  11.697  11.891  0.5618  0.0731 -0.0108
29721W        W45615   6.659  12.309   3.749  0.3192  0.1007 -0.1100
29722W        W45616   9.712  10.073   3.365 -0.0183  0.2227 -0.3257
29723W        W45617  14.541   1.418   4.657 -0.1531  0.4242  0.1649
29724W        W45618  16.403  15.262  13.204  0.3263  0.0214 -0.2154
29725W        W45619  12.039   7.293   5.898 -0.0866  0.0805  0.1949
29726W        W45620   3.960   4.478   0.442  0.1193 -0.0904 -0.1070
29727W        W45621  12.337   7.825  13.980 -0.0877 -0.0001  0.0051
29728W        W45622  18.247   3.330  13.953 -0.1666  0.0651 -0.3014
29729W        W45623   8.875   9.470  14.381  0.3168 -0.4424  0.5634
29730W        W45624  14.906   3.719   1.683 -0.0643  0.0600 -0.0074
29731W        W45625  12.604  16.995  13.589 -0.2482  0.2072 -0.2218
29732W        W45626  15.161   2.467  14.606 -0.2699 -0.4875 -0.2269
29733W        W45627  11.949   5.595  14.338  0.2944  0.1011  0.0900
29734W        W45628  19.019   5.853  12.101 -0.1156 -0.0817 -0.2672
29735W        W45629   1.696  13.331   0.079  0.0963  0.1723  0.1826
29736W        W45630  18.383   2.277   4.612 -0.0066 -0.0168  0.1033
29737W        W45631  16.557   1.831  14.994 -0.0197 -0.2094 -0.2713
29738W        W45632  19.022   9.024  12.517  0.1628 -0.0003 -0.0276
29739W        W45633  12.521  15.888   1.084 -0.1180 -0.1424 -0.1029
29740W        W45634   3.999  13.699   2.170  0.1825  0.1155 -0.0016
29741W        W45635   5.143  16.342  15.126  0.0199  0.0316  0.3462
29742W        W45636  18.741   9.402  11.085  0.3639  0.0168 -0.1234
29743W        W45637   5.900  14.635  13.079  0.1400  0.1301 -0.3513
29744W        W45638   2.694  13.691  10.840  0.1710  0.0124 -0.0976
29745W        W45639  14.387   0.863  11.616 -0.0444 -0.1481 -0.1723
29746W        W45640   7.603   5.340  11.770  0.2350 -0.0193 -0.0755
29747W        W45641   6.624   5.320  12.645  0.1479  0.0345  0.0380
29748W        W45642  18.468  15.114  15.187  0.0289 -0.2298  0.0525
29749W        W45643   9.818   6.732   2.567  0.3283  0.1860 -0.0315
29750W        W45644   6.656  16.324  12.871  0.2398  0.4392  0.1696
29751W        W45645  17.312   6.372   1.821  0.1120  0.1881 -0.0815
29752W        W45646   9.690  15.545  11.521  0.0297  0.1092  0.1728
29753W        W45647  14.285   3.568   4.105  0.4420  0.1602 -0.0233
29754W        W45648   0.297  10.086  10.256  0.2088  0.1152  0.0713
29755W        W45649   0.626  11.919  14.247 -0.4450 -0.0906  0.1240
29756W        W45650   6.068  12.139   0.247  0.2245 -0.0749 -0.2409
29757W        W45651  13.377  14.025   4.320  0.1108 -0.4826  0.1318
29758W        W45652  15.030  18.150  13.333 -0.1099 -0.2147  0.0020
29759W        W45653  15.361  10.807  11.234  0.0548 -0.0271  0.2517
29760W        W45654   3.586  14.005   2.047 -0.1992  0.0222 -0.3659
29761W        W45655  10.630   9.302  14.558 -0.0461  0.0903 -0.2135
29762W        W45656  17.978   6.363   4.838 -0.1138 -0.0305  0.3636
29763W        W45657   5.404   8.268  14.938 -0.1210  0.1872  0.2349
29764W        W45658   3.119  17.530   4.543  0.0584  0.1087  0.0903
29765W        W45659  19.094   4.926  14.401  0.0387 -0.0274  0.1286
29766W        W45660   6.955  15.644   1.583  0.1654  0.2301  0.2065
29767W        W45661  10.317   1.369   2.909  0.1245 -0.2821  0.2376
29768W        W45662   8.257  15.165   4.724 -0.2933  0.1042 -0.1218
29769W        W45663   9.211   2.882  11.605  0.0380  0.1016 -0.1492
29770W        W45664   2.655   2.813  10.493 -0.0173  0.1191 -0.1218
29771W        W45665  16.506   3.854  10.938 -0.0179 -0.1852  0.3796
29772W        W45666   9.671   8.220  13.898  0.2602 -0.2472 -0.0615
29773W        W45667  18.269  10.644  11.453 -0.0264  0.0499 -0.2380
29774W        W45668  12.723   6.690  12.964  0.2272 -0.1121 -0.0079
29775W        W45669  13.073  17.118  13.534  0.3617 -0.1639  0.0154
29776W        W45670   9.478  17.547   4.370  0.0193 -0.0965  0.0149
29777W        W45671   7.612   2.532   0.579 -0.1922 -0.4362 -0.0423
29778W        W45672  18.896   5.924   0.290  0.1380  0.0593 -0.1299
29779W        W45673  14.261  17.219   4.599  0.1154  0.2668 -0.1083
29780W        W45674   4.263  17.637   3.865 -0.1745  0.1344  0.1870
29781W        W45675   8.184  17.843   4.551 -0.1100  0.0354  0.2305
29782W        W45676   9.360  11.475   1.032  0.0167  0.3987 -0.0122
29783W        W45677   6.866  18.200  11.119 -0.4214  0.2148 -0.1089
29784W        W45678   5.672   1.503  15.139  0.0856 -0.1760  0.2441
29785W        W45679  18.306  11.569   1.028 -0.1866  0.2328 -0.2516
29786W        W45680  11.393   5.134  10.693 -0.0807  0.0375  0.1492
29787W        W45681   3.975  16.651  13.686  0.2337  0.3708  0.0599
29788W        W45682   6.847   9.983  13.880 -0.1639 -0.0843  0.1243
29789W        W45683  14.184  10.392  11.536 -0.0086  0.0359 -0.1549
29790W        W45684  15.829   0.311   1.432  0.0997 -0.2427  0.0015
29791W        W45685  12.222  15.816  10.450 -0.1422 -0.0122  0.0793
29792W        W45686  13.652  10.974  15.053 -0.0418 -0.0360  0.1478
29793W        W45687  18.721   8.923   0.455 -0.2645 -0.0909  0.0240
29794W        W45688   3.695  13.279   1.146  0.1236  0.2716  0.5010
29795W        W45689  10.469   2.889   0.932 -0.0110 -0.0293 -0.0135
29796W        W45690   6.440   0.865   0.718  0.4923 -0.1351 -0.0773
29797W        W45691   4.554  10.945   3.408 -0.0087 -0.6624 -0.0943
29798W        W45692  16.527  12.616   2.824 -0.2645 -0.1278  0.0050
29799W        W45693   4.002   1.262  11.419  0.1385  0.1674  0.1983
29800W        W45694  12.935  12.483  11.247  0.0876 -0.2706  0.1299
29801W        W45695  13.156   1.140   3.445  0.0850  0.1415 -0.0234
29802W        W45696   4.621  12.117  11.133  0.0496 -0.1875 -0.0460
29803W        W45697   8.509  10.526   3.916 -0.1288  0.0285  0.3062
29804W        W45698   5.244  16.407  13.503  0.0592  0.0496  0.0414
29805W        W45699   2.886  16.362  12.135  0.4705 -0.1368  0.3594
29806W        W45700   7.836  12.161   1.505 -0.0423 -0.1611 -0.0098
29807W        W45701   1.775   7.911  10.170  0.1104 -0.0596 -0.1439
29808W        W45702  12.589  14.932  12.806 -0.1478  0.0211  0.2113
29809W        W45703  16.609   2.348   1.658 -0.3565  0.1178  0.0886
29810W        W45704   5.376   3.584   4.004  0.1944 -0.2599 -0.1721
29811W        W45705   5.330  13.661  12.022  0.0321  0.1416  0.1224
29812W        W45706  15.248   8.438   0.918 -0.4911 -0.0851  0.1353
29813W        W45707   0.020   9.512   2.885 -0.2163  0.0174  0.2279
29814W        W45708   7.677  10.632  13.211 -0.0804  0.0027 -0.2083
29815W        W45709   6.845   6.205  11.479 -0.2582 -0.1394  0.0920
29816W        W45710   3.049   6.045  13.963 -0.1727  0.4405 -0.0601
29817W        W45711   2.688   5.270   0.659 -0.0468  0.0655 -0.6669
29818W        W45712  16.329  14.627   2.320  0.1953 -0.0165  0.1465
29819W        W45713   2.631  13.526  13.964 -0.0884 -0.1735 -0.0398
29820W        W45714  17.088   7.284  13.246 -0.0028 -0.0651 -0.1995
29821W        W45715   3.400   2.246  14.577 -0.1310  0.4631 -0.1288
29822W        W45716  10.347   0.692   0.422 -0.0714  0.1106  0.0406
29823W        W45717  13.575   7.316   1.786  0.0874  0.2523 -0.1372
29824W        W45718   8.364  15.678   3.432 -0.1214  0.1431 -0.1360
29825W        W45719  13.558  11.469   5.176 -0.0904 -0.0372  0.1977
29826W        W45720   7.683  11.499  12.020 -0.2965  0.2969  0.0332
29827W        W45721   4.967  10.088  12.902 -0.0211 -0.0401 -0.1996
29828W        W45722   8.353   5.552  14.072  0.1774 -0.0966 -0.0638
29829W        W45723  16.162  15.022   1.433 -0.0682 -0.0496  0.1220
29830W        W45724  16.334   6.280  12.313  0.1399  0.4418  0.0114
29831W        W45725   9.607   2.894  11.915  0.2456  0.0082  0.0175
29832W        W45726   8.795  18.529  12.276 -0.3392  0.1010 -0.0187
29833W        W45727  12.617  18.723   4.081 -0.0729 -0.3072 -0.0972
29834W        W45728   4.068   6.839  10.469  0.2908  0.0397 -0.0157
29835W        W45729   3.230  13.540  11.015 -0.2094 -0.3331 -0.0717
29836W        W45730   3.185   0.481   2.192  0.2959 -0.0660 -0.3498
29837W        W45731  17.249   3.662   5.617  0.0177  0.1367 -0.0306
29838W        W45732   6.443   1.642  13.460  0.1022  0.1742  0.0247
29839W        W45733   0.777  10.827   5.384  0.0053 -0.1434  0.0671
29840W        W45734  12.385  10.485  12.716  0.0563  0.2668  0.0570
29841W        W45735  14.588  15.483   2.870 -0.1072 -0.2514  0.0302
29842W        W45736  18.856  17.244  14.503 -0.0952  0.2266  0.1602
29843W        W45737  13.041   2.808  11.539 -0.0666  0.0083  0.1228
29844W        W45738   4.673   6.416  13.438  0.0004 -0.0817  0.2442
29845W        W45739   4.618  15.499   3.021  0.1059  0.0497  0.0358
29846W        W45740   0.597   6.031  12.699 -0.1346 -0.1704 -0.1892
29847W        W45741   4.811   1.396  12.108  0.1573 -0.2450  0.0897
29848W        W45742  18.979  17.660   4.810 -0.2114  0.1707 -0.3077
29849W        W45743  10.302  19.093   0.654 -0.0423 -0.0568  0.1248
29850W        W45744   8.222   8.936   1.285 -0.1286  0.3328  0.1722
29851W        W45745   5.943  16.129  10.293  0.1695 -0.1304  0.1043
29852W        W45746  12.419  13.466   4.420  0.3451  0.1474 -0.1509
29853W        W45747  10.817   9.725  10.506  0.1929 -0.0373  0.0966
29854W        W45748   9.459  18.713   1.423 -0.4954  0.1642 -0.0218
29855W        W45749  13.599   7.763   2.073 -0.0853 -0.0139 -0.0994
29856W        W45750   6.778  17.216  10.138  0.2727 -0.0580  0.1468
29857W        W45751  14.010  13.813   2.260 -0.2022  0.0097  0.1390
29858W        W45752   6.113  16.377   0.669 -0.2551  0.0915  0.2325
29859W        W45753  17.863  15.408   4.682 -0.0451  0.0529  0.0066
29860W        W45754   2.677   0.017   4.050 -0.1260  0.0509 -0.1551
29861W        W45755   0.992  18.831  11.584 -0.2070 -0.3064 -0.0372
29862W        W45756  14.236   5.672  11.852 -0.2324 -0.1537 -0.0411
29863W        W45757  14.693  17.707  13.644  0.0777 -0.0360 -0.5297
29864W        W45758   8.442   4.016   0.334  0.2587  0.0894  0.1693
29865W        W45759   2.461   4.801  14.815  0.0784 -0.1905 -0.0946
29866W        W45760   2.834   3.854  13.065 -0.1779 -0.1706  0.0392
29867W        W45761  13.005  18.644   3.675 -0.0482  0.4162  0.0106
29868W        W45762  17.521  19.147   0.619 -0.2575  0.4003  0.1671
29869W        W45763   6.543  12.260   2.241  0.0520 -0.1897  0.0994
29870W        W45764   8.290   1.988  12.799  0.2224 -0.0334 -0.0459
29871W        W45765  13.722  11.089  12.997 -0.3468 -0.1734  0.1149
29872W        W45766   3.035   3.706  13.595 -0.1203  0.0204  0.6244
29873W        W45767   8.564   0.642   2.111 -0.1422 -0.2569  0.1272
29874W        W45768   1.761   2.306   2.338  0.1648 -0.0338 -0.0265
29875W        W45769  10.820  16.136   2.417  0.0115 -0.0621  0.1367
29876W        W45770  16.830   2.433   0.829 -0.1484  0.0397  0.1246
29877W        W45771  14.669   6.320  11.357  0.2342 -0.1184  0.0945
29878W        W45772   9.533   3.781  14.662 -0.0147 -0.2128  0.0876
29879W        W45773  11.480  12.027  11.368 -0.1404  0.0538 -0.2482
29880W        W45774   8.138   9.957   3.993 -0.0391  0.1155  0.1097
29881W        W45775  14.799  13.770  14.833  0.0971  0.0833 -0.1068
29882W        W45776   7.198   6.755   1.385 -0.1526  0.1803  0.1785
29883W        W45777   4.543   3.667   0.489 -0.1631  0.1383  0.0815
29884W        W45778  10.674   6.439   4.573  0.1774 -0.1746 -0.3237
29885W        W45779   9.044  16.038  12.519  0.2302 -0.0435  0.2194
29886W        W45780   0.356   5.817   1.859 -0.2080  0.1069  0.1952
29887W        W45781   9.478  11.782   2.034 -0.4916  0.1355 -0.2945
29888W        W45782  14.976  18.923   5.203  0.0704 -0.3147  0.3891
29889W        W45783   9.226  10.246   0.989  0.0399 -0.0886  0.0516
29890W        W45784   6.247  13.556  10.462  0.0572  0.4532  0.0816
29891W        W45785  18.651   7.338   5.337  0.3220  0.0343 -0.0291
29892W        W45786  18.969   9.790   4.478  0.1889  0.1389  0.3172
29893W        W45787   6.367   2.270   2.059  0.0857  0.1434  0.2003
29894W        W45788  11.546   6.247   1.649 -0.1391 -0.0052 -0.0890
29895W        W45789   7.294  17.332  12.330 -0.3237 -0.1692 -0.1527
29896W        W45790  19.063  10.368   1.439 -0.0443 -0.0629 -0.0977
29897W        W45791   4.907   1.332   2.995 -0.0026 -0.0992  0.2045
29898W        W45792   2.024   7.899  12.055 -0.2218  0.4330  0.0294
29899W        W45793  17.759   9.168  10.582  0.3884 -0.2354 -0.0094
29900W        W45794   3.981  17.034  13.391 -0.0303 -0.0796 -0.1454
29901W        W45795   5.596   0.956   0.205 -0.2581 -0.1305 -0.1699
29902W        W45796   1.629   8.693  11.162  0.0564  0.3351 -0.0793
29903W        W45797   7.496  16.795   3.115  0.2698  0.4556 -0.0890
29904W        W45798  18.768  17.920   0.407 -0.3106 -0.0900 -0.0029
29905W        W45799  17.103  10.304  10.749  0.0847  0.3788 -0.3100
29906W        W45800   0.761   3.799  12.720 -0.2118 -0.0028  0.1089
29907W        W45801  18.214  14.206   0.770  0.0831 -0.0570 -0.0037
29908W        W45802   2.774   4.679   2.314 -0.3532 -0.1756 -0.0085
29909W        W45803  18.365   9.501   0.163 -0.2137  0.4188 -0.2564
29910W        W45804   2.693   9.987   2.119 -0.4224 -0.0869  0.4137
29911W        W45805  14.965   4.620  11.751 -0.1739  0.2019 -0.0379
29912W        W45806   5.622  16.246   3.397  0.0626  0.1541  0.1058
29913W        W45807   4.562   5.705   0.127 -0.4312  0.1025 -0.0418
29914W        W45808  10.760  12.493  12.515  0.2164 -0.1664 -0.3009
29915W        W45809  16.396   5.938   1.027 -0.2627  0.1426  0.0856
29916W        W45810   7.192  16.142   1.656 -0.1956 -0.2158 -0.2085
29917W        W45811  13.642   4.956   2.297 -0.0185  0.3478 -0.1121
29918W        W45812  17.524   7.318  13.066  0.0008  0.0790 -0.2412
29919W        W45813  11.127  11.688   1.395 -0.1395  0.1336  0.0644
29920W        W45814   0.556   2.075  13.325  0.1251  0.0156  0.0155
29921W        W45815  16.349  11.860   2.244  0.3378  0.1345  0.3111
29922W        W45816   0.384  16.414  10.588 -0.1842  0.1729  0.1923
29923W        W45817   7.343   0.123  15.081  0.2457  0.0399  0.3871
29924W        W45818  16.418  13.880   3.123 -0.0965 -0.1246  0.3272
29925W        W45819  13.553  18.344  12.569  0.4090 -0.3264  0.2534
29926W        W45820  18.730  12.113   3.293 -0.4305 -0.3226  0.0831
29927W        W45821  12.569   9.807  14.855  0.0135  0.0227  0.0463
29928W        W45822   2.660   1.193   3.244  0.2182 -0.3268  0.6538
29929W        W45823   9.295   1.527   3.702 -0.0348 -0.1702  0.2446
29930W        W45824   8.731  12.663  14.183  0.1612 -0.2928 -0.0599
29931W        W45825  16.962   4.978   2.892  0.0545  0.3229  0.4845
29932W        W45826   1.159   7.323   0.323  0.0449  0.1007  0.0869
29933W        W45827   5.759   8.459   9.390  0.3297  0.1369 -0.0701
29934W        W45828  11.193   7.180  14.000 -0.0041 -0.0307 -0.0175
29935W        W45829   0.820  17.993   2.544  0.0108  0.3183  0.0412
29936W        W45830  11.530   3.677   2.559 -0.0192 -0.0497 -0.0343
29937W        W45831  12.050   5.314  11.913  0.1530 -0.3566 -0.1865
29938W        W45832  17.526  16.055   1.825  0.1221 -0.0012 -0.1772
29939W        W45833   6.037   7.331  12.001 -0.0999  0.2531  0.0705
29940W        W45834  12.690   0.075  11.951 -0.0507 -0.0007  0.1680
29941W        W45835  12.716   9.375   1.493  0.0611 -0.1329  0.1467
29942W        W45836  17.369   3.199  12.234 -0.0131 -0.1213 -0.1796
29943W        W45837   8.844  17.441   5.046 -0.2547  0.0413 -0.4104
29944W        W45838   6.127  12.658   5.040 -0.1784  0.0247 -0.0219
29945W        W45839  15.457   5.292  13.006 -0.0242  0.0300 -0.1017
29946W        W45840   9.890  17.123  12.602  0.1203 -0.2675 -0.1274
29947W        W45841  10.071   3.114  11.972  0.3510  0.0895 -0.1436
29948W        W45842   3.374   5.306   4.832  0.0477 -0.0503 -0.0937
29949W        W45843   9.110   8.501  14.365 -0.0380  0.3995  0.1119
29950W        W45844   3.111  14.240  14.930 -0.0495 -0.1842 -0.2943
29951W        W45845   2.894  10.241  14.768 -0.3204 -0.3724 -0.1525
29952W        W45846   8.381   8.922  12.682 -0.1962  0.2009  0.0478
29953W        W45847  12.565   3.889   4.552 -0.0886 -0.2604  0.3140
29954W        W45848   1.640  11.747  14.769  0.2493 -0.3071 -0.0740
29955W        W45849  10.621   8.470   0.939 -0.1087 -0.0114  0.1023
29956W        W45850   1.124   6.695  13.085  0.0174  0.0084 -0.1038
29957W        W45851  18.233   7.994  14.751 -0.0782 -0.0366  0.4692
29958W        W45852   2.889  16.453   0.151 -0.1813 -0.4549  0.1248
29959W        W45853  11.990   7.858   2.564 -0.1854 -0.0357 -0.1899
29960W        W45854   2.516   8.601  11.286  0.1021 -0.0784 -0.3483
29961W        W45855  17.550  16.875   1.530  0.0857 -0.0036 -0.0105
29962W        W45856  14.767  17.559  15.026 -0.1531  0.0210 -0.1132
29963W        W45857   4.111   2.995  10.691 -0.1334 -0.0447 -0.0288
29964W        W45858   0.318   0.275   5.458 -0.1426 -0.1088 -0.0164
29965W        W45859  12.591  11.925   1.687  0.1402  0.0476 -0.2171
29966W        W45860  11.630  14.920  13.898  0.1510  0.1334  0.0123
29967W        W45861  10.527  10.875  13.768  0.1927  0.0398 -0.2945
29968W        W45862  12.988  14.771  14.409 -0.0188  0.1480 -0.0771
29969W        W45863   9.640   3.236   4.596  0.0162 -0.1756  0.3091
29970W        W45864   3.654   4.967   3.671 -0.1201 -0.3165 -0.0274
29971W        W45865  10.172  15.241   9.603 -0.1590  0.1752 -0.2133
29972W        W45866  19.185   5.695  14.032  0.2749  0.2051 -0.2709
29973W        W45867  12.608  16.395   2.384 -0.0454  0.3021 -0.1179
29974W        W45868  17.871   9.114  15.174 -0.5084 -0.3946 -0.2954
29975W        W45869   4.792   4.604  14.095  0.2120  0.1992  0.1140
29976W        W45870   2.924   4.069   5.018  0.4264  0.0853  0.0831
29977W        W45871  15.105   6.436   5.149 -0.0463  0.0207  0.1920
29978W        W45872   7.268   0.580  12.108  0.1590  0.1520  0.2322
29979W        W45873   4.781  11.668  13.431  0.1094 -0.0199 -0.0979
29980W        W45874  11.499   8.796   4.109 -0.0884 -0.0898 -0.4962
29981W        W45875  10.877  12.793   4.061 -0.0574  0.2471  0.1330
29982W        W45876   6.443   2.895  12.713  0.4837  0.0806  0.1011
29983W        W45877   9.924   4.893   4.364  0.0651 -0.0962  0.1468
29984W        W45878   7.084  14.615   1.730  0.2959  0.2826  0.5477
29985W        W45879   1.684   6.479   1.600  0.0738 -0.0624 -0.0652
29986W        W45880   1.394   5.277  13.759 -0.1273  0.0485  0.0226
29987W        W45881  10.458   6.098  11.077  0.2375 -0.2006  0.1896
29988W        W45882   1.510   7.491  12.033 -0.1877  0.1158  0.0765
29989W        W45883  14.337   7.165   0.634  0.2412 -0.0474  0.0020
29990W        W45884   2.328   4.783   1.813 -0.0607 -0.1223  0.1091
29991W        W45885  12.547  16.109   1.979 -0.2291 -0.0739  0.0934
29992W        W45886  11.819   7.075   9.901 -0.0854  0.1596  0.3887
29993W        W45887  17.626  11.211   3.543 -0.1026  0.0190 -0.1567
29994W        W45888  11.242  12.264  12.694 -0.1997  0.2932  0.1146
29995W        W45889  17.894   0.640   3.560  0.1463 -0.1434 -0.0308
29996W        W45890   3.949   1.444   1.573  0.1374  0.1324 -0.0898
29997W        W45891   4.767   5.401   3.413 -0.2771  0.3144  0.0568
29998W        W45892  14.419  14.941   0.237  0.0984  0.2831  0.0707
29999W        W45893  10.825   5.526   4.745 -0.1755 -0.0613 -0.2961
30000W        W45894  18.858  10.800  12.081  0.0496  0.0735 -0.1111
30001W        W45895   6.401  12.836   3.326  0.1414  0.2026 -0.2793
30002W        W45896  13.629  10.173   5.091 -0.0659 -0.0797 -0.3879
30003W        W45897   7.461  13.815  10.515  0.0188 -0.0499 -0.2525
30004W        W45898  12.654  12.633   0.254  0.3725  0.1657 -0.3022
30005W        W45899   5.039   5.225   2.276 -0.0701 -0.5175 -0.0125
30006W        W45900   9.296   7.128  11.297  0.4273 -0.0366 -0.0259
30007W        W45901   1.586   4.016  12.392  0.1267 -0.4709 -0.1488
30008W        W45902   7.751   3.581  13.253  0.1846 -0.1275 -0.2854
30009W        W45903  14.820  13.909   3.858  0.2111 -0.2372 -0.3403
30010W        W45904  12.175  14.311   3.768 -0.0684  0.2244 -0.2147
30011W        W45905  14.067  16.475   4.691  0.0031  0.1369 -0.1015
30012W        W45906   4.984  11.768   4.428 -0.2197  0.2709 -0.4512
30013W        W45907   4.152   7.051  14.949  0.2893 -0.0626  0.0140
30014W        W45908   6.499  16.895   3.188  0.0862 -0.0717 -0.0875
30015W        W45909  15.415  16.110   4.442 -0.0710  0.1927 -0.0724
30016W        W45910  17.145  12.315   5.532  0.0057 -0.2418 -0.0402
30017W        W45911   6.595  16.252   3.718  0.1867 -0.3369 -0.0817
30018W        W45912   8.451   9.899  12.893  0.1573 -0.1119 -0.1174
30019W        W45913   8.467   4.230   5.781  0.2090  0.0585  0.1656
30020W        W45914   8.327   7.568  14.277  0.1919 -0.2131 -0.0060
30021W        W45915   8.001   8.602  11.459  0.1741  0.1513 -0.1421
30022W        W45916  12.255  11.256  13.379 -0.2274 -0.0095  0.0610
30023W        W45917  10.337  17.993  12.345 -0.1678  0.0790  0.0803
30024W        W45918   5.600   0.966   2.068  0.1165  0.1130 -0.2643
30025W        W45919  17.627   5.674  12.901 -0.1342 -0.1702 -0.1705
30026W        W45920   9.922  10.119   2.907  0.2305 -0.1068  0.1367
30027W        W45921  11.732  17.526   5.041  0.0449  0.1355 -0.2458
30028W        W45922   5.041  18.983  10.219 -0.0464 -0.2964 -0.1689
30029W        W45923   6.305  12.723   5.897 -0.0758  0.1278  0.0169
30030W        W45924   7.214   9.693   1.416 -0.2040  0.1600 -0.0289
30031W        W45925   0.740  13.419   1.017 -0.2528 -0.1265 -0.1789
30032W        W45926  12.003   9.990   5.154 -0.1820 -0.0027 -0.0513
30033W        W45927   2.481   6.730   4.720 -0.1311  0.0016 -0.3897
30034W        W45928  11.531  16.472   1.106  0.4084 -0.1985 -0.3640
30035W        W45929   3.137   3.342   0.531  0.1066 -0.1037  0.2630
30036W        W45930   7.765   0.553  12.309 -0.1919  0.1605 -0.2516
30037W        W45931   5.147   1.974   9.840  0.0853 -0.2552 -0.2447
30038W        W45932  12.076   4.693  14.286 -0.1238 -0.0688 -0.3207
30039W        W45933   7.070  10.803  12.351  0.3636  0.1279  0.0850
30040W        W45934  13.843  10.562   0.896  0.0883 -0.2152  0.1360
30041W        W45935  12.608  16.610   9.517  0.1317 -0.4917  0.3142
30042W        W45936  16.030  18.478  14.144  0.0664  0.5282 -0.0798
30043W        W45937   4.549  18.242  12.274 -0.0170 -0.1907 -0.2875
30044W        W45938   0.472   2.946  12.855 -0.0526 -0.0039 -0.0521
30045W        W45939   5.394  12.627   0.126 -0.2100  0.2683 -0.1622
30046W        W45940  11.095  17.848  13.898 -0.1163  0.0561 -0.0622
30047W        W45941   4.127   9.375  11.923 -0.0960 -0.0201  0.0288
30048W        W45942   9.529  17.524  11.672  0.0186  0.0511  0.1204
30049W        W45943  15.369   2.494  15.086  0.2176  0.2256 -0.1868
30050W        W45944  13.337  16.878   0.792 -0.1986 -0.2266  0.0108
30051W        W45945   2.527  16.109   5.194 -0.2589 -0.2394  0.0037
30052W        W45946  13.553   7.087  10.837 -0.2187 -0.1109  0.2521
30053W        W45947  14.464  16.290   4.371  0.2850 -0.3041 -0.0171
30054W        W45948  15.753  16.302  13.485  0.0401  0.1169  0.0786
30055W        W45949  17.897  17.564   0.691  0.0774 -0.0220  0.4080
30056W        W45950   7.235   2.703   3.927 -0.2771  0.1364 -0.0351
30057W        W45951   6.692  16.103   1.646  0.0658  0.0814  0.1191
30058W        W45952   3.072   8.319  12.164 -0.1068 -0.0408 -0.1561
30059W        W45953  15.013  16.159   2.470  0.0253 -0.2116  0.2146
30060W        W45954  10.499  11.756   3.458 -0.3877  0.0859  0.1103
30061W        W45955   0.929  19.117  15.159 -0.1039  0.1534 -0.0490
30062W        W45956  17.503   2.806   2.277 -0.0494  0.2457 -0.0973
30063W        W45957   3.993  13.656  11.020  0.3197 -0.1128  0.2062
30064W        W45958   8.550  13.962  11.341  0.1321  0.0666 -0.0081
30065W        W45959   1.323   4.201   2.381  0.1706 -0.1148 -0.3846
30066W        W45960   1.604  12.492   0.682 -0.0795  0.2417  0.0898
30067W        W45961   9.781   0.291  14.062 -0.0194  0.4164  0.1656
30068W        W45962  15.898  12.605   0.741 -0.3542 -0.0431 -0.0183
30069W        W45963   6.683  10.611   4.983  0.2358  0.1018 -0.2570
30070W        W45964   0.011  12.644   5.452 -0.1696  0.0659 -0.1041
30071W        W45965   2.895  12.351   4.577 -0.3235 -0.1810  0.2083
30072W        W45966  11.888  14.543  10.678 -0.6542  0.1538 -0.1065
30073W        W45967   9.694   9.519  15.127 -0.1888  0.0140 -0.0793
30074W        W45968  15.567   8.500   5.022  0.2764  0.0706  0.0017
30075W        W45969   9.800  11.695   0.801 -0.1924  0.1388 -0.0776
30076W        W45970  18.833  10.256   4.685  0.1875  0.0503 -0.5735
30077W        W45971  13.109   9.405   1.091  0.0185  0.4032 -0.0707
30078W        W45972  11.250  11.881   4.303 -0.3107 -0.0931  0.0214
30079W        W45973  11.361  10.205  12.742  0.0986  0.0150 -0.4740
30080W        W45974   0.768  16.534   2.150 -0.0395 -0.0957  0.0691
30081W        W45975  15.488   1.478  14.128  0.3641 -0.1822 -0.3255
30082W        W45976  15.366   0.915  13.599  0.2364  0.2484  0.1100
30083W        W45977  11.768  15.794   2.246  0.2692  0.0257 -0.0871
30084W        W45978   1.970  14.405   1.463  0.2465 -0.1942  0.4293
30085W        W45979  14.652  16.267  12.246  0.2420  0.3577  0.0722
30086W        W45980   6.956   3.804   0.115 -0.1398 -0.0738 -0.0105
30087W        W45981   1.632  13.679  12.982  0.0911  0.1855 -0.0548
30088W        W45982   2.296  15.082   2.858 -0.1872  0.0625 -0.0257
30089W        W45983  15.857  14.324  10.938 -0.1017 -0.2389  0.2767
30090W        W45984   5.880  16.024   4.250 -0.0489 -0.2250 -0.6724
30091W        W45985  13.777  11.574   0.950  0.0428 -0.1226 -0.0614
30092W        W45986  14.674  14.222   1.784 -0.5954  0.1382  0.2785
30093W        W45987  12.468  10.770  13.189  0.1968 -0.0050  0.1163
30094W        W45988   7.469   4.602   4.815  0.1775  0.4865  0.1871
30095W        W45989   0.529  10.916  11.401  0.1497 -0.0008 -0.0345
30096W        W45990   1.692  11.538  12.221 -0.3813 -0.0467  0.2347
30097W        W45991  13.340   2.626  12.316  0.0995  0.1471  0.0138
30098W        W45992  17.801   4.193   3.332  0.1013  0.0954  0.0229
30099W        W45993   4.028   4.826   2.130 -0.0655 -0.0645  0.3237
30100W        W45994   8.594  11.671  11.924 -0.5327 -0.2729  0.2562
30101W        W45995  14.271   4.702   1.630  0.1125 -0.0534 -0.0976
30102W        W45996   4.228  17.183  12.437 -0.0233 -0.2004  0.0289
30103W        W45997   3.841  18.482   4.702 -0.0648  0.3218  0.3626
30104W        W45998  10.617  14.536  14.223  0.0112  0.0227  0.2934
30105W        W45999  13.688   4.598  13.381 -0.1967 -0.1265 -0.2234
30106W        W46000   7.878   9.741  13.372  0.1876  0.1640 -0.3235
30107W        W46001   4.722   1.424  14.873 -0.0486 -0.1992 -0.1089
30108W        W46002   8.413   3.351  11.560 -0.2673  0.1722 -0.2332
30109W        W46003  12.831   2.143  14.530  0.0296 -0.1898 -0.2034
30110W        W46004   9.149  12.594  13.214  0.0649  0.1896 -0.0105
30111W        W46005  13.944   8.803   6.194  0.1824  0.0510 -0.2700
30112W        W46006  14.166   1.269  11.231 -0.1660 -0.1112  0.1907
30113W        W46007  10.371   2.857   2.578 -0.0864  0.5571 -0.1470
30114W        W46008  18.676  13.155   4.282  0.2367  0.3048 -0.3632
30115W        W46009  18.710  16.592  11.448  0.2656  0.1084  0.2098
30116W        W46010   7.217  11.970   1.552  0.2039 -0.1049 -0.0687
30117W        W46011   2.021   7.662   3.161 -0.1963 -0.0406  0.1740
30118W        W46012  13.290  16.238  11.203  0.2593 -0.0599  0.3093
30119W        W46013  17.773   9.272  11.085 -0.1447  0.3728  0.1831
30120W        W46014   9.060  14.506  10.989  0.3557  0.4062  0.0847
30121W        W46015  13.426   6.835  13.426 -0.0124  0.4309  0.0273
30122W        W46016  10.014  13.884   0.002  0.3962 -0.2443 -0.2452
30123W        W46017  17.862   9.095   5.165 -0.1352 -0.0142 -0.0503
30124W        W46018  15.079   8.545   3.719 -0.1613  0.0578  0.4536
30125W        W46019   4.023   8.373  11.857  0.2899 -0.2046  0.4518
30126W        W46020  10.016   3.878  12.434  0.0944 -0.3670  0.0807
30127W        W46021  12.432  11.939  10.004  0.0020  0.0362  0.1086
30128W        W46022   7.730   1.708  11.310 -0.0636  0.2478  0.2352
30129W        W46023   6.248   7.737   1.162  0.1030  0.2057  0.0678
30130W        W46024   8.452   7.171   5.240 -0.0885 -0.0011 -0.1777
30131W        W46025   8.938  12.369  12.784  0.2271 -0.2566  0.1054
30132W        W46026  17.946   0.244   0.610  0.1859 -0.1635  0.3834
30133W        W46027  13.180   6.896  12.945 -0.2055  0.1860 -0.1572
30134W        W46028   2.961   3.640  14.387 -0.1764 -0.2613  0.1946
30135W        W46029  15.059   6.241  14.733 -0.0607 -0.3269 -0.0217
30136W        W46030   0.337   1.046   0.885 -0.0478  0.4220  0.2658
30137W        W46031  16.842  19.126   4.385 -0.0249 -0.2953  0.3840
30138W        W46032   8.436  10.889  11.883 -0.0603  0.3332  0.0572
30139W        W46033   6.003   2.048  13.611  0.1692  0.1804 -0.1134
30140W        W46034   1.669   7.508  10.382  0.2036  0.0384  0.1204
30141W        W46035  10.828   2.942  13.706  0.1367 -0.3095 -0.0739
30142W        W46036   4.964   5.712   0.955  0.0060 -0.1643  0.0047
30143W        W46037   4.436   6.946   3.394  0.0200 -0.1121 -0.0104
30144W        W46038   9.835   1.201   0.122 -0.1476  0.0415 -0.2393
30145W        W46039   4.725  12.934   5.349  0.2068 -0.2331 -0.0591
30146W        W46040  17.744  17.854   2.291  0.0503 -0.0692  0.2923
30147W        W46041  12.039  15.907   0.521  0.3643  0.1155  0.2469
30148W        W46042  13.928  12.511   0.769  0.0078 -0.1286 -0.0687
30149W        W46043  12.930   3.817   4.120 -0.1178  0.1099 -0.1045
30150W        W46044   1.021  11.997   4.678  0.0360 -0.1975  0.1343
30151W        W46045   5.991  11.244  13.226  0.2446  0.1281  0.0202
30152W        W46046  16.115  14.341  12.243  0.2859 -0.2188  0.2362
30153W        W46047   3.371  10.131   2.732  0.1148  0.1948 -0.0452
30154W        W46048  17.242  15.343  13.389 -0.0289 -0.0449 -0.0540
30155W        W46049   0.342   6.077  14.270 -0.1973 -0.0688  0.0792
30156W        W46050  14.405  11.254   3.385  0.0174  0.1472  0.0068
30157W        W46051   6.699  11.012  13.896  0.0759  0.0703 -0.2818
30158W        W46052   1.225   9.139  10.921  0.3711 -0.1074  0.2206
30159W        W46053   5.170  17.173  12.288  0.1512  0.0088 -0.0342
30160W        W46054   5.061   4.451   3.117 -0.2389 -0.0915  0.1848
30161W        W46055  18.220  14.174   5.275  0.0470  0.3400 -0.0828
30162W        W46056   9.293  10.906   2.601 -0.4479 -0.0509  0.2044
30163W        W46057  14.144  15.710   2.667  0.2926  0.0340  0.1660
30164W        W46058   6.638  16.625   1.610 -0.4170 -0.3661 -0.1638
30165W        W46059   6.893   5.280   4.311  0.1778  0.2065  0.1218
30166W        W46060   8.831   9.569   1.602  0.1019 -0.0187 -0.1280
30167W        W46061  14.382   6.552  11.665 -0.0215  0.1694 -0.0979
30168W        W46062   3.069   6.598  13.969  0.4243 -0.1468 -0.1721
30169W        W46063   2.447   5.107   3.167  0.3673 -0.1110 -0.0853
30170W        W46064   6.752   3.692  10.988  0.0253  0.1966  0.0546
30171W        W46065   5.513  17.105  10.316 -0.4731  0.0579 -0.2280
30172W        W46066  11.334   1.160   3.681  0.1598  0.3215  0.0618
30173W        W46067  16.885  16.600   0.567 -0.0426 -0.1346  0.0041
30174W        W46068   9.840   4.384   2.443  0.0341  0.1374  0.6457
30175W        W46069   8.493   0.957  10.831  0.0360 -0.0388  0.1266
30176W        W46070   6.481  11.783  14.630  0.1077  0.1939  0.2487
30177W        W46071   6.564  16.188  14.423 -0.2527  0.0526 -0.0259
30178W        W46072   9.123  11.072   4.646 -0.0238 -0.0010 -0.0026
30179W        W46073  17.242  10.961  13.531 -0.0861 -0.2329 -0.0654
30180W        W46074  14.501   3.891   2.226 -0.1528  0.0735  0.0409
30181W        W46075   3.790   3.393   4.101 -0.2390 -0.1815  0.0011
30182W        W46076  16.259   5.977   4.507 -0.3156  0.4438 -0.0875
30183W        W46077   7.047   4.622  11.165  0.2475  0.2173  0.1935
30184W        W46078   7.992  15.546  13.930  0.3552  0.0351 -0.3028
30185W        W46079   6.093  14.505   1.573 -0.0570 -0.0720  0.1470
30186W        W46080  15.975   3.675  10.962  0.0119  0.3581  0.2310
30187W        W46081  10.280  12.006   1.532  0.0460  0.0041  0.0426
30188W        W46082   3.651  17.236  15.040  0.0784  0.1985  0.1402
30189W        W46083  18.879  15.905   1.091 -0.0020 -0.1139 -0.0201
30190W        W46084   6.366   0.616  11.376  0.0677 -0.0421 -0.0102
30191W        W46085  17.889  17.116  13.493 -0.2926  0.5927 -0.1424
30192W        W46086   0.724  13.750   0.131  0.2012  0.1021  0.1187
30193W        W46087  13.397  17.413   4.913 -0.1532 -0.1625 -0.2066
30194W        W46088  13.500   9.233  13.495  0.2818  0.1029 -0.2476
30195W        W46089   7.264   5.107   4.601 -0.1266  0.0428 -0.0696
30196W        W46090   3.427  16.968  14.205 -0.0956 -0.0358  0.1866
30197W        W46091   3.563   4.293   5.584  0.3463  0.0015 -0.2971
30198W        W46092   0.258   5.188   4.373  0.1334  0.0424 -0.0524
30199W        W46093   9.387  11.832  14.026 -0.0304 -0.1419 -0.0299
30200W        W46094  17.245   2.923  13.872  0.1726  0.2907 -0.1422
30201W        W46095  12.618  15.436  13.655 -0.0847 -0.3085 -0.1086
30202W        W46096   1.456  16.383  11.000 -0.1399  0.1504 -0.2150
30203W        W46097  11.558   3.958   4.467 -0.0115  0.0525  0.2676
30204W        W46098  18.637   7.501  10.798 -0.0116 -0.0106  0.3409
30205W        W46099   7.699  14.244   1.014  0.0789 -0.2112  0.0041
30206W        W46100   2.694   9.465   3.451  0.2711  0.1709  0.2004
30207W        W46101  17.482  14.064   4.418 -0.0584  0.0883 -0.0402
30208W        W46102   9.720   1.863   9.262  0.2915 -0.1436 -0.0375
30209W        W46103   9.129   9.121  10.383 -0.1228 -0.1371  0.1495
30210W        W46104   0.631   5.398  11.483 -0.0642  0.3941  0.0697
30211W        W46105  10.941  15.784   9.339  0.0205  0.1662  0.0707
30212W        W46106   4.751   5.952  10.963 -0.0404 -0.0983 -0.1950
30213W        W46107   9.416  18.780  11.868  0.0854 -0.2781  0.0264
30214W        W46108   0.358  19.069   3.082  0.0231 -0.1219  0.0173
30215W        W46109   6.063   1.251  12.126  0.1730 -0.1479  0.0940
30216W        W46110   8.620   0.870  10.094 -0.4761  0.3973  0.1834
30217W        W46111  13.301   7.422   5.269 -0.1594  0.0052  0.0222
30218W        W46112   4.324  18.140  14.102  0.1626  0.3574 -0.1685
30219W        W46113   9.116   6.740  13.744 -0.0893  0.0111 -0.1163
30220W        W46114   7.523   0.187   9.910  0.0135 -0.2745 -0.1747
30221W        W46115  17.985  15.904  13.434 -0.0008 -0.2681 -0.4545
30222W        W46116   3.157  15.364   0.052 -0.1893  0.0016 -0.2531
30223W        W46117   5.412   8.790  10.249  0.0678  0.1727 -0.1097
30224W        W46118   7.236   8.500   0.613  0.0739 -0.4075  0.1311
30225W        W46119  11.962  16.559   4.636  0.0999  0.0236 -0.0017
30226W        W46120   6.466  14.290  14.123  0.0257  0.0878 -0.3091
30227W        W46121   2.231   6.351   1.372  0.2074 -0.3677  0.1116
30228W        W46122  18.624  17.757   2.496  0.0885 -0.0195 -0.2380
30229W        W46123  15.424   8.632  11.614 -0.2570  0.2689 -0.1342
30230W        W46124  16.286   2.568  14.648  0.0394 -0.1574 -0.0753
30231W        W46125   3.937   9.890  13.584  0.1415  0.1051  0.0015
30232W        W46126  11.103  18.822  13.606  0.1720 -0.0097  0.2442
30233W        W46127   6.476   7.156   0.158 -0.3939  0.1659  0.1662
30234W        W46128   9.790  17.265  11.318  0.1047  0.0456  0.2019
30235W        W46129   6.134  18.207  12.622  0.3825  0.0551  0.1244
30236W        W46130  18.248   2.207   1.803 -0.2031 -0.2952 -0.2893
30237W        W46131   0.610   7.561  10.232  0.0482  0.0505  0.1283
30238W        W46132   7.797  14.953   3.922  0.0533  0.1428  0.0162
30239W        W46133   8.147   6.784   0.440  0.1671  0.0025  0.1871
30240W        W46134   0.837   3.827   3.402 -0.1610  0.1589  0.2128
30241W        W46135   3.645   0.257   2.391  0.0373  0.2252  0.1542
30242W        W46136  16.325   4.472  13.707  0.1577 -0.0417 -0.1465
30243W        W46137  14.396  12.332   3.561 -0.1416  0.3090  0.1566
30244W        W46138  15.144   3.507  13.807 -0.0196  0.1023  0.1306
30245W        W46139  15.887   4.562  13.970 -0.2457  0.0695  0.3405
30246W        W46140   7.658  19.171  14.699 -0.0147  0.1705 -0.0167
30247W        W46141  12.169  16.370  10.963 -0.1828 -0.0213 -0.0186
30248W        W46142   5.993   4.934   3.289  0.0456 -0.0131  0.0719
30249W        W46143  13.789   1.192   4.021 -0.5183 -0.0104  0.0423
30250W        W46144   7.248  14.798   0.647 -0.0986 -0.4219 -0.0462
30251W        W46145   0.567  11.909  12.876  0.0333 -0.0198 -0.3067
30252W        W46146   0.568   7.684  14.328 -0.1317 -0.0051  0.1187
30253W        W46147  10.386   2.205   5.240  0.2463 -0.1660 -0.0447
30254W        W46148   2.084   4.303  10.950 -0.0409 -0.1911  0.1581
30255W        W46149  13.019   8.602   4.783 -0.0857 -0.2398 -0.1953
30256W        W46150  18.433  18.951  12.184 -0.0679  0.0757 -0.0031
30257W        W46151  11.040  10.752  13.577 -0.3382  0.1368  0.0941
30258W        W46152  10.964   0.960   3.414  0.0285  0.0913 -0.1497
30259W        W46153  12.567   9.786  13.781 -0.3658  0.2114  0.1146
30260W        W46154  17.567   3.798  12.431  0.0057  0.1129  0.2461
30261W        W46155  14.475   1.885  12.294 -0.0511  0.4079 -0.3278
30262W        W46156  16.593  17.861   5.987  0.1162  0.4945  0.0017
30263W        W46157   7.250  11.644   4.697  0.4434 -0.0729 -0.3240
30264W        W46158  10.862   4.623  11.824  0.1832 -0.1228  0.1609
30265W        W46159   2.757   1.632   5.200 -0.0598 -0.3428  0.1573
30266W        W46160  18.722   0.534   2.255 -0.0556  0.2164  0.0059
30267W        W46161   9.801   5.202   5.819  0.0791 -0.1202 -0.2912
30268W        W46162   7.511  17.979  12.411  0.1829  0.1410  0.1635
30269W        W46163   0.514   4.507   1.320  0.1966  0.1859 -0.2584
30270W        W46164   1.567  18.170  12.694 -0.0506  0.0949  0.2207
30271W        W46165  18.922   7.502   1.441  0.2303  0.3849  0.1495
30272W        W46166   8.292  15.432  14.324 -0.2746  0.0095  0.2494
30273W        W46167   6.424   0.796  14.181  0.1355  0.0006  0.1883
30274W        W46168   1.818   0.133  14.677  0.1717 -0.1295 -0.0271
30275W        W46169   8.010   5.382   5.089  0.0011  0.2398 -0.0226
30276W        W46170  15.396   1.624   4.421 -0.1838  0.0091  0.3756
30277W        W46171  12.125  15.561   0.089 -0.0749 -0.0912 -0.0106
30278W        W46172  17.469  10.842   1.087  0.1753 -0.1816 -0.1118
30279W        W46173  16.394  15.455  11.662 -0.1404 -0.0421 -0.0690
30280W        W46174   0.721   8.395   1.805 -0.1317  0.1498 -0.1051
30281W        W46175   2.530   5.930  11.760  0.2139 -0.0227 -0.1518
30282W        W46176  18.331  16.206   4.230 -0.2709 -0.0880  0.1048
30283W        W46177  11.390  10.060   1.823 -0.3644 -0.1190  0.1755
30284W        W46178  14.215  11.526   3.043 -0.3087 -0.0605 -0.1686
30285W        W46179   1.086  12.476  13.655  0.0550  0.1177  0.0596
30286W        W46180   7.044   6.788   3.531  0.0979  0.1430 -0.0449
30287W        W46181  17.335   7.845  12.247  0.1340 -0.0975 -0.2098
30288W        W46182  18.817   5.146   3.225  0.0647 -0.3413 -0.1261
30289W        W46183  17.351   4.911   5.225 -0.0953 -0.3467 -0.0888
30290W        W46184   2.505  17.623   1.900  0.2000  0.0229 -0.0053
30291W        W46185  12.006  18.738  12.659  0.2394 -0.1032 -0.1162
30292W        W46186  14.293  13.266   3.156  0.1495  0.1042  0.0313
30293W        W46187  17.610  13.454  14.992 -0.3602  0.2400 -0.1368
30294W        W46188   6.104   0.411  14.149  0.1326 -0.0408 -0.0164
30295W        W46189   4.983   3.951   0.434  0.0751 -0.0560  0.2066
30296W        W46190   1.045  16.417   4.668  0.0493  0.1534  0.1998
30297W        W46191   4.437   9.609   2.150  0.0453  0.1279  0.0761
30298W        W46192   1.136  16.352   0.654 -0.0160  0.1543 -0.0510
30299W        W46193   6.854   0.072  14.430  0.1105  0.0641 -0.2767
30300W        W46194  14.134  12.244  13.126 -0.0197  0.3186 -0.1836
30301W        W46195   5.465   2.103   1.213  0.0644 -0.0371  0.2054
30302W        W46196   5.404   3.415  14.036 -0.0233  0.1432 -0.3555
30303W        W46197  16.910   0.211   3.989 -0.0293  0.1999  0.3400
30304W        W46198  14.123  13.655   9.463  0.1333 -0.1169  0.1731
30305W        W46199  15.707   2.142   2.532 -0.0233  0.0182  0.0177
30306W        W46200  17.244   6.222  11.314  0.1751  0.2690  0.0949
30307W        W46201   0.258   9.237  12.162 -0.3643 -0.0299 -0.0455
30308W        W46202   1.989   1.048   4.698 -0.1052 -0.0445 -0.0097
30309W        W46203   4.469  10.548  13.904  0.1830 -0.1007  0.1755
30310W        W46204   8.974  16.912  12.497  0.0127 -0.3109 -0.0434
30311W        W46205  17.381   3.070   2.664 -0.2675 -0.1456  0.2205
30312W        W46206   8.238   0.734  14.515 -0.2551  0.2274 -0.3290
30313W        W46207  14.452   2.111   3.460 -0.1854  0.0453  0.0120
30314W        W46208  15.566  13.192   0.125  0.0704  0.0250  0.2422
30315W        W46209   4.478  18.310  13.572 -0.1916 -0.0462  0.3530
30316W        W46210   6.913  14.554   0.328  0.1852  0.0113 -0.0577
30317W        W46211  15.167   5.318   5.104 -0.0783 -0.0217  0.0142
30318W        W46212   5.990   6.187   4.101  0.1655 -0.0138 -0.0814
30319W        W46213  15.092  15.233   2.704  0.0325 -0.0196  0.0071
30320W        W46214  13.416   5.041  11.781 -0.0165  0.2743 -0.1447
30321W        W46215   1.169  12.859   0.738  0.1299 -0.0114 -0.3052
30322W        W46216  18.077  11.155  14.995  0.0773 -0.1571  0.1523
30323W        W46217   1.374  18.965  12.810 -0.0202 -0.0748 -0.2439
30324W        W46218  10.150   6.549  11.185 -0.1235 -0.1544 -0.1069
30325W        W46219   3.424   9.684   1.900  0.2405 -0.0988  0.2076
30326W        W46220  17.642   4.463  13.482  0.1555  0.1024 -0.1374
30327W        W46221   3.813  11.091   5.259  0.0535  0.2361 -0.1890
30328W        W46222  14.269  17.759   0.111  0.0790 -0.0883  0.0824
30329W        W46223  16.403   4.249   1.369  0.0246  0.2636 -0.1390
30330W        W46224   4.356  13.763   5.109 -0.1646 -0.2826 -0.3201
30331W        W46225   6.873  12.602   3.335 -0.0099  0.0370  0.0375
30332W        W46226  15.935  13.831   1.857  0.2130  0.2398  0.0815
30333W        W46227  15.183  11.699  14.620 -0.2375 -0.0946 -0.0830
30334W        W46228   4.479   8.327  14.732  0.0463 -0.3435 -0.0206
30335W        W46229   8.866   7.039  11.593  0.1646  0.0564 -0.2028
30336W        W46230   4.205  16.660   1.621  0.0087  0.0770  0.0093
30337W        W46231  18.473   6.443   3.828  0.1221  0.4089  0.0011
30338W        W46232   7.787  11.224   3.473 -0.1401  0.0148  0.4402
30339W        W46233  14.132  15.295  11.997 -0.3663  0.2729  0.1039
30340W        W46234  18.351  17.086  13.762 -0.1238  0.3826  0.0019
30341W        W46235   7.836   4.394   0.901 -0.0660 -0.0703 -0.0306
30342W        W46236   2.531  14.607   0.593  0.0359  0.0675  0.1204
30343W        W46237  18.263  17.386   0.994 -0.0285  0.0924  0.0279
30344W        W46238   4.874  13.361  11.940 -0.0123  0.0597 -0.0663
30345W        W46239  19.170  13.561   5.010 -0.3712  0.2390  0.0029
30346W        W46240  17.752  17.200  13.055 -0.0966  0.3457  0.0695
30347W        W46241   4.331  12.622  14.769 -0.1120  0.1836 -0.0667
30348W        W46242   4.719   8.696  12.307 -0.1506  0.2852  0.2010
30349W        W46243   1.410   9.128   1.214 -0.1529  0.3605  0.0487
30350W        W46244  18.569   1.018  13.615  0.3170  0.0615 -0.2206
30351W        W46245   5.831  11.127   2.369  0.1690  0.2635  0.3060
30352W        W46246  12.076  12.147  12.598  0.1143  0.0327  0.1920
30353W        W46247   4.634   6.925  12.414  0.1169 -0.0138  0.2929
30354W        W46248   7.565  15.235   4.478 -0.2108  0.0797  0.0765
30355W        W46249   0.450   0.216  12.265 -0.0924 -0.2416  0.0116
30356W        W46250  13.635   8.564   0.237  0.2021  0.1743 -0.1433
30357W        W46251   2.685  19.019   5.565  0.1906 -0.1120  0.3337
30358W        W46252   5.498   4.461   2.700  0.1857 -0.2438  0.0721
30359W        W46253   3.440  14.932   1.884  0.3524 -0.2074 -0.0568
30360W        W46254  19.054   4.241   4.763 -0.0546  0.1650  0.4120
30361W        W46255   9.865   3.305  13.866 -0.0373  0.2214 -0.0030
30362W        W46256   0.667  14.411   0.547  0.1032 -0.1818  0.0287
30363W        W46257   2.359  10.637   4.511  0.2978 -0.2423 -0.3382
30364W        W46258   7.509  18.875   9.992  0.1182  0.0720  0.0171
30365W        W46259  16.901   2.511   3.616  0.1082  0.0242 -0.1026
30366W        W46260   5.002   9.224   3.401 -0.2562  0.1566 -0.1586
30367W        W46261  11.998   8.154  12.557  0.0168  0.3880 -0.2410
30368W        W46262   4.680  10.130   2.215 -0.2561  0.1748 -0.1653
30369W        W46263   8.315   6.514  13.708 -0.0247  0.2084  0.0291
30370W        W46264  13.694  15.988   0.940  0.3468  0.0598  0.3214
30371W        W46265  17.193   1.997  13.797 -0.1021 -0.0133  0.1271
30372W        W46266  16.091   6.407   1.270  0.0877 -0.0558  0.0510
30373W        W46267   3.290  13.513   5.669 -0.0216  0.0880 -0.0624
30374W        W46268  16.603   9.952   9.608 -0.1521 -0.2436  0.1633
30375W        W46269  10.242   6.791  12.473  0.0005  0.1296 -0.0582
30376W        W46270  12.396   6.637  13.686  0.0753  0.3843  0.1439
30377W        W46271  10.346   4.540   2.414 -0.2389  0.2145 -0.0213
30378W        W46272  16.860  11.307  13.521  0.0429  0.0233 -0.0176
30379W        W46273  15.774  13.194  12.724 -0.0803  0.1988  0.0083
30380W        W46274   5.225  11.743  11.355  0.0264  0.1582  0.1664
30381W        W46275  13.010   9.839   6.038 -0.2591 -0.0066  0.3869
30382W        W46276   2.177  19.049  11.423  0.2064  0.1421  0.0730
30383W        W46277   9.321   8.837   3.546 -0.0028 -0.1071  0.0233
30384W        W46278   6.023  14.714  11.558 -0.4322 -0.0881  0.2225
30385W        W46279   5.537   8.914   1.575 -0.0143  0.2942 -0.1800
30386W        W46280  19.064  18.826  13.797  0.0051 -0.1728 -0.0380
30387W        W46281   0.892   8.979   3.088 -0.0188  0.0703  0.2464
30388W        W46282  17.490   8.363  13.301 -0.3585  0.0184  0.0938
30389W        W46283  18.098  13.655   9.966 -0.1911 -0.1113 -0.0615
30390W        W46284   5.821   2.301   0.419  0.2691 -0.2229  0.1676
30391W        W46285   6.699   7.784  14.119 -0.0943 -0.1322 -0.1211
30392W        W46286   1.399   9.141  14.289 -0.0428 -0.1793 -0.2020
30393W        W46287   3.620   0.981   0.482 -0.1960  0.2357 -0.1083
30394W        W46288  15.100  17.688   1.248 -0.1812  0.0984 -0.1234
30395W        W46289   9.351  17.921   3.959 -0.2720  0.2428 -0.0205
30396W        W46290  12.638   7.666  11.898  0.0158 -0.0353  0.0155
30397W        W46291  13.583   7.049   0.030 -0.1106  0.0641 -0.1062
30398W        W46292   5.246  10.337   0.290 -0.0468  0.2152  0.1649
30399W        W46293   0.193   6.821   0.780  0.2071 -0.2093  0.1908
30400W        W46294   9.230   0.953   1.307 -0.2723 -0.4473 -0.0683
30401W        W46295   9.139  14.116  15.055 -0.0757  0.3782 -0.0451
30402W        W46296   2.923  10.817   5.164  0.0612 -0.1636  0.0618
30403W        W46297   8.662  18.420   3.536  0.5336 -0.0159  0.2600
30404W        W46298  16.815  14.694  12.632 -0.1695 -0.2820  0.3105
30405W        W46299  10.564  15.092  11.818 -0.0483  0.1617 -0.1367
30406W        W46300   3.932  17.653   0.964 -0.3107  0.3117  0.0605
30407W        W46301   3.584   8.159   4.067  0.1496 -0.0161  0.0441
30408W        W46302  12.275   3.989  12.540  0.5274 -0.0090  0.2017
30409W        W46303   3.394  12.342   2.383 -0.2226  0.1566 -0.2761
30410W        W46304  11.880   5.670   3.528  0.1396  0.1289 -0.0395
30411W        W46305  12.971  12.231   1.583  0.2586 -0.0633 -0.0827
30412W        W46306   1.527   4.335   2.842  0.2595 -0.1131  0.1246
30413W        W46307   3.964   2.375  12.889  0.1218  0.1756  0.0953
30414W        W46308  19.008  12.994  13.303  0.0907  0.0782  0.0390
30415W        W46309   0.518  14.250   5.140 -0.0074  0.0991 -0.0289
30416W        W46310  17.633   9.667   3.629  0.1133 -0.2363 -0.1345
30417W        W46311   5.428  11.184  13.268 -0.3165 -0.0189 -0.2690
30418W        W46312   0.583   0.687   1.139  0.3739  0.3485  0.2150
30419W        W46313   5.801   8.609  13.211  0.1346  0.3232 -0.0654
30420W        W46314  16.088  13.426   0.025 -0.2229  0.1945 -0.4401
30421W        W46315   4.595  17.888  14.430  0.2097  0.1325  0.2899
30422W        W46316   1.148  12.898  11.898 -0.2794  0.0063 -0.2062
30423W        W46317  11.712  11.665  11.106  0.3042 -0.2490  0.2074
30424W        W46318  14.075   0.718  11.993  0.2433 -0.2835 -0.2103
30425W        W46319   9.418  11.104  11.412 -0.5452 -0.2746 -0.2801
30426W        W46320  17.339  14.994   1.633 -0.0141 -0.2082  0.2414
30427W        W46321  11.389  16.706   4.631 -0.0497  0.1268  0.0403
30428W        W46322   7.372  17.197   1.990  0.6696  0.1769  0.0661
30429W        W46323  15.101  14.807   3.674 -0.1341  0.1296  0.0669
30430W        W46324   9.506   6.127   2.681 -0.2096 -0.1589 -0.4012
30431W        W46325   6.863  17.700   5.424  0.1857 -0.3746  0.0267
30432W        W46326  10.389   1.260   2.451  0.2629  0.2993 -0.2356
30433W        W46327   9.175   0.535   3.059 -0.1855  0.1756 -0.1439
30434W        W46328   7.644   5.079  12.346 -0.1668 -0.0785 -0.1114
30435W        W46329   3.505   2.848  12.227  0.1089  0.1308 -0.1651
30436W        W46330  11.721   2.653   2.738 -0.4409 -0.1697 -0.1135
30437W        W46331   3.194   9.666  12.011  0.1833  0.0676  0.4511
30438W        W46332   3.188  18.760  12.028  0.2845 -0.1987  0.1884
30439W        W46333   8.306   4.275  12.654  0.0104 -0.0791  0.0935
30440W        W46334  10.489  12.807   0.902  0.0422  0.4283 -0.0219
30441W        W46335  11.669  11.438   2.092 -0.2915 -0.3850  0.3938
30442W        W46336  14.089  10.793  13.205  0.1792 -0.2805  0.3037
30443W        W46337  16.280   5.585   0.219  0.2080 -0.1754 -0.1408
30444W        W46338   2.168  11.638  11.362  0.3230 -0.0390 -0.2624
30445W        W46339  14.949  10.296   3.196 -0.1878 -0.1908  0.1413
30446W        W46340   4.970   9.249   4.409 -0.0020 -0.0159 -0.0608
30447W        W46341  16.226   4.942   3.693 -0.1650 -0.1318 -0.1112
30448W        W46342  17.981   6.931  10.279 -0.2775  0.3774  0.3209
30449W        W46343   0.685  10.837   2.349 -0.0756 -0.2279 -0.3936
30450W        W46344   9.073   5.898  14.821  0.1284  0.0205 -0.0396
30451W        W46345   2.788   7.678  12.883  0.0740  0.0057 -0.2048
30452W        W46346  18.513  16.358   1.770 -0.0855 -0.2205 -0.2225
30453W        W46347  15.473   9.631   1.782 -0.1630 -0.0156 -0.2412
30454W        W46348   3.290  14.787   0.954 -0.3617 -0.1445  0.2009
30455W        W46349   8.202   7.968   0.021 -0.4299  0.2673 -0.1024
30456W        W46350   4.837   6.099  14.358  0.1300 -0.0961 -0.1400
30457W        W46351   7.389   1.245   3.752 -0.0397  0.0730 -0.0189
30458W        W46352  11.369  18.909  10.407  0.0335 -0.0399 -0.1469
30459W        W46353   8.210   1.875  14.783  0.1385 -0.0944 -0.3254
30460W        W46354  10.523   5.971   3.496  0.2510  0.0361  0.3171
30461W        W46355  12.621   5.793  13.480  0.1247 -0.2774  0.0663
30462W        W46356   1.346  11.125  13.095 -0.0567  0.0182  0.2166
30463W        W46357  18.004   7.846   5.787 -0.0625  0.0417 -0.1334
30464W        W46358   8.574  15.761  10.605  0.0487  0.1047  0.1764
30465W        W46359   6.583   7.083   4.753  0.0365  0.1612 -0.1443
30466W        W46360   1.820  14.113  12.116 -0.0291  0.1036  0.1301
30467W        W46361   6.038   6.614  11.210  0.0924 -0.1655 -0.0858
30468W        W46362   4.686   4.881   3.566 -0.0742  0.1076  0.0712
30469W        W46363   0.479   6.561   1.241  0.0467 -0.2272  0.1844
30470W        W46364  18.263   7.557  14.394 -0.0207 -0.0868  0.0496
30471W        W46365  16.026  18.141   0.326 -0.2269 -0.0131  0.1611
30472W        W46366  13.951   2.621   0.243  0.3750  0.0476  0.0777
30473W        W46367  12.638  11.267   5.176 -0.0482  0.1537 -0.0110
30474W        W46368   2.858  19.181   2.619 -0.0578 -0.1255  0.0053
30475W        W46369  17.332   7.499   5.318 -0.0380 -0.4565  0.1008
30476W        W46370   8.568   4.311   3.943  0.1335 -0.1956 -0.0692
30477W        W46371   2.791  15.681  11.921 -0.2479  0.1265 -0.4504
30478W        W46372  18.510  10.059   3.735 -0.1372 -0.1355 -0.1535
30479W        W46373   3.253  16.867   3.269  0.0465 -0.0283  0.0385
30480W        W46374  12.707   2.794   4.747 -0.2691 -0.0051 -0.1627
30481W        W46375   5.170   5.182  13.082 -0.1568  0.0760  0.2580
30482W        W46376   8.585   1.140   2.412 -0.1520  0.3604  0.0612
30483W        W46377  12.832   9.195   4.359  0.0823 -0.3483 -0.1987
30484W        W46378   5.269   9.741  14.176  0.1245 -0.1306  0.1602
30485W        W46379  16.077  19.068  13.002 -0.0962 -0.0310 -0.0742
30486W        W46380   2.998   0.478  13.685  0.0248  0.0186 -0.1328
30487W        W46381  14.509  15.505   4.988  0.1881 -0.1966 -0.0363
30488W        W46382  12.006  17.645   2.725  0.1048 -0.1038  0.1443
30489W        W46383   9.124  15.491   0.567 -0.0129 -0.3295 -0.0420
30490W        W46384  19.029   3.745   1.917  0.0723 -0.2243 -0.2646
30491W        W46385   8.154  17.211   2.406  0.3544  0.1222  0.1515
30492W        W46386  10.849   1.283   3.757 -0.1086  0.1393  0.1446
30493W        W46387   1.641   4.522   9.563  0.1112  0.2907 -0.0402
30494W        W46388   1.753   2.168   1.757  0.1672 -0.2394 -0.1664
30495W        W46389  12.988   2.001   1.526 -0.2452  0.1603  0.0068
30496W        W46390   4.528  13.060   5.879  0.1663 -0.0618  0.0110
30497W        W46391  16.550  13.633  15.145 -0.0437 -0.0206  0.0986
30498W        W46392   3.782  11.243   6.040 -0.1359  0.2998  0.2908
30499W        W46393  16.979  16.793  13.042 -0.1493 -0.2830 -0.1216
30500W        W46394  12.844   3.924   2.448 -0.0176 -0.3120  0.1504
30501W        W46395   1.660   1.183   3.588  0.3759 -0.0231  0.0428
30502W        W46396  19.145   6.553  11.093  0.0432 -0.1482 -0.0774
30503W        W46397   6.448  13.557   3.996  0.1450  0.3915  0.0980
30504W        W46398   1.343  13.794  14.193 -0.1100  0.0276 -0.0659
30505W        W46399   2.893   9.389  15.094  0.1317  0.1222 -0.1692
30506W        W46400  11.033   2.162  12.530 -0.2352 -0.2421  0.1419
30507W        W46401   9.367   2.602   3.397 -0.0402 -0.2785 -0.0591
30508W        W46402  18.131   7.160   5.296 -0.0807 -0.0338  0.0677
30509W        W46403  14.522   7.554  13.526  0.1372 -0.2405 -0.3022
30510W        W46404   3.703  17.501   1.498 -0.0731  0.0123 -0.0761
30511W        W46405   4.031  18.964   2.202 -0.2402 -0.1391 -0.2431
30512W        W46406   4.361  18.348   3.734 -0.2175  0.0160 -0.3053
30513W        W46407  10.100  15.567  14.554 -0.1150 -0.1311 -0.3011
30514W        W46408  18.168  12.246  14.592 -0.1626  0.1111  0.0785
30515W        W46409  16.553  13.698   1.841  0.0676 -0.0936 -0.2240
30516W        W46410  18.154  10.272  10.939  0.0319 -0.2415  0.0479
30517W        W46411  10.593   8.846  12.052  0.5028 -0.1218  0.0223
30518W        W46412   8.740   4.373  13.287  0.0099 -0.0284 -0.2126
30519W        W46413   4.113  12.539   4.983  0.2642  0.1743 -0.2531
30520W        W46414  19.138   5.140  11.633 -0.3056 -0.3665  0.3120
30521W        W46415  18.732   9.052   1.200 -0.0895  0.2754 -0.0232
30522W        W46416   8.545  17.980  13.652 -0.0299  0.1572  0.1955
30523W        W46417   7.286   6.755   1.859 -0.2102  0.2358 -0.0906
30524W        W46418  10.597   8.983   2.910 -0.1232 -0.0058  0.0860
30525W        W46419  10.184  13.460  14.183 -0.0202  0.0477  0.1557
30526W        W46420   8.625  16.089  15.112 -0.0402  0.0053 -0.0103
30527W        W46421   5.102   1.952   1.609 -0.2261 -0.1020 -0.2637
30528W        W46422  10.836   3.510   2.009 -0.2307  0.0278 -0.0851
30529W        W46423  11.635  17.837   0.489 -0.0391  0.0094  0.0651
30530W        W46424  15.368  12.229  14.379  0.2449 -0.1220  0.1996
30531W        W46425  15.367  15.817   1.094  0.0029  0.0463 -0.1894
30532W        W46426  15.671  18.245   1.398 -0.1364 -0.0894  0.0827
30533W        W46427  14.935  16.563   0.263 -0.2575 -0.0726 -0.0188
30534W        W46428  14.974   1.037   0.496  0.3495 -0.1281 -0.1422
30535W        W46429  13.158  18.370  14.863 -0.5383  0.2015 -0.0762
30536W        W46430  14.287  13.863   3.172  0.4299  0.1189  0.1301
30537W        W46431   5.252  13.955  10.898 -0.2594 -0.2327  0.1504
30538W        W46432  12.375  10.378   1.540  0.0477  0.0622  0.0334
30539W        W46433   3.145  12.215   1.947  0.0455 -0.1710  0.1757
30540W        W46434   4.636   7.684   3.178 -0.3102 -0.0968 -0.1741
30541W        W46435   3.255  12.777  13.586  0.1371 -0.2144  0.1096
30542W        W46436   0.235   6.035  12.342  0.0379 -0.2565 -0.0953
30543W        W46437   1.105   5.846   1.289 -0.1727 -0.0677  0.0638
30544W        W46438   1.829  18.112   9.966 -0.1209  0.1358 -0.2419
30545W        W46439   8.960   8.216  14.798 -0.0152 -0.1541 -0.0342
30546W        W46440  16.746   2.067  14.155 -0.2337 -0.2557 -0.3995
30547W        W46441  16.141  14.401  13.940  0.0208  0.1672  0.0540
30548W        W46442   6.625   3.406   4.819 -0.0840  0.2564  0.1358
30549W        W46443  15.719   0.379  14.923 -0.1119  0.0524 -0.1105
30550W        W46444  17.972  11.186  12.060  0.1535  0.1148 -0.1108
30551W        W46445  10.552   1.948   2.149  0.0406  0.1364  0.0487
30552W        W46446  10.496   6.125   1.033 -0.1933 -0.0105  0.0345
30553W        W46447  16.696  14.091   3.533 -0.1243  0.0290 -0.1683
30554W        W46448   3.869   3.536  14.507  0.2531 -0.0248  0.3747
30555W        W46449  13.298   1.636   1.722  0.1717  0.0422  0.0154
30556W        W46450   3.817   9.485   5.519 -0.1510 -0.1960  0.0292
30557W        W46451   4.346   1.596   4.051 -0.0999 -0.1710 -0.2438
30558W        W46452  12.175   3.351   1.655 -0.0739  0.1789  0.2244
30559W        W46453   9.977   3.400  12.917  0.0077  0.3007 -0.1320
30560W        W46454  16.483  18.278   4.023  0.0177 -0.3436  0.2470
30561W        W46455   1.062  14.451  13.299  0.0411 -0.4346  0.1337
30562W        W46456  19.182  18.070   1.538  0.3258 -0.1060 -0.2628
30563W        W46457   4.631   0.916   0.371  0.0452 -0.0036 -0.0205
30564W        W46458   6.428   3.524   1.852 -0.1839 -0.0192  0.1473
30565W        W46459   8.490  18.474  13.821  0.1568  0.0223  0.5112
30566W        W46460   2.026   4.150   4.738 -0.1385 -0.4090  0.0327
30567W        W46461   2.655   0.376  15.007  0.2699 -0.1243 -0.0699
30568W        W46462   7.928   9.555   2.505 -0.1420 -0.0927 -0.1996
30569W        W46463  10.057  10.153  12.128  0.0997  0.3923 -0.2930
30570W        W46464   3.500  17.001  10.828  0.0480 -0.0282 -0.2091
30571W        W46465  19.137   8.524   3.593  0.0256 -0.1265 -0.0058
30572W        W46466   6.393   3.086   2.586 -0.1836  0.0549  0.1626
30573W        W46467   3.525  13.764   1.148  0.1936 -0.2665 -0.2455
30574W        W46468   6.025   9.852   0.239 -0.2421 -0.3364 -0.0123
30575W        W46469  10.569   6.946   4.562  0.3127  0.3469 -0.2842
30576W        W46470  13.722   0.526   0.402  0.0408  0.1367 -0.1680
30577W        W46471   5.668   9.121  11.891  0.0360 -0.0747 -0.4041
30578W        W46472   8.745  16.069   3.515  0.3414 -0.0100  0.0221
30579W        W46473  10.539   8.772  10.414  0.0551 -0.0146  0.1187
30580W        W46474  10.554  12.862   3.273  0.0541  0.2623 -0.0944
30581W        W46475  16.025  17.799  13.897  0.2326 -0.0738 -0.1888
30582W        W46476  16.818  10.338  12.679 -0.1754 -0.3320  0.0175
30583W        W46477   6.252   0.798  13.727 -0.0868  0.1825  0.4165
30584W        W46478   5.247   2.390   2.965 -0.2092 -0.1693  0.2733
30585W        W46479  15.071  17.171   4.228  0.0647  0.0476  0.3246
30586W        W46480   7.885  11.178  14.611 -0.3099 -0.0288 -0.0093
30587W        W46481   9.243  12.786   2.980  0.0299 -0.1510  0.1150
30588W        W46482  17.266   7.669  10.026 -0.1639  0.2805  0.2288
30589W        W46483   2.541  11.425  13.884 -0.1707  0.0080  0.0974
30590W        W46484   3.505   5.257  14.545 -0.2588  0.2321  0.4104
30591W        W46485  14.096  17.740   3.702 -0.0191  0.0578 -0.0374
30592W        W46486  10.863   3.378  10.519 -0.0370  0.0298 -0.2851
30593W        W46487   1.898  14.043   2.676  0.0766  0.3336  0.0801
30594W        W46488   3.943   2.332  15.111  0.2097  0.0900 -0.0039
30595W        W46489   1.939  17.462   3.741  0.0441 -0.1716 -0.0789
30596W        W46490  11.244  10.068   2.894 -0.0665 -0.1035 -0.1571
30597W        W46491  11.963   4.167  14.272  0.1578  0.2231 -0.0829
30598W        W46492   3.645  16.663   4.706 -0.0447  0.1449 -0.1154
30599W        W46493   7.390   6.293  15.176  0.1830  0.0867  0.3492
30600W        W46494  12.324   5.509   3.493  0.0014  0.0558 -0.0668
30601W        W46495   2.653  10.947   0.437 -0.0201  0.0265  0.2231
30602W        W46496  11.660   7.520   3.902 -0.0942  0.3362  0.0441
30603W        W46497   0.509   5.615  11.037 -0.1564 -0.4201  0.0714
30604W        W46498  15.716   5.690  11.672 -0.0867 -0.0115  0.2304
30605W        W46499  13.516  16.550  12.592 -0.1123 -0.0289  0.2653
30606W        W46500  12.015   6.434  14.116  0.0906  0.2151  0.0796
30607W        W46501  12.908   7.683   4.561  0.6911  0.1105  0.3754
30608W        W46502  11.628   1.239  14.992 -0.2795 -0.1406 -0.4839
30609W        W46503  17.421   7.721  14.297 -0.3496  0.2455 -0.0874
30610W        W46504  11.050   6.046  13.124 -0.0898 -0.0910  0.4126
30611W        W46505   5.697   1.370  11.637 -0.2666  0.0161 -0.0404
30612W        W46506  16.074   8.479  12.525 -0.3255 -0.1507 -0.0282
30613W        W46507  15.407  10.183  13.278 -0.1058 -0.0463  0.0696
30614W        W46508   9.896   6.715   0.744  0.2313 -0.0877  0.0137
30615W        W46509   1.448  12.284  13.015  0.0862  0.2828 -0.3491
30616W        W46510  17.770   4.200  13.003  0.1813 -0.0032  0.1137
30617W        W46511  11.977  11.439   4.135  0.4164  0.2496 -0.0094
30618W        W46512  14.268   1.318   1.353 -0.1433 -0.3865  0.0785
30619W        W46513  13.968   4.807  12.562  0.1090  0.0410  0.2308
30620W        W46514   1.515  18.974   1.191 -0.0517 -0.5285 -0.0812
30621W        W46515   7.203  12.298  14.626  0.1440  0.1438  0.2138
30622W        W46516   3.254   5.123   3.447  0.1032 -0.0491  0.1144
30623W        W46517   5.016   5.685  12.985 -0.1320  0.2574  0.0150
30624W        W46518  14.854   6.610  10.926  0.0094 -0.1745 -0.1890
30625W        W46519  17.246   8.916  12.238 -0.1005 -0.0600  0.1737
30626W        W46520  13.375  16.499   1.885  0.0918  0.0034  0.0970
30627W        W46521   4.414   2.676   0.766 -0.1296 -0.1260 -0.2296
30628W        W46522   6.331   7.976  11.370 -0.1387  0.0304  0.0194
30629W        W46523  17.875   9.275   3.310 -0.0992  0.0702 -0.0670
30630W        W46524   3.563   2.695   3.716  0.0820 -0.3933 -0.0307
30631W        W46525  15.877  13.980  13.455  0.0010  0.1851 -0.2156
30632W        W46526  17.754  10.139   1.415  0.0463  0.0683 -0.0921
30633W        W46527  12.786  15.745  12.410  0.3743  0.1983 -0.1296
30634W        W46528  15.084   1.032   2.453  0.0329 -0.2073 -0.0369
30635W        W46529  16.791  12.555  11.033 -0.1081 -0.2608  0.2578
30636W        W46530   7.352   5.096   3.140 -0.2317 -0.2772  0.1253
30637W        W46531   9.346  10.357   3.456 -0.1749  0.3816 -0.1324
30638W        W46532  16.868   2.385  11.163  0.0789 -0.3546 -0.0292
30639W        W46533   2.886   2.994   2.517 -0.1146  0.2076 -0.3572
30640W        W46534   3.811  14.401  14.149  0.1681  0.0656 -0.2754
30641W        W46535   1.552   2.830  14.345  0.3622  0.2149  0.0690
30642W        W46536   4.141   3.302  13.210 -0.0278  0.0648 -0.1553
30643W        W46537   0.877   6.290   1.141  0.1807 -0.3376 -0.1733
30644W        W46538  13.449  13.700  14.474  0.3021 -0.0917 -0.1606
30645W        W46539  15.725   2.067   1.916  0.2223 -0.2301 -0.1354
30646W        W46540  12.414   5.175  13.734  0.1481 -0.2210  0.3060
30647W        W46541  16.976  18.282   0.726  0.0953  0.1550  0.0214
30648W        W46542  10.223   0.044  13.967  0.2392  0.3089 -0.1224
30649W        W46543   5.945   7.820  11.602  0.2582 -0.2947  0.0763
30650W        W46544  12.521  18.813  10.938 -0.1125 -0.0626  0.0165
30651W        W46545   7.225  13.346  14.557  0.0451  0.0612 -0.1754
30652W        W46546  11.577   2.184   3.085  0.0772  0.3721 -0.2876
30653W        W46547   8.813   2.128   4.517 -0.0797 -0.0257  0.1667
30654W        W46548  12.402   2.646  14.349  0.0753  0.0160  0.2897
30655W        W46549  12.047   1.286   3.446 -0.1212 -0.0921 -0.1865
30656W        W46550  18.320   1.144   2.755 -0.0081  0.4130  0.1685
30657W        W46551   0.623   3.581  11.620 -0.3162 -0.1985 -0.0052
30658W        W46552  11.987   1.296  13.540 -0.1299  0.0638  0.1250
30659W        W46553  12.633   0.190   2.710  0.0229 -0.0111  0.0372
30660W        W46554   4.080  11.741   4.511  0.0231  0.1054  0.4115
30661W        W46555  16.920  10.846  15.053  0.2682  0.0188 -0.0519
30662W        W46556  13.785  12.476   1.285 -0.1572  0.1130  0.0573
30663W        W46557  16.052  11.457  10.517 -0.0916 -0.0106 -0.1029
30664W        W46558  15.804   8.416  10.679  0.0768 -0.2107  0.1384
30665W        W46559   7.719   2.336  14.522  0.2187 -0.0248  0.0507
30666W        W46560   8.105   1.688  14.276 -0.0431  0.1140 -0.2327
30667W        W46561  14.916   7.995   3.096 -0.0819 -0.0235 -0.1187
30668W        W46562   6.335   4.691  10.557  0.2739 -0.1328  0.0170
30669W        W46563   7.126   2.680  12.374  0.1505  0.1504 -0.2782
30670W        W46564  17.198   3.206   5.723  0.0943 -0.0225 -0.0392
30671W        W46565   6.478   8.350   3.228  0.0527 -0.2358 -0.0152
30672W        W46566  11.149   0.633  11.992  0.2431 -0.1624 -0.0720
30673W        W46567  14.653   7.495   2.306  0.1100  0.0090  0.2791
30674W        W46568   7.896   6.122   5.648 -0.0834  0.1356 -0.1722
30675W        W46569  16.222  15.531   4.152 -0.1229  0.1545  0.0947
30676W        W46570  18.194   1.800   3.870 -0.0648  0.1300  0.0535
30677W        W46571   3.493  11.561  14.018  0.0357  0.0131  0.0566
30678W        W46572  17.835   8.898  10.199  0.0544 -0.0187 -0.0332
30679W        W46573   7.419  14.643  14.255  0.3751  0.1339  0.0183
30680W        W46574  10.336  15.874  10.613  0.2275 -0.2560  0.1983
30681W        W46575   8.979  16.094  11.984  0.0014 -0.2106 -0.0959
30682W        W46576  18.931  15.884   0.545  0.0671 -0.0565  0.3805
30683W        W46577  17.398   7.715   4.876 -0.1756  0.0719  0.2334
30684W        W46578   5.110  12.324  12.478 -0.1837 -0.0130  0.0739
30685W        W46579  14.548   3.775  14.713 -0.0516 -0.0614 -0.1254
30686W        W46580   1.003   0.543  14.144 -0.2225 -0.0333 -0.2660
30687W        W46581  15.230   0.612   0.795 -0.1000  0.2303  0.2591
30688W        W46582  13.001  17.199  12.372  0.0656  0.0749 -0.1409
30689W        W46583   0.717   4.848  14.488 -0.2765  0.0904  0.4299
30690W        W46584  17.032  14.414  15.019  0.0360 -0.2476  0.3074
30691W        W46585  16.652  13.802  12.650 -0.2413  0.6072 -0.1937
30692W        W46586  11.383   2.225   0.534 -0.1583  0.0367  0.0763
30693W        W46587   4.262  14.768  12.510 -0.1479  0.0132 -0.1199
30694W        W46588  13.702  12.195  13.978  0.0729  0.1491 -0.1540
30695W        W46589  11.231   1.052   1.046  0.3074 -0.0970  0.0567
30696W        W46590  12.759   8.420   1.464  0.3198  0.0760 -0.0304
30697W        W46591   6.319   9.034   4.263 -0.0441  0.0351 -0.0704
30698W        W46592  10.643   2.360   9.874 -0.2174 -0.4011  0.3604
30699W        W46593   3.092  10.591  13.938 -0.1659  0.0752 -0.2752
30700W        W46594  12.896   1.124  14.191 -0.0652 -0.2776 -0.1809
30701W        W46595  11.590  18.532  10.704  0.2333 -0.0316  0.1443
30702W        W46596  18.270   9.469   1.925 -0.0532  0.1298 -0.0691
30703W        W46597   6.703   4.848   0.850 -0.0697 -0.0091  0.3127
30704W        W46598   6.703   3.174   3.506 -0.1694 -0.0623 -0.2182
30705W        W46599  11.383   4.267   5.298 -0.0941  0.3647  0.0726
30706W        W46600  10.857   7.198   0.601  0.2174  0.0161 -0.1253
30707W        W46601   1.725  10.868   2.767 -0.2433  0.1318 -0.1837
30708W        W46602   0.658   7.048  15.153 -0.4111 -0.0323 -0.4379
30709W        W46603  18.237  10.586   3.503 -0.0940 -0.2698  0.6253
30710W        W46604   2.853   8.192   4.055 -0.1584 -0.3023  0.2699
30711W        W46605  14.476   9.969  13.443 -0.0157  0.1265  0.0019
30712W        W46606   6.710   4.603  11.956 -0.3277  0.3444 -0.4310
30713W        W46607   7.066  13.454  13.748 -0.4762  0.5292 -0.1991
30714W        W46608   6.426  10.707  15.044 -0.1336  0.1978 -0.1106
30715W        W46609  14.423   7.359   3.108  0.1376  0.1159 -0.1256
30716W        W46610  11.657  16.701  10.787  0.0369 -0.1763 -0.0609
30717W        W46611   7.880   7.811  14.738  0.0536  0.0713  0.0051
30718W        W46612  14.145   7.864  11.012  0.0667 -0.1438 -0.0597
30719W        W46613   0.427   8.389   5.272  0.2854 -0.1897  0.2262
30720W        W46614  11.537  14.097  14.228 -0.0057  0.1497  0.2471
30721W        W46615   7.577  11.915  11.829 -0.0817  0.0895  0.0316
30722W        W46616  14.874  11.058  11.956  0.0245  0.0390  0.0262
30723W        W46617  18.572  13.689   3.061 -0.3531  0.0603  0.0207
30724W        W46618   0.281  15.168   0.984 -0.2260  0.1052 -0.0034
30725W        W46619  13.845  16.984   4.921 -0.1924  0.1568  0.0099
30726W        W46620  13.242   3.015   5.277 -0.0377 -0.1222 -0.0437
30727W        W46621  11.314   5.239  13.107 -0.1589 -0.0154 -0.2912
30728W        W46622  12.886   7.212   0.184  0.2407  0.1126  0.3263
30729W        W46623   2.662   6.475   2.101  0.0484  0.1320 -0.0111
30730W        W46624   5.746   5.301   3.689 -0.2345  0.2363 -0.1350
30731W        W46625   5.981  10.056  12.570 -0.2814 -0.0282  0.0395
30732W        W46626   8.220   8.554   3.480  0.5045 -0.0208  0.2081
30733W        W46627  18.525  16.489  14.311 -0.0080  0.0437  0.3425
30734W        W46628   0.605   4.270   3.475  0.0558  0.3388 -0.2547
30735W        W46629  15.127  16.687   2.427 -0.0109 -0.2998 -0.1953
30736W        W46630  18.319  12.082   0.843 -0.2663 -0.1633  0.2698
30737W        W46631   3.697   0.413  14.872 -0.0965 -0.0861 -0.1253
30738W        W46632  12.023   8.748   4.035  0.1213 -0.2756 -0.0769
30739W        W46633   7.479  12.514  15.047  0.3714 -0.0906  0.1101
30740W        W46634  17.712   7.056  12.575 -0.1061  0.2712 -0.1867
30741W        W46635  12.396   9.942   3.494  0.3441 -0.1563  0.0402
30742W        W46636   3.195   7.651   3.943  0.0632  0.0427 -0.2839
30743W        W46637   7.597  14.493   4.678  0.0953  0.5611  0.1087
30744W        W46638  15.426   0.194  11.857 -0.1544  0.0729  0.0280
30745W        W46639   7.395   9.236   1.393 -0.3400  0.2335 -0.1439
30746W        W46640  10.614  13.900  14.432 -0.0561  0.0770 -0.0072
30747W        W46641  17.657  15.600  13.228  0.2906 -0.1447 -0.3025
30748W        W46642   3.094  10.368   5.230  0.1810  0.2137  0.1388
30749W        W46643  16.028   5.444   3.291 -0.2416 -0.2348 -0.0568
30750W        W46644  15.364   9.459  15.137 -0.0523 -0.0127  0.0394
30751W        W46645   3.066  12.291   2.731  0.1310 -0.1472 -0.0447
30752W        W46646   9.046  11.574  13.263 -0.1692  0.1007  0.0750
30753W        W46647   8.172  18.557   0.119  0.0877  0.0365  0.1444
30754W        W46648  19.002   6.869   3.455  0.2983  0.1495  0.0740
30755W        W46649   1.992  15.083  10.322 -0.1207  0.3431  0.2653
30756W        W46650  16.303   5.480   1.260 -0.1570  0.0078  0.0291
30757W        W46651  13.951  13.926  11.932  0.0401 -0.1341 -0.1853
30758W        W46652   2.736  16.506   4.970  0.3848  0.4755  0.0634
30759W        W46653  14.430   7.312   0.126  0.2370  0.1365  0.4299
30760W        W46654  15.546   8.978  11.296  0.2502  0.0338 -0.2513
30761W        W46655  12.127  17.645  13.957 -0.0013 -0.0887  0.2615
30762W        W46656   5.687   8.245  11.760  0.1454 -0.1565  0.0130
30763W        W46657  18.062  12.143  10.658 -0.0141  0.0069 -0.0279
30764W        W46658   0.021  12.987   1.815  0.3245 -0.3692  0.1449
30765W        W46659  17.825  10.974   2.359 -0.0771  0.0988  0.1538
30766W        W46660   7.485   4.014  13.456 -0.1359  0.0637  0.3115
30767W        W46661   5.037  12.529  14.816 -0.1053 -0.1138 -0.3992
30768W        W46662   4.244  10.019   2.423  0.0689 -0.2388 -0.3248
30769W        W46663   1.372   6.057  13.905  0.2288 -0.4154  0.3634
30770W        W46664  18.309   2.547  13.376  0.1121  0.3263 -0.3073
30771W        W46665   0.984   0.157  12.084 -0.1489 -0.0435  0.2451
30772W        W46666  16.016  11.422   3.824 -0.3227 -0.2585  0.0934
30773W        W46667   9.740  15.423   3.895 -0.2581 -0.1030  0.3394
30774W        W46668   9.485   1.541  14.464 -0.0183  0.2173  0.2310
30775W        W46669  17.702  16.239   3.189 -0.0743  0.1140  0.2412
30776W        W46670  19.096   5.089  12.837  0.0426 -0.5270 -0.0788
30777W        W46671   6.599   9.441  13.198 -0.2338 -0.3839  0.0277
30778W        W46672   3.688   7.353  13.585  0.0773 -0.1372  0.1276
30779W        W46673   5.597   2.387   3.817  0.0519  0.0290 -0.2321
30780W        W46674  17.583  18.790  11.997  0.1690  0.1813  0.1035
30781W        W46675   1.657  14.436  12.499 -0.1716 -0.1555  0.2171
30782W        W46676  12.141   7.677  14.447  0.0860 -0.2326 -0.1605
30783W        W46677  10.369  17.918  11.434 -0.0435  0.2872 -0.0613
30784W        W46678  16.561   8.565   1.602  0.2053  0.1201 -0.0942
30785W        W46679   4.472   4.289   1.589 -0.0141  0.0063  0.2103
30786W        W46680  14.389   3.655  14.093  0.0383  0.0103 -0.2681
30787W        W46681   8.324   2.476   3.157 -0.0662 -0.2204 -0.0852
30788W        W46682  15.337   1.123  14.538  0.4558 -0.1044  0.1989
30789W        W46683   1.932  15.461   5.748 -0.0596 -0.3030 -0.2047
30790W        W46684   3.650   2.023   5.692 -0.3447  0.0212  0.2028
30791W        W46685   7.190  17.759   4.159 -0.2871 -0.0126 -0.3596
30792W        W46686  15.860  13.032   3.501 -0.2991 -0.1330  0.1105
30793W        W46687   0.510  19.105  11.500 -0.3909  0.1669  0.0206
30794W        W46688  14.020  15.739  12.755 -0.1800  0.3933  0.2716
30795W        W46689   1.124  10.820  14.559 -0.0677  0.1182  0.1693
30796W        W46690  10.318   5.446   2.680 -0.1898 -0.0767  0.0264
30797W        W46691   4.517  18.872   3.732  0.3240  0.2620  0.0833
30798W        W46692  18.279   9.272  10.813 -0.1330 -0.3332 -0.0969
30799W        W46693  10.441   3.311   4.881 -0.2480 -0.0585 -0.0925
30800W        W46694   7.093   7.118  13.645 -0.0084  0.1835  0.2660
30801W        W46695   2.118   7.943   1.849  0.1064 -0.0914  0.5837
30802W        W46696   9.996   4.873   1.133  0.1124  0.2792  0.0295
30803W        W46697   0.406   1.942  14.024 -0.0278  0.0544 -0.3431
30804W        W46698   8.522  14.847  12.314  0.1174  0.0436  0.2364
30805W        W46699   7.085   5.400   1.397 -0.1626  0.0458 -0.2906
30806W        W46700   0.187   6.931  13.754  0.2315  0.3684 -0.0415
30807W        W46701  12.736  11.410  13.100  0.3714  0.0207 -0.1288
30808W        W46702  16.832  15.745  11.333  0.0303  0.2846 -0.1256
30809W        W46703  11.815   2.521   4.660 -0.2790  0.2834 -0.1430
30810W        W46704  16.138   8.982   0.656 -0.1333  0.1294  0.1398
30811W        W46705  16.769  10.084   4.238  0.0609  0.0785 -0.0504
30812W        W46706   5.980  17.582   3.473  0.0119  0.3891 -0.0857
30813W        W46707  10.023   2.112  10.759 -0.0738 -0.0441  0.0591
30814W        W46708   4.690   3.330   2.152 -0.1410  0.0404  0.1511
30815W        W46709   9.905   5.076   0.157 -0.2792  0.3892 -0.2622
30816W        W46710   4.645   4.258  11.142  0.1058 -0.1579  0.0125
30817W        W46711  15.011   7.185   5.439 -0.0411  0.0331 -0.1530
30818W        W46712  12.784   3.304   1.724  0.2939  0.0983  0.0218
30819W        W46713  13.849   4.817  10.915 -0.2213  0.1681  0.1158
30820W        W46714   2.380   1.841   4.030  0.0201  0.0257  0.0691
30821W        W46715  12.006   7.108  10.774 -0.0282 -0.0181  0.1581
30822W        W46716   5.009  17.953  11.574 -0.1000  0.0531  0.1594
30823W        W46717  17.876   0.385   2.151 -0.1044 -0.1925 -0.0032
30824W        W46718  17.561  18.592  10.998  0.0880  0.1574  0.2459
30825W        W46719   3.492  17.642   3.613 -0.0404  0.2418 -0.1716
30826W        W46720  14.222  18.356   3.664 -0.1504 -0.3950 -0.2676
30827W        W46721   9.596  19.141  10.387  0.1314  0.1853 -0.1425
30828W        W46722   1.402   5.584  12.480 -0.0545  0.4190 -0.0627
30829W        W46723   5.874   1.269  14.385 -0.0133  0.1496 -0.2699
30830W        W46724  16.670   7.185  12.803 -0.3141  0.0201 -0.0616
30831W        W46725  15.926  12.965  14.992 -0.0339  0.2933  0.0218
30832W        W46726  18.168  16.533   2.196 -0.4953  0.1483 -0.0235
30833W        W46727   7.254  18.036  10.797 -0.0000 -0.0231  0.0060
30834W        W46728   6.773   8.790   1.529  0.0588  0.1477 -0.2926
30835W        W46729   4.715   7.857  12.884 -0.1037 -0.3845  0.0312
30836W        W46730  18.387  11.113   4.872  0.1157  0.0827  0.1784
30837W        W46731   9.297   9.800   0.133 -0.0273  0.0131  0.1211
30838W        W46732   7.594  13.921   1.662 -0.2158  0.0365  0.1751
30839W        W46733   3.838   5.398   0.814 -0.3505  0.1674 -0.0912
30840W        W46734  16.302  13.576   0.435  0.2183  0.2270  0.1091
30841W        W46735   4.847   7.271   3.662  0.0965 -0.0686 -0.1711
30842W        W46736   7.728  18.862  15.153 -0.0869 -0.2655  0.1815
30843W        W46737   6.297   2.179  14.789  0.0084  0.1528  0.4299
30844W        W46738   7.087   0.693  10.525 -0.0061  0.1754 -0.2306
30845W        W46739  13.163  11.635  14.406 -0.4021  0.0825 -0.0481
30846W        W46740   4.926   3.882   2.288 -0.2775  0.2423 -0.2318
30847W        W46741   1.922   0.966  11.776 -0.0377  0.1271 -0.5599
30848W        W46742   8.723   8.373   0.041  0.0624  0.0595  0.2208
30849W        W46743   0.030  13.317  10.886 -0.0009  0.0801  0.0739
30850W        W46744  10.181  18.959   2.301  0.1419  0.1990 -0.2945
30851W        W46745   4.883  18.152   2.204  0.1028 -0.2254 -0.0272
30852W        W46746   7.781   4.021  13.064 -0.0467 -0.2169  0.0575
30853W        W46747  15.192  15.161   0.048 -0.0184  0.3187 -0.2686
30854W        W46748  17.773   3.653   4.598  0.1990 -0.0766 -0.5906
30855W        W46749  17.408   8.814  13.006 -0.5052 -0.3977  0.1101
30856W        W46750   6.251   4.208  11.645 -0.0741  0.0492 -0.3125
30857W        W46751   1.263  17.966   2.778 -0.0039 -0.2150 -0.0433
30858W        W46752   6.375   4.012   9.200 -0.1801  0.3705  0.0314
30859W        W46753  15.374  18.090   4.521  0.0879 -0.2651  0.0274
30860W        W46754  16.594   3.037  11.999 -0.1179  0.0617 -0.0625
30861W        W46755  13.166   8.314   3.352 -0.2513  0.1999  0.0597
30862W        W46756   0.343  18.906  13.587 -0.2918  0.2966  0.2733
30863W        W46757  16.974   5.856   3.369 -0.0764 -0.3163  0.0428
30864W        W46758  10.420   5.016  12.412  0.1621 -0.2791  0.2153
30865W        W46759   3.476  13.104  10.391 -0.3736 -0.1632  0.1739
30866W        W46760   9.038  10.957   1.572 -0.0446 -0.0661 -0.3111
30867W        W46761   3.372  11.750  10.705 -0.0054 -0.2783 -0.1499
30868W        W46762  19.093  13.355  12.005 -0.1170 -0.3032  0.0890
30869W        W46763   1.654  12.012  10.737  0.2682  0.3500  0.3059
30870W        W46764  14.006  15.763  10.756 -0.1809  0.3887  0.0696
30871W        W46765   8.016   4.649  11.572  0.0096  0.0232  0.0594
30872W        W46766  19.045  17.034   2.050 -0.2071  0.1468  0.1692
30873W        W46767  18.740  17.439  11.527 -0.1766  0.0925  0.2519
30874W        W46768   9.216   0.815  10.806 -0.2840  0.0251  0.0365
30875W        W46769   2.439  15.787   0.774  0.0290  0.2565  0.0121
30876W        W46770   6.750   3.931  12.374  0.0934 -0.0595 -0.5023
30877W        W46771  16.557  16.593   3.845 -0.0400  0.1774  0.1380
30878W        W46772  10.530   6.331   3.138 -0.4096 -0.1725 -0.0119
30879W        W46773   8.669   1.054   1.199 -0.0775 -0.0743 -0.0783
30880W        W46774  17.160   5.856  14.735  0.0223 -0.1956 -0.1582
30881W        W46775  12.151   3.052   0.662  0.1060  0.0981  0.0386
30882W        W46776   3.920  15.044   1.909 -0.1088 -0.0546  0.2769
30883W        W46777   1.730  10.908   4.208 -0.5153 -0.0535 -0.3587
30884W        W46778   9.666  13.532  12.730 -0.3698  0.2979 -0.0807
30885W        W46779   3.935   0.225   0.672 -0.0661  0.0945  0.1537
30886W        W46780  13.604   4.493   1.124  0.1413 -0.3358  0.0724
30887W        W46781   0.059   5.041  13.916 -0.0329  0.0948 -0.2681
30888W        W46782  10.616  16.904   1.039  0.1921  0.1176  0.0117
30889W        W46783  11.346  14.345  10.799 -0.0611  0.2737  0.2772
30890W        W46784  18.310  16.052  14.483 -0.0421 -0.0577 -0.2534
30891W        W46785  14.731   2.590  14.879 -0.2031 -0.1615 -0.1019
30892W        W46786   1.983  10.153  13.649 -0.1763  0.0770  0.0843
30893W        W46787  10.455   4.118  12.376 -0.4030 -0.2234  0.3093
30894W        W46788  12.103  12.263   1.612 -0.3437 -0.0386 -0.0955
30895W        W46789  18.480   3.033  13.245 -0.2467  0.2654  0.1061
30896W        W46790  16.148  10.610   0.904 -0.0871  0.0599 -0.2830
30897W        W46791  16.079   8.169   2.540 -0.0748  0.1628 -0.1122
30898W        W46792  15.073  13.851   0.186  0.0475  0.1292  0.0412
30899W        W46793   7.345   4.849   2.234 -0.1106 -0.1690  0.0617
30900W        W46794  14.578  17.168   4.168 -0.1276  0.2521  0.0756
30901W        W46795  13.118   0.257  11.995  0.0530 -0.0960  0.0484
30902W        W46796  11.432   1.349  12.408 -0.1094 -0.1638  0.1731
30903W        W46797   8.096  10.730   3.674  0.1568  0.0450 -0.1437
30904W        W46798  14.304  17.205  14.208  0.3652  0.0799  0.1499
30905W        W46799   3.665  14.648   4.201 -0.1253  0.0979  0.1909
30906W        W46800  16.620  18.504   1.638  0.1693  0.2591 -0.3685
30907W        W46801  18.491  15.880   4.975 -0.0672 -0.1112 -0.3697
30908W        W46802   2.451  13.464  11.492 -0.0763 -0.3349  0.3555
30909W        W46803   6.724  13.784   3.001  0.1184 -0.1328 -0.2192
30910W        W46804   1.404   8.195   4.382 -0.0534 -0.0382 -0.0461
30911W        W46805   0.936  14.493   5.575  0.2997  0.3658 -0.1341
30912W        W46806  16.907  18.157  14.224  0.2995  0.1901  0.2596
30913W        W46807  18.905   1.166  11.455  0.2594 -0.3992 -0.0000
30914W        W46808  10.316  16.817  10.610 -0.0861  0.1216  0.0673
30915W        W46809  12.992  18.406  11.378  0.0978  0.0552  0.1125
30916W        W46810  13.710  16.890   4.307  0.3736 -0.1476 -0.0191
30917W        W46811  15.880  12.298   2.507  0.0319 -0.0334 -0.0054
30918W        W46812   7.632  11.139   0.663 -0.0269 -0.0914 -0.1080
30919W        W46813   6.969   5.474  10.364  0.2228 -0.0663  0.0013
30920W        W46814   8.678  15.238   4.348  0.0754  0.0124  0.0136
30921W        W46815  12.282  15.682   9.510 -0.2965 -0.0022  0.2216
30922W        W46816   3.857  13.050   3.137  0.2651  0.2077 -0.2576
30923W        W46817  13.691   9.954  12.897  0.0331  0.1259  0.1085
30924W        W46818  16.542  12.442  14.833  0.0339 -0.1134  0.1380
30925W        W46819   0.563   8.844  10.532  0.1214  0.3035 -0.0176
30926W        W46820   3.843  18.419  10.597  0.3878 -0.0642  0.1811
30927W        W46821   1.605   0.967  13.019  0.2702  0.1398  0.0754
30928W        W46822   3.535   5.789  11.767 -0.0061 -0.2491 -0.1033
30929W        W46823  12.790   7.690   2.976 -0.0482 -0.0596 -0.0537
30930W        W46824   4.571  11.007   3.950  0.0631 -0.1559 -0.2407
30931W        W46825  13.288  15.724   2.855 -0.1286 -0.2351 -0.0158
30932W        W46826   3.084  14.484  13.642 -0.0482 -0.0889  0.0570
30933W        W46827   7.277  13.574  11.585 -0.3921  0.0557 -0.1428
30934W        W46828   4.653   7.218   2.030  0.1492 -0.2004  0.1329
30935W        W46829   8.642   8.205   1.031 -0.1700 -0.0108 -0.2259
30936W        W46830   1.655   2.762   0.662  0.1101  0.0576 -0.0810
30937W        W46831   6.338   0.321  12.983  0.3259  0.2185 -0.2478
30938W        W46832   1.522  11.606   0.809 -0.1614  0.0466  0.1258
30939W        W46833  13.879   2.386   0.668  0.0512  0.2757  0.2830
30940W        W46834  15.444  15.701  15.078 -0.1960  0.0647 -0.0154
30941W        W46835  18.446  17.533   5.656  0.2051  0.2920  0.2651
30942W        W46836  11.314   8.830  13.014  0.3676 -0.1364 -0.0006
30943W        W46837  17.050   7.933   2.419  0.4121 -0.2820 -0.2115
30944W        W46838   9.501   4.446  11.682 -0.2417 -0.2367  0.1371
30945W        W46839  13.521   5.919  14.327 -0.0026  0.0442  0.1086
30946W        W46840  13.663   5.791   2.734  0.0812  0.2899  0.1363
30947W        W46841  13.054   1.719  13.424 -0.1049  0.1097  0.0207
30948W        W46842   8.468   5.417   4.299 -0.2214 -0.2907  0.0543
30949W        W46843  18.569  15.751  11.062  0.0573  0.0047  0.2677
30950W        W46844  17.522   8.837  10.822 -0.0588 -0.1734 -0.0238
30951W        W46845   6.183   0.030   4.829  0.0679 -0.1531  0.2635
30952W        W46846  15.294   5.564   5.654 -0.1723  0.0393 -0.0849
30953W        W46847   6.138   5.909   4.999  0.0315  0.2400 -0.1348
30954W        W46848   2.784   9.821   1.323 -0.0946 -0.0879  0.2610
30955W        W46849   3.711  18.973   0.920 -0.1923  0.0503  0.3235
30956W        W46850   6.952   8.124  12.597 -0.0610  0.5542 -0.0573
30957W        W46851   3.933  14.025  10.667 -0.2060 -0.1979  0.4301
30958W        W46852   4.958   2.259   0.438  0.0572 -0.0459 -0.3569
30959W        W46853  14.348  14.743   4.309  0.3374 -0.0376  0.2931
30960W        W46854   2.286  14.961   4.274  0.0061 -0.0867  0.5052
30961W        W46855  17.769   9.704  12.174  0.2189 -0.0223 -0.2544
30962W        W46856   8.677   0.526  14.733  0.2527  0.3191  0.1568
30963W        W46857  12.117  10.802  13.648  0.0474 -0.1922  0.0777
30964W        W46858   4.324  17.952  13.175 -0.2652 -0.0379  0.0709
30965W        W46859  11.598  10.229  14.743 -0.2795 -0.1189 -0.0085
30966W        W46860   1.217   7.251  11.662 -0.0637  0.1688  0.3897
30967W        W46861   8.312   1.676   3.735 -0.1552 -0.3907  0.2101
30968W        W46862  15.818  15.195   5.073 -0.4393 -0.0748  0.0691
30969W        W46863   4.257   3.450  14.891 -0.0524  0.3266 -0.0941
30970W        W46864  18.988   5.128  14.926  0.4143  0.0108 -0.1428
30971W        W46865  15.049  17.203   4.808 -0.0264  0.2659  0.1847
30972W        W46866   2.108  16.378   3.119  0.0967  0.1131 -0.1126
30973W        W46867  11.460  14.874  10.144 -0.0702 -0.1998 -0.1382
30974W        W46868   8.683   4.454   2.926 -0.2164  0.2232 -0.0075
30975W        W46869   1.491   1.371  13.789  0.0996  0.0135  0.1557
30976W        W46870  14.182  15.244   3.679 -0.0387 -0.0522 -0.0928
30977W        W46871   6.088   1.617  12.502  0.1966 -0.3756 -0.0712
30978W        W46872  18.117  15.296   4.204 -0.2351  0.1783 -0.0697
30979W        W46873   1.710  18.007   1.563 -0.0744  0.1383 -0.2593
30980W        W46874  11.250   4.714  13.955  0.1523 -0.0885  0.0088
30981W        W46875   9.693  15.376  13.759  0.1065  0.1495  0.1639
30982W        W46876   6.030   6.717  13.678 -0.0935 -0.2459 -0.2384
30983W        W46877  10.789  15.946  14.161  0.0849  0.1183  0.0898
30984W        W46878   7.387   6.740  13.454 -0.2691 -0.0328  0.2528
30985W        W46879  12.534  11.247   2.038  0.1716  0.1147  0.4258
30986W        W46880   6.168  13.330   4.397  0.0748 -0.1503  0.1603
30987W        W46881   7.684   9.702   3.999 -0.3283  0.3328  0.1231
30988W        W46882   2.571   9.003  12.565 -0.0186 -0.1485 -0.0475
30989W        W46883   8.117   3.702   2.453 -0.0854  0.4375  0.0171
30990W        W46884  13.139  17.165  11.430  0.1143 -0.1100 -0.2007
30991W        W46885  10.683   0.482  14.943  0.1736 -0.2413  0.0382
30992W        W46886   4.359   4.562   0.115 -0.1133  0.1744 -0.2418
30993W        W46887   6.171  13.177  13.197  0.1718 -0.2002  0.0956
30994W        W46888  13.049  16.253   2.171 -0.0013 -0.0443 -0.1129
30995W        W46889   4.959  18.923   5.311 -0.2062  0.0957 -0.0786
30996W        W46890   8.161   1.086   1.221  0.0694 -0.0587  0.1010
30997W        W46891  14.981  14.560  11.193 -0.0679 -0.2200  0.1641
30998W        W46892   5.373   1.817   4.989 -0.0913  0.0690 -0.3639
30999W        W46893  16.149  11.764   4.507 -0.1391 -0.1208  0.5032
31000W        W46894   0.557   8.138  14.052  0.2701  0.2125 -0.2973
31001W        W46895  10.194   4.243   0.396 -0.4706  0.2522 -0.3063
31002W        W46896   2.652   8.660   2.699 -0.0428  0.2953  0.0500
31003W        W46897   5.488   8.454  10.678  0.3120  0.0567  0.2947
31004W        W46898   5.291  13.291  12.878  0.1356 -0.2118 -0.2262
31005W        W46899  18.485   0.146   5.275 -0.0603  0.0183  0.0505
31006W        W46900   1.054  15.742   3.233 -0.0211  0.2338  0.1379
31007W        W46901   1.271   4.670  10.994 -0.0524  0.2934  0.1199
31008W        W46902  10.334  13.468  11.653  0.2822 -0.1226 -0.2527
31009W        W46903  10.952   1.975   0.709 -0.0893  0.3967  0.2127
31010W        W46904   7.897   5.364  13.396 -0.0722  0.0872 -0.1241
31011W        W46905  17.059  10.887   1.334 -0.0639  0.2423 -0.2569
31012W        W46906   3.244   3.295   1.741  0.0700  0.1155  0.1445
31013W        W46907   0.375   0.129  11.017 -0.0384 -0.1611 -0.1494
31014W        W46908  16.513   3.838   3.689 -0.0603 -0.0148  0.1008
31015W        W46909   7.263   9.834   3.700  0.0578  0.0919  0.0141
31016W        W46910  16.644  17.435  11.489  0.0821  0.4501  0.1209
31017W        W46911   8.367   7.691  10.520  0.0953  0.0292 -0.1709
31018W        W46912  10.394  10.036   2.961  0.0742 -0.2153 -0.0484
31019W        W46913  15.412   6.051  15.114  0.0728  0.0779  0.1137
31020W        W46914   4.087   5.938  12.499  0.1069  0.1432 -0.4104
31021W        W46915   7.208  16.314  13.276 -0.0275  0.2412 -0.3979
31022W        W46916  14.054  14.362  12.157  0.2152  0.2929  0.0945
31023W        W46917  11.900   8.322  14.778 -0.0972  0.0834  0.1095
31024W        W46918   6.336   9.138   0.029 -0.2572  0.2031 -0.2074
31025W        W46919   9.077  11.714  12.672 -0.0676  0.1349 -0.0894
31026W        W46920   4.019   1.841  12.756 -0.1103  0.0459  0.0050
31027W        W46921   3.109  10.267  12.903  0.0541 -0.1819  0.7227
31028W        W46922   7.203   7.006  12.583 -0.3750 -0.0981 -0.3342
31029W        W46923  19.036  13.045   9.995  0.3392  0.1766  0.4632
31030W        W46924  11.763  10.367   9.869  0.2635 -0.2881 -0.2282
31031W        W46925  13.404   3.888   0.367 -0.3864 -0.0911 -0.2467
31032W        W46926  15.073   7.825  14.797  0.0833  0.1354 -0.0592
31033W        W46927   8.543   5.783  12.181  0.4427 -0.0177  0.4043
31034W        W46928   1.249  16.510  14.324  0.2742 -0.1033  0.2291
31035W        W46929  17.921   2.479  11.282  0.1469  0.1807  0.0963
31036W        W46930  10.251   0.471  14.253  0.1080 -0.1612  0.3488
31037W        W46931   9.450   3.850   5.292 -0.5283  0.2332  0.1517
31038W        W46932  13.311  14.000   2.931 -0.3145  0.1398  0.2261
31039W        W46933   7.015   8.328  11.945  0.1429 -0.2294  0.2081
31040W        W46934   9.461   3.650  13.779 -0.1992 -0.1667  0.3080
31041W        W46935   9.877   4.267   0.023  0.1050 -0.1828  0.4522
31042W        W46936  16.518  10.769  14.325 -0.2617 -0.0422  0.0950
31043W        W46937  16.221  16.010  13.662 -0.2288 -0.2471  0.0479
31044W        W46938   9.942  18.666   3.545  0.1364 -0.0370 -0.3152
31045W        W46939   8.423   6.698  11.496 -0.1046  0.0266 -0.0341
31046W        W46940   4.681   1.663   3.708 -0.1293  0.2182 -0.0947
31047W        W46941   2.673  10.249   0.367  0.4178  0.0899 -0.0503
31048W        W46942   8.451   5.711  11.569 -0.1662 -0.2725  0.2564
31049W        W46943   2.024   0.778   0.088 -0.3636  0.0550  0.0685
31050W        W46944  13.361  12.332   5.143 -0.0025 -0.0966  0.0375
31051W        W46945  14.958   7.840  13.047  0.1175  0.1165  0.0264
31052W        W46946   5.111  10.081   2.921  0.1733 -0.0020  0.1660
31053W        W46947   4.733  15.078   3.338 -0.1116 -0.2292 -0.2628
31054W        W46948   2.327  13.496   4.504 -0.0597  0.1355 -0.0665
31055W        W46949  13.236   7.383   2.775 -0.1001  0.1951  0.1882
31056W        W46950   6.966   1.949   4.378  0.0031 -0.5174 -0.2566
31057W        W46951   9.267   0.236   0.222 -0.0814 -0.0160  0.1495
31058W        W46952   5.991   1.088   0.818  0.0776  0.1554  0.0626
31059W        W46953   2.153  10.845   2.067 -0.0518  0.0099 -0.4690
31060W        W46954   1.961  16.969  13.564 -0.0192  0.1984  0.0209
31061W        W46955  16.080  10.477  14.341  0.3704 -0.0443 -0.1212
31062W        W46956  18.073  16.847   1.835  0.0169 -0.2278  0.0688
31063W        W46957   6.866  16.223   1.170  0.1684  0.0515 -0.0170
31064W        W46958   6.172   8.664  14.537 -0.0481  0.2022  0.1975
31065W        W46959   9.630   8.442  12.834  0.0062 -0.1327 -0.3053
31066W        W46960  15.597   6.674  10.255  0.1049  0.1315  0.2107
31067W        W46961   6.060  11.944  10.511  0.1960 -0.1262 -0.3801
31068W        W46962  12.552  17.350   1.132 -0.3655  0.3128  0.3239
31069W        W46963   5.256  12.496   4.750  0.0687 -0.3167 -0.2663
31070W        W46964   1.379   2.106  12.805  0.0772 -0.1181  0.1615
31071W        W46965   3.054  15.496  13.806  0.0519 -0.2103 -0.1076
31072W        W46966   1.315   0.691   1.872  0.5572  0.0414  0.1378
31073W        W46967  14.168  16.628  10.158  0.1289  0.3543  0.2559
31074W        W46968   6.845  14.796  15.067  0.2381  0.0205 -0.1477
31075W        W46969   9.196   8.102  11.252  0.2085 -0.2641  0.2031
31076W        W46970   2.666   9.883   9.418  0.1438 -0.0207  0.1186
31077W        W46971   2.937   9.988   0.690  0.2358  0.1995  0.0943
31078W        W46972  13.830  12.852   3.264 -0.1401 -0.2031 -0.0250
31079W        W46973  10.717  15.223  12.318 -0.0305 -0.3082 -0.1279
31080W        W46974   7.361   0.092   2.267 -0.2636  0.0154 -0.0763
31081W        W46975  11.908  16.822  12.013 -0.3587  0.1425 -0.1409
31082W        W46976  13.394  14.242   2.474 -0.1293 -0.1683  0.4129
31083W        W46977   7.791   0.364   0.528  0.2717  0.1462  0.0794
31084W        W46978   0.486   3.670   5.464  0.4046  0.1628 -0.2520
31085W        W46979   6.032  16.989  11.803  0.0887 -0.0362  0.2875
31086W        W46980  14.930   1.774  11.219  0.0237  0.1161 -0.0810
31087W        W46981   4.930  10.430  12.025 -0.1000  0.2285 -0.1091
31088W        W46982   3.218   2.090  11.573 -0.1368 -0.1174  0.1228
31089W        W46983  14.545   5.221   4.385 -0.3764  0.0544  0.0109
31090W        W46984  10.812  10.024   4.311 -0.3274 -0.1498  0.3212
31091W        W46985  13.006   7.717  11.498 -0.3690  0.3907  0.0471
31092W        W46986  13.145  11.351  12.739 -0.2789  0.2109  0.1796
31093W        W46987   6.061   3.131   0.044 -0.2245 -0.0672  0.0094
31094W        W46988   2.662  16.915   0.094  0.2416 -0.0032  0.0879
31095W        W46989  17.470  14.583  13.739 -0.1813  0.0663  0.1443
31096W        W46990  10.152  13.360  12.534  0.0978 -0.0157 -0.3306
31097W        W46991  13.906   9.967  11.395 -0.1174 -0.4108  0.1248
31098W        W46992   1.431   8.064   3.900  0.1799 -0.0227  0.3296
31099W        W46993   7.505  17.696   3.044 -0.0044 -0.0110  0.0006
31100W        W46994   7.020   3.618   1.589  0.1169 -0.0604  0.1018
31101W        W46995  10.983   9.024   4.238  0.4101  0.0073 -0.0282
31102W        W46996  11.279  10.764   4.066 -0.0318  0.0592  0.2419
31103W        W46997  19.182   7.661  13.364  0.1094  0.1162 -0.0494
31104W        W46998  12.203  13.174  12.400 -0.1164 -0.3304  0.0588
31105W        W46999  18.709  17.942  11.784 -0.1506 -0.1738 -0.2629
31106W        W47000  10.552  17.602   3.105  0.2228  0.1867 -0.0312
31107W        W47001   7.681  10.540   3.505  0.0065 -0.1417  0.1191
31108W        W47002  16.540  11.959   2.994 -0.1476  0.0766  0.1179
31109W        W47003   6.521   6.726   2.978 -0.0651  0.0834  0.0312
31110W        W47004   1.763   9.618   3.651 -0.1465  0.1668 -0.1539
31111W        W47005  18.385  11.498  12.600 -0.0343  0.0943 -0.2309
31112W        W47006  12.443   5.210   2.994 -0.2826 -0.0128 -0.2390
31113W        W47007   4.729  14.171  11.454 -0.1509  0.1130  0.2940
31114W        W47008   4.531   0.652  14.626 -0.2229  0.2838 -0.0313
31115W        W47009   5.903  17.427   3.050 -0.2739 -0.0299  0.1669
31116W        W47010   3.465   8.573   1.883 -0.0042 -0.2427  0.2063
31117W        W47011  15.703  11.761   4.759  0.0436 -0.0396  0.0984
31118W        W47012  12.458   0.681   4.518  0.0920 -0.0415  0.1661
31119W        W47013  11.964  10.691   1.637  0.0666 -0.1595 -0.0122
31120W        W47014   4.886   3.980  12.065 -0.0106 -0.0843  0.0530
31121W        W47015   1.550  18.940  13.647  0.2806 -0.0966  0.3416
31122W        W47016  12.933  16.680  12.293 -0.0913  0.1119  0.1066
31123W        W47017  10.006   4.114  10.458 -0.1251 -0.0656  0.0749
31124W        W47018   0.843   7.039  10.971 -0.2292  0.0504 -0.4669
31125W        W47019   1.709   3.093  12.254 -0.2426  0.1542 -0.0077
31126W        W47020  15.132   1.741  13.236  0.1667  0.1519  0.3510
31127W        W47021  14.780   2.420   4.872  0.2180  0.1366 -0.1873
31128W        W47022   2.298  15.737   4.760  0.4739  0.1349  0.2120
31129W        W47023   7.010  15.405  13.765  0.1125 -0.1892 -0.1852
31130W        W47024  16.617   1.634  13.239 -0.0801  0.0961  0.0263
31131W        W47025   0.802   6.574   5.340  0.1356  0.2169  0.3503
31132W        W47026   7.324  14.407   3.139 -0.2398  0.0844 -0.0274
31133W        W47027  11.009   9.936   1.374 -0.1741 -0.3567 -0.0870
31134W        W47028  12.311  17.505   3.262 -0.2391  0.2125  0.0824
31135W        W47029   6.368   2.822  11.797 -0.1172  0.0624  0.0128
31136W        W47030   1.577   1.483   0.854 -0.0596 -0.3034  0.1444
31137W        W47031   5.440  13.072   3.053  0.0750 -0.0845  0.3441
31138W        W47032   6.189   2.392  14.094 -0.1743  0.1989 -0.0786
31139W        W47033  17.953  18.165  14.988  0.1135  0.3728  0.0878
31140W        W47034  10.555   8.277   4.261  0.3067  0.2916  0.0467
31141W        W47035   0.204   8.377   0.176  0.0984  0.3201  0.2733
31142W        W47036  17.966   4.092  14.413 -0.0651 -0.3633  0.3298
31143W        W47037   0.175   6.905   3.108  0.1425  0.2013  0.0699
31144W        W47038  12.296  18.499   0.365  0.1737  0.1123 -0.2443
31145W        W47039   6.574   7.950  13.175 -0.1651 -0.0680  0.0072
31146W        W47040   4.905  18.141  11.114  0.2368 -0.2485 -0.0954
31147W        W47041   8.365   9.999   0.600  0.2948  0.0526  0.4598
31148W        W47042   0.511   2.911  12.280  0.4000  0.0038 -0.3757
31149W        W47043  17.611   9.978  10.796  0.2062  0.2336  0.1596
31150W        W47044  15.889   5.931  13.519  0.3474  0.1695  0.0818
31151W        W47045   4.961  12.981  10.716 -0.2997  0.1910  0.1687
31152W        W47046  19.132  15.245   0.564 -0.1105 -0.0302 -0.2434
31153W        W47047   4.111   9.423   3.256 -0.1964 -0.2124  0.0152
31154W        W47048  10.069  12.902  12.300 -0.0939 -0.0082 -0.3579
31155W        W47049   0.995  12.066  12.127 -0.0063 -0.1540 -0.0343
31156W        W47050  14.101   0.859   4.212 -0.3544 -0.0255 -0.2293
31157W        W47051  15.881   5.233   2.664 -0.1197  0.3464 -0.0141
31158W        W47052   0.728   1.558  14.210 -0.4520  0.1114 -0.0212
31159W        W47053   2.111  12.282   4.067  0.1117 -0.0595  0.0139
31160W        W47054  15.880  15.798   1.820  0.3003  0.0586 -0.1035
31161W        W47055  14.054  13.199  14.717 -0.1163 -0.4351  0.3291
31162W        W47056  17.340  18.107   4.311  0.2526  0.1104 -0.0316
31163W        W47057   0.973  14.222   6.016  0.0869 -0.3612  0.0545
31164W        W47058  12.353  13.305  11.858 -0.0655  0.2096 -0.1804
31165W        W47059  15.454  18.531   5.262 -0.3102  0.0581 -0.1725
31166W        W47060   4.195  15.881  10.871  0.0740  0.0673  0.0444
31167W        W47061   6.528   5.587   4.463 -0.0103  0.1510 -0.0620
31168W        W47062   4.348  18.679  12.480 -0.1592 -0.0699  0.0249
31169W        W47063   1.225  16.789   4.006  0.0550 -0.0321  0.0657
31170W        W47064   2.683  15.927   3.065 -0.2003 -0.2396  0.0473
31171W        W47065  13.780  16.394   5.628 -0.1392  0.2425  0.5091
31172W        W47066  10.323  16.689  14.410  0.2983 -0.1412 -0.1534
31173W        W47067   3.576   0.814   3.269  0.3034 -0.0556  0.0823
31174W        W47068   9.579   8.016   5.590  0.0926  0.0566 -0.2144
31175W        W47069   7.376   5.198  14.126  0.2247 -0.0127 -0.0392
31176W        W47070  17.431  13.255   1.166 -0.1293  0.1952 -0.0254
31177W        W47071  15.908   6.461  15.014  0.2620  0.3079 -0.2143
31178W        W47072   8.471   5.332  11.976 -0.0554  0.1193  0.1147
31179W        W47073   9.369   2.490   1.573  0.0898 -0.0134 -0.1857
31180W        W47074   5.280   2.329  14.351 -0.0897 -0.1884 -0.4709
31181W        W47075  16.375   8.490   0.623  0.2228 -0.0135 -0.0278
31182W        W47076   1.307  12.902  13.825 -0.2045 -0.3595  0.3483
31183W        W47077   5.863   6.156  12.169  0.2339 -0.1165  0.0261
31184W        W47078   0.260   9.415   3.712  0.3576  0.2147  0.4178
31185W        W47079   6.556   5.196  10.968  0.0255 -0.0526 -0.0239
31186W        W47080  17.088   9.512  13.825 -0.0204 -0.2638 -0.2895
31187W        W47081   4.370  12.283   0.779  0.2340 -0.4168 -0.4938
31188W        W47082   7.171   7.533  13.908  0.0427 -0.0918 -0.3265
31189W        W47083   9.077  14.577   4.488  0.0036 -0.2380  0.1511
31190W        W47084   7.034  18.630   3.426  0.3211  0.3040  0.1734
31191W        W47085   7.615  14.175  13.803  0.3032 -0.4980  0.0861
31192W        W47086   2.568   5.809   4.598 -0.2543 -0.1149  0.3047
31193W        W47087   9.814   7.301  15.151 -0.0343  0.2671  0.2405
31194W        W47088  11.579   0.049   1.929 -0.0824 -0.0319 -0.1082
31195W        W47089   3.612  11.369  10.410 -0.0797 -0.3119 -0.3338
31196W        W47090   6.545   5.936  15.117 -0.2802  0.2122  0.0078
31197W        W47091   0.388  13.394   1.447 -0.4015 -0.1129  0.1852
31198W        W47092  16.944  14.011   0.741 -0.0173  0.2940  0.1841
31199W        W47093  12.685   9.565  11.548  0.1974  0.0094  0.1566
31200W        W47094   4.335   4.781   0.562 -0.0921  0.0408 -0.2723
31201W        W47095  18.196   4.765   3.162 -0.0462 -0.0425 -0.0744
31202W        W47096  15.229   8.659  13.598  0.0785 -0.0245 -0.0181
31203W        W47097  18.354   8.593   0.388 -0.1527  0.0747  0.0370
31204W        W47098  10.444  13.874   3.080  0.0340 -0.1380 -0.0735
31205W        W47099   3.436  14.364  11.918 -0.0077  0.1737  0.1726
31206W        W47100   6.220   7.001  12.670  0.1747 -0.0904 -0.2216
31207W        W47101   3.762   7.672  14.203  0.1020 -0.1777  0.2999
31208W        W47102  18.676   0.015  11.255 -0.1704  0.0147 -0.1690
31209W        W47103   5.462  16.392  10.360  0.5667 -0.1615 -0.1679
31210W        W47104  13.292   3.639  11.232 -0.3232 -0.0484  0.1096
31211W        W47105  15.265  13.937  14.836 -0.2058 -0.3787 -0.0527
31212W        W47106   7.650  19.156   1.505  0.4283  0.0018 -0.2001
31213W        W47107  14.066   1.414   1.919  0.1355 -0.2258 -0.1827
31214W        W47108  15.959  10.938  12.986  0.0200 -0.1593 -0.1853
31215W        W47109   6.097  18.051  13.370 -0.0700  0.1032 -0.0773
31216W        W47110  14.548   5.988   0.935 -0.0280 -0.3101  0.0657
31217W        W47111  13.715   8.634   3.504 -0.0631 -0.3166 -0.2475
31218W        W47112   1.871  10.490   1.136  0.0794 -0.1164 -0.2843
31219W        W47113   4.502  10.188  10.859  0.2633 -0.2239  0.1231
31220W        W47114   5.337  17.960   4.022  0.1496 -0.3646  0.2350
31221W        W47115   8.103   2.443   0.118  0.0298 -0.1959 -0.2044
31222W        W47116   7.615  13.734  11.998  0.3637 -0.1292 -0.2037
31223W        W47117   4.387   5.904   3.341  0.0571 -0.2304  0.0501
31224W        W47118   2.905   3.064  13.524 -0.3095 -0.0118  0.0667
31225W        W47119  10.366  16.483  14.840 -0.2621 -0.0140  0.0819
31226W        W47120  17.982  16.489   0.457  0.4068  0.1243  0.2190
31227W        W47121   7.732   5.989  14.979  0.0792 -0.0572  0.1472
31228W        W47122  15.056  18.861   4.434  0.4547 -0.3631 -0.0619
31229W        W47123   9.271   9.908   2.293  0.0201  0.1820  0.0414
31230W        W47124   6.359   4.138   8.742  0.0833 -0.1562  0.1002
31231W        W47125  18.252  12.127   0.234  0.0256 -0.0374  0.2374
31232W        W47126  13.824   4.118   0.707 -0.1808 -0.0920  0.0214
31233W        W47127  17.804  10.161   3.516  0.0237 -0.0013  0.1282
31234W        W47128   3.021  10.144   4.836 -0.1059  0.1172 -0.1547
31235W        W47129  11.368   7.259   0.494 -0.2754 -0.1618  0.0321
31236W        W47130  11.516   4.783   4.071  0.1228  0.0184  0.0481
31237W        W47131  17.933   5.341   2.417  0.0831 -0.2661  0.0469
31238W        W47132  14.306   2.227   1.901 -0.1324  0.0237  0.1796
31239W        W47133   3.190  14.085  10.865 -0.0130  0.0696  0.3250
31240W        W47134   9.485   0.128  14.491  0.0689 -0.0731 -0.0836
31241W        W47135   7.773   0.595  11.307  0.1458  0.1199  0.3394
31242W        W47136   7.756   2.611   1.080 -0.1245  0.0909  0.1416
31243W        W47137  16.823   2.049  11.654 -0.0190 -0.2030 -0.0538
31244W        W47138  14.544  11.742  12.565 -0.1971 -0.1341  0.0670
31245W        W47139   7.075   8.304  14.060  0.0548 -0.0274 -0.0696
31246W        W47140   9.211   2.463   2.920  0.0561  0.2308 -0.2834
31247W        W47141   9.923   3.083  13.273  0.3134 -0.0920 -0.3100
31248W        W47142   8.194   7.375  10.168  0.0753 -0.0453 -0.0385
31249W        W47143  16.110  15.907  15.190 -0.1460  0.1523  0.0213
31250W        W47144   1.764   1.995  13.907 -0.2106  0.0370 -0.3349
31251W        W47145  14.007   6.930   5.361 -0.2527 -0.1331 -0.3007
31252W        W47146   2.913  15.341  13.340  0.0359  0.0718 -0.1633
31253W        W47147   4.508   3.198   0.210  0.3716  0.2933 -0.0655
31254W        W47148  10.574  10.068   2.075 -0.0172  0.1372  0.0498
31255W        W47149   0.519   2.779   2.382  0.2491 -0.0782 -0.1002
31256W        W47150   0.179  10.069   0.374 -0.1159 -0.1078  0.1313
31257W        W47151   0.961   8.420  13.115 -0.4875  0.0297 -0.3014
31258W        W47152   9.540   6.229   5.611  0.2439 -0.1485  0.1023
31259W        W47153   0.707  11.791   2.520 -0.0686  0.0360 -0.1367
31260W        W47154  10.781   8.376  14.583  0.0035 -0.1339 -0.0919
31261W        W47155   6.862   9.789   4.735  0.0654  0.0869 -0.2234
31262W        W47156   6.013  16.767   0.058  0.0621 -0.0627  0.1623
31263W        W47157   3.968   7.611   0.576 -0.1542 -0.0442 -0.2668
31264W        W47158   3.564   8.370  11.062  0.1179 -0.0142 -0.1699
31265W        W47159   7.862   3.055   0.842 -0.2198 -0.0749  0.0910
31266W        W47160   5.087  18.767   3.079  0.0338  0.0933 -0.1053
31267W        W47161   2.779  18.337  14.155  0.0123  0.0316  0.0322
31268W        W47162   6.020  12.164   5.122 -0.2240 -0.1007  0.0063
31269W        W47163  18.302   8.397  12.895  0.1972 -0.4450 -0.3640
31270W        W47164  11.959   9.027  12.008 -0.0463  0.2599  0.2003
31271W        W47165   6.534   1.748  14.741 -0.0111 -0.1865 -0.0216
31272W        W47166   2.803  14.010   1.021  0.1397  0.1928 -0.2850
31273W        W47167   0.575  10.027   0.046 -0.1647 -0.0515 -0.3214
31274W        W47168   1.278   7.816  11.018  0.0329 -0.2561 -0.2521
31275W        W47169  18.078   6.746  12.334 -0.2204  0.1440  0.1730
31276W        W47170  13.028  10.566  13.386 -0.1611 -0.0946  0.3219
31277W        W47171   8.959   9.313   9.877 -0.0537 -0.0765  0.3703
31278W        W47172  12.242   2.597   1.224 -0.0241 -0.1045  0.2907
31279W        W47173   5.656   7.903  10.671 -0.1264  0.0200  0.0880
31280W        W47174   3.069  18.232  13.703 -0.1348 -0.0199 -0.1473
31281W        W47175   0.531  17.803  11.627  0.0562 -0.2575  0.1649
31282W        W47176  13.033   4.173   1.527  0.0109  0.2804 -0.3512
31283W        W47177  17.395  11.480   3.141  0.0393 -0.0335  0.5719
31284W        W47178  13.514   5.137   2.886 -0.2439  0.0878 -0.0688
31285W        W47179   7.687  19.021   3.763  0.1187  0.1247  0.0999
31286W        W47180  12.489   3.690   5.930 -0.2410  0.0160 -0.1645
31287W        W47181   0.595  13.036  10.785 -0.1091  0.0335  0.1048
31288W        W47182   0.764  13.520   5.395 -0.1785  0.1238 -0.1958
31289W        W47183   2.236  12.650  13.484  0.2265 -0.0684 -0.0665
31290W        W47184  14.680  16.550   3.589  0.1408 -0.1005 -0.3234
31291W        W47185   0.564  11.209  11.872 -0.3392  0.0056 -0.1667
31292W        W47186  15.263  14.619  11.746 -0.4540 -0.2188  0.1954
31293W        W47187  16.240   4.140   1.922 -0.0759 -0.0556 -0.2641
31294W        W47188   7.551   9.092  13.608 -0.3658  0.0944 -0.1054
31295W        W47189   9.400  13.693   4.961 -0.1961  0.3884 -0.1813
31296W        W47190   5.817   5.526  14.667  0.1720 -0.1709 -0.1313
31297W        W47191   9.913   6.630  13.791  0.1528  0.5136  0.4083
31298W        W47192   1.127   8.628  12.696 -0.3147  0.1322  0.0363
31299W        W47193  18.824  12.134   0.764 -0.2969  0.3394 -0.1238
31300W        W47194   0.904   9.876   4.324  0.0536  0.0598 -0.1693
31301W        W47195  16.603  10.700   3.491  0.0354 -0.0903 -0.2396
31302W        W47196  10.777  19.013   0.489  0.1227 -0.1062  0.2767
31303W        W47197   1.521   8.551   0.384  0.1839 -0.0316 -0.1243
31304W        W47198  16.474  15.231   0.680  0.1862 -0.0101  0.0450
31305W        W47199  11.475   8.269   0.689 -0.0986  0.1883  0.3027
31306W        W47200   8.769  15.389   4.844  0.0140 -0.2255  0.1127
31307W        W47201  11.965   3.614  14.230 -0.1532  0.0138  0.3973
31308W        W47202   3.793  10.119  14.465 -0.0409  0.0309  0.1142
31309W        W47203  18.748  14.267   3.027 -0.0703 -0.2565  0.2480
31310W        W47204   8.001  13.963  14.704  0.2376  0.0759 -0.0623
31311W        W47205  14.871  10.029   3.731  0.0591  0.0271 -0.1028
31312W        W47206  10.470   3.281  10.812 -0.1472  0.1132 -0.3045
31313W        W47207  10.414   2.112   0.010  0.0698  0.2774  0.0717
31314W        W47208  16.168   4.676  10.428 -0.0572  0.2566  0.1996
31315W        W47209  16.326   5.461  13.577 -0.0201  0.1191 -0.2292
31316W        W47210   2.256  14.177   3.680 -0.0277  0.2225  0.1156
31317W        W47211  17.523  18.304   2.599 -0.1196 -0.2677  0.0728
31318W        W47212  17.775   1.259   0.371  0.1030  0.0199 -0.4318
31319W        W47213  11.194  18.751  14.068 -0.0852 -0.2170 -0.2851
31320W        W47214  17.721  17.938   2.842 -0.1608  0.0140  0.1398
31321W        W47215   0.088  12.294   0.811  0.1469 -0.1764 -0.1431
31322W        W47216  15.845  13.274   2.095 -0.0898 -0.2095  0.4144
31323W        W47217  17.180  18.976   3.985  0.1459 -0.0092 -0.2520
31324W        W47218   8.745  13.620  15.027 -0.0691 -0.1126 -0.1485
31325W        W47219  14.446   1.767   3.865 -0.1659  0.1647 -0.1456
31326W        W47220  13.577   9.337  12.794 -0.0531  0.1820  0.3513
31327W        W47221   2.685  17.980  10.696 -0.2137  0.4003 -0.0409
31328W        W47222  14.683  14.473   0.011 -0.1063 -0.0262 -0.0030
31329W        W47223  11.726  16.042   1.558 -0.1052  0.0021 -0.1372
31330W        W47224  12.878  16.809  13.108  0.0220  0.4801  0.4067
31331W        W47225   5.867  11.668   5.196  0.0940 -0.0359  0.1271
31332W        W47226  13.426   8.645  13.621  0.1919  0.0313  0.1710
31333W        W47227  16.501   7.383   1.148  0.2457 -0.0645 -0.3854
31334W        W47228  10.957  10.246   2.412 -0.0458  0.1491  0.1092
31335W        W47229  12.702  10.416   3.080  0.0697  0.0220 -0.0305
31336W        W47230  13.006  11.117   2.338 -0.0275 -0.0734 -0.0813
31337W        W47231  18.877  10.318  12.354 -0.0934 -0.0238 -0.0743
31338W        W47232  11.832  15.020   0.229  0.1161 -0.1469  0.1315
31339W        W47233   7.021   4.845   2.693  0.0422  0.2557  0.0090
31340W        W47234   2.144   5.966  14.329  0.0825 -0.3159 -0.3294
31341W        W47235   8.120   3.223  14.090 -0.0826  0.0079  0.1509
31342W        W47236   1.237  16.594  12.907 -0.2308  0.2874 -0.0959
31343W        W47237   4.119   4.998  10.973  0.1804  0.0579  0.2332
31344W        W47238   3.333   3.841  14.029  0.0167  0.1555 -0.2802
31345W        W47239  11.658   2.544   1.773  0.0628 -0.3401  0.4044
31346W        W47240   7.747   9.079  12.227 -0.1288 -0.3143  0.0170
31347W        W47241   3.284   8.970   0.740 -0.0019  0.1982 -0.0534
31348W        W47242  10.565   1.566  13.648  0.1856  0.4175  0.1047
31349W        W47243  10.943  14.815  14.483 -0.2437  0.1642  0.2384
31350W        W47244   7.111  13.096  14.140 -0.1202  0.2311 -0.1072
31351W        W47245  12.379   7.286   3.290 -0.2898  0.2113  0.0676
31352W        W47246  11.281   2.713  13.828 -0.1286  0.1737 -0.1698
31353W        W47247   7.868   0.207   5.103 -0.3053 -0.0218  0.3954
31354W        W47248   8.835  11.309  14.609  0.1382 -0.2647 -0.0295
31355W        W47249  13.964   4.545   2.466  0.1815  0.0650 -0.0575
31356W        W47250   5.833  17.955   3.168 -0.0230 -0.2348 -0.0039
31357W        W47251   5.980   5.885   1.029 -0.0138  0.1281 -0.0089
31358W        W47252   7.177  15.205   3.392 -0.1628  0.0807 -0.0074
31359W        W47253   7.106   5.367  11.585 -0.0059 -0.2999  0.0038
31360W        W47254   8.739  10.692   1.237  0.0785  0.3743 -0.1391
31361W        W47255   1.171   1.046  13.302 -0.0723  0.0038  0.0355
31362W        W47256   2.715  15.202  10.784 -0.1163  0.3081  0.0534
31363W        W47257  11.795  16.813   0.424  0.0016 -0.1105 -0.3251
31364W        W47258   6.155   2.682  14.756 -0.0978  0.3010  0.1250
31365W        W47259   7.995  15.905   2.114  0.0316 -0.0936 -0.0169
31366W        W47260   7.270  18.131  13.065  0.2942  0.5143  0.0684
31367W        W47261   3.523   0.410  10.716  0.4525  0.0654 -0.0747
31368W        W47262   3.181   5.166   2.542 -0.0078  0.0537 -0.4553
31369W        W47263   8.720  14.356  13.853 -0.0965  0.3099 -0.1874
31370W        W47264  12.835  11.405   3.357 -0.0534 -0.2363  0.0019
31371W        W47265   9.480  16.422  11.248  0.0757 -0.2926 -0.0095
31372W        W47266  15.384  14.923  12.233  0.1451 -0.0382  0.3888
31373W        W47267  13.269  13.529   4.252  0.0927  0.2456  0.0673
31374W        W47268  14.712   4.054  12.035  0.2347 -0.4572  0.0215
31375W        W47269   6.972   2.389  11.206 -0.0054 -0.0518  0.1053
31376W        W47270   8.765  13.495   2.782  0.0104 -0.1077 -0.1931
31377W        W47271   1.113   6.038   0.161 -0.0558 -0.1400 -0.2342
31378W        W47272  12.057  11.151  14.445  0.0346  0.2522 -0.1695
31379W        W47273   9.038  19.157  11.818 -0.0119 -0.0146 -0.0802
31380W        W47274  10.754   4.443   4.875 -0.1209  0.3042  0.1251
31381W        W47275  12.278   2.169   0.922 -0.0939  0.1122  0.4239
31382W        W47276  10.174   0.473   3.184  0.0179 -0.1431 -0.0922
31383W        W47277   9.766   4.569  11.246  0.0047 -0.1744  0.5237
31384W        W47278  14.920  14.718   4.705  0.3241 -0.4271 -0.1551
31385W        W47279  12.221  11.855  10.538 -0.1339 -0.1640 -0.0917
31386W        W47280  16.010  16.705   1.856 -0.0869  0.1454  0.1556
31387W        W47281   6.996   3.030   0.431  0.1082 -0.0024 -0.0486
31388W        W47282  16.564   9.899   3.334 -0.1137  0.1145  0.1732
31389W        W47283   0.757   5.304  14.670 -0.0997  0.1494 -0.0379
31390W        W47284  17.386  10.504  11.851 -0.0344  0.1855 -0.0749
31391W        W47285   5.504  15.684   2.965  0.2707 -0.1500 -0.0752
31392W        W47286   1.561  11.555  10.561  0.1015 -0.1210 -0.0962
31393W        W47287  10.293  16.108  14.234 -0.1715 -0.2291 -0.1608
31394W        W47288   9.547  12.271   2.762 -0.1170  0.1850  0.0840
31395W        W47289   2.612   4.993   4.070 -0.0908  0.0929 -0.2869
31396W        W47290  11.313   2.080  10.811 -0.0757  0.0710  0.0449
31397W        W47291   5.689  17.034   1.692 -0.4503 -0.3588 -0.4095
31398W        W47292  10.713   5.273   1.980  0.1360 -0.0002  0.0028
31399W        W47293   7.377   5.474   1.030 -0.2274 -0.0157 -0.2114
31400W        W47294  14.392  16.236  11.837  0.0690 -0.1193 -0.1828
31401W        W47295  14.960  11.262  14.769  0.0912 -0.3204 -0.2860
31402W        W47296  10.914   3.063   4.806  0.3674  0.0975 -0.0745
31403W        W47297  13.107  13.317  12.972 -0.0517  0.2642  0.2665
31404W        W47298  11.526   9.277   0.212 -0.3329 -0.0158  0.1877
31405W        W47299   6.953  17.285   2.324  0.0167 -0.1968  0.1973
31406W        W47300  15.662   8.435  13.705  0.0987 -0.0933  0.0819
31407W        W47301  12.049   1.804   4.009  0.0342  0.1244  0.3677
31408W        W47302  17.140  18.755   0.572 -0.0459 -0.1693  0.1683
31409W        W47303   1.698   5.646   4.727 -0.1057 -0.1159 -0.3967
31410W        W47304   9.549  11.326   4.935  0.1863 -0.1324  0.0004
31411W        W47305   8.033   8.925   4.826  0.2064 -0.1726 -0.0638
31412W        W47306   4.294  13.767   2.757  0.3392 -0.0139  0.1037
31413W        W47307   2.825   9.313   1.353 -0.3783 -0.3824  0.2164
31414W        W47308  16.598  11.314   0.628 -0.0527  0.0433  0.1667
31415W        W47309   8.643  16.594   2.985 -0.0406 -0.0069  0.0854
31416W        W47310  12.453  14.234   2.936  0.1006  0.1767  0.0899
31417W        W47311   2.714   4.466   3.672 -0.0607 -0.1289 -0.1453
31418W        W47312   0.282  11.430   2.849 -0.1016 -0.2449  0.1002
31419W        W47313  17.726  14.417   9.899 -0.1321  0.1678 -0.1700
31420W        W47314  13.759  15.140  11.592 -0.0455  0.3935 -0.0352
31421W        W47315  13.819  12.586  12.591 -0.2801  0.1126 -0.1712
31422W        W47316   1.911  12.463   1.117  0.1407 -0.1843 -0.1577
31423W        W47317  12.986   0.980  10.741 -0.2146  0.0405 -0.0876
31424W        W47318   3.621  17.107   1.255  0.1625 -0.2479  0.0673
31425W        W47319  13.864   4.694   1.936 -0.1334  0.2446 -0.1781
31426W        W47320   8.144   3.138  14.735 -0.0552  0.2689 -0.1797
31427W        W47321  12.166   4.265   0.304  0.1576  0.1794  0.2783
31428W        W47322  11.800  11.132  13.961  0.0211  0.2038  0.0078
31429W        W47323   2.544  10.027   4.741 -0.1901  0.3345  0.1811
31430W        W47324  13.530   9.851   2.762 -0.1325  0.2309  0.1651
31431W        W47325   8.018   8.521   0.625  0.2691  0.0267  0.0966
31432W        W47326   6.374  13.672   0.081  0.1426 -0.3598  0.2316
31433W        W47327  13.828   1.202  14.417  0.1887 -0.0884 -0.1789
31434W        W47328   7.905   5.693   4.070  0.0062  0.2354  0.1242
31435W        W47329   9.112   3.984   2.112 -0.0502 -0.3578  0.0804
31436W        W47330   9.473   1.183   5.555 -0.3059 -0.2437 -0.0019
31437W        W47331  17.027   3.108  11.613 -0.0397 -0.0991  0.0356
31438W        W47332   5.187  12.406  10.582  0.0300 -0.2618 -0.0614
31439W        W47333   5.861   7.489   5.057  0.1565  0.0523 -0.0579
31440W        W47334  13.947   3.959   0.180  0.0160  0.0240  0.1371
31441W        W47335  15.047   9.786   3.153 -0.1269  0.0633 -0.0063
31442W        W47336  13.516  12.605   1.681  0.2925  0.1480 -0.1215
31443W        W47337   0.619  12.444   0.675 -0.3138  0.2546 -0.1157
31444W        W47338   5.665   6.256   0.296  0.1796  0.1209  0.0065
31445W        W47339   3.555  17.215   2.961  0.1745 -0.1992 -0.0097
31446W        W47340   8.707   1.528   0.470 -0.2352 -0.3017  0.0887
31447W        W47341  14.958   6.071  13.372 -0.2494 -0.4616 -0.0839
31448W        W47342  18.890   2.005  12.547 -0.2190 -0.0609 -0.1294
31449W        W47343  17.780  18.294  11.824 -0.1388  0.0199 -0.1622
31450W        W47344  11.986   9.401  11.132 -0.0670  0.1377  0.2343
31451W        W47345  14.896   8.484  14.567 -0.2625 -0.3455  0.2281
31452W        W47346  13.270  18.696   3.244  0.0905  0.1926 -0.1622
31453W        W47347  18.198   8.455   4.164  0.3171  0.1000  0.0667
31454W        W47348  13.341  13.814   1.508  0.0807  0.1583  0.1068
31455W        W47349   1.581   0.484   3.272  0.0121  0.2253 -0.0726
31456W        W47350  10.078   8.755  14.067  0.1656  0.2963  0.0038
31457W        W47351   2.922   2.199   3.487 -0.2651 -0.1624  0.0653
31458W        W47352   7.849   0.558   1.472 -0.2494  0.0411 -0.0525
31459W        W47353  10.314   6.666   1.265 -0.1812 -0.0468 -0.1543
31460W        W47354  13.616  12.757   4.345 -0.0025  0.3315  0.2889
31461W        W47355   2.315  14.890  10.784  0.0588 -0.0264 -0.0728
31462W        W47356   9.198  12.498   1.310 -0.1090 -0.1284 -0.0766
31463W        W47357   5.641  19.046   4.734  0.1833 -0.2023  0.1496
31464W        W47358   3.581  10.555   0.185 -0.0029 -0.1368 -0.1873
31465W        W47359  15.968   9.046  14.264 -0.1064 -0.1116  0.1312
31466W        W47360  17.205  15.624   1.778  0.2132  0.0193  0.0212
31467W        W47361  17.119   1.479  13.470 -0.0506 -0.0094  0.0045
31468W        W47362   5.956  13.900  11.742  0.0806 -0.2121  0.2444
31469W        W47363  10.390  13.103   1.779 -0.0318 -0.1907 -0.1271
31470W        W47364  12.521   9.247   1.943 -0.0836  0.1327 -0.0567
31471W        W47365  18.090  10.262   1.056 -0.0847  0.1828  0.2672
31472W        W47366   7.865  15.949   4.800 -0.0762 -0.1081 -0.0440
31473W        W47367  14.203  12.294  13.674 -0.2971 -0.0649  0.1050
31474W        W47368   2.990  11.815  11.891  0.2016 -0.1208 -0.3000
31475W        W47369  17.944  10.869   5.197 -0.1398 -0.0451 -0.1619
31476W        W47370  13.733   3.968   1.890  0.0339 -0.2153 -0.1854
31477W        W47371  19.027  17.955  12.322  0.5506 -0.0042  0.3291
31478W        W47372  15.474  18.519   2.861 -0.3691 -0.2376  0.2780
31479W        W47373   0.321   0.832  11.772 -0.1132  0.0872  0.0087
31480W        W47374  10.041  17.262   1.217  0.1994  0.4455  0.1641
31481W        W47375  14.472  16.774  11.555 -0.3230 -0.1601 -0.3816
31482W        W47376   9.909  11.148   0.943  0.1156 -0.3383  0.0612
31483W        W47377   2.180  15.818   3.916 -0.0111 -0.0038 -0.2082
31484W        W47378  11.911   9.686   4.752  0.1262 -0.0409 -0.1274
31485W        W47379  14.151  10.127   0.886  0.3376  0.2670  0.0411
31486W        W47380  13.000   3.685   1.361 -0.2229 -0.0060  0.0218
31487W        W47381  17.440  10.941   3.141  0.1763 -0.1291  0.1183
31488W        W47382   3.341  10.904   5.999  0.0510 -0.2770 -0.0632
31489W        W47383  18.709  15.523   0.174 -0.0283 -0.2678 -0.1508
31490W        W47384  15.096   2.780   0.178 -0.3557  0.2623  0.1663
31491W        W47385  14.098   6.169  13.208  0.0464 -0.2297  0.1215
31492W        W47386   7.550  18.103  13.870 -0.2125 -0.0545 -0.2291
31493W        W47387   3.647   9.547  11.919 -0.1445 -0.2905  0.5152
31494W        W47388  15.031   3.454   4.686 -0.0343  0.1513  0.2069
31495W        W47389   6.466  18.538  10.977  0.3071  0.1043  0.3645
31496W        W47390  18.440   2.784   3.513 -0.0144  0.1785  0.2169
31497W        W47391   0.829   4.777  15.139  0.0434  0.1338 -0.0435
31498W        W47392  10.088   6.175   3.331 -0.1017  0.0322  0.0024
31499W        W47393  17.994   8.767  10.904 -0.4798 -0.2250  0.2269
31500W        W47394  17.128   1.939  11.045  0.1909 -0.2175 -0.0175
31501W        W47395   7.839  14.999  11.308 -0.1511 -0.1229 -0.0388
31502W        W47396   2.430   8.238  15.089 -0.0605 -0.0789 -0.0171
31503W        W47397  18.434  11.797   3.734 -0.0306 -0.0530 -0.2714
31504W        W47398   8.207  10.935  10.585 -0.0076  0.0206  0.0123
31505W        W47399   5.678   3.720   3.508  0.0323 -0.0094  0.4326
31506W        W47400   4.758   5.451  10.773 -0.1165  0.0481  0.1184
31507W        W47401  17.608  16.810   4.017  0.0285 -0.0359  0.0857
31508W        W47402  16.443   1.331  12.870  0.0566  0.1779  0.1505
31509W        W47403   3.059   9.973   1.768  0.3190  0.1527  0.0872
31510W        W47404   2.194  18.408  13.600 -0.0071  0.0834 -0.2200
31511W        W47405   4.341   3.965   3.988  0.3009  0.1452  0.4109
31512W        W47406  19.090  14.236   2.411 -0.1681 -0.0442 -0.0297
31513W        W47407   7.616  13.314  12.222 -0.0594  0.1743  0.0953
31514W        W47408  13.334  12.843   4.939  0.3061  0.0075  0.3977
31515W        W47409  14.939   1.959  12.039  0.0632 -0.0108  0.0093
31516W        W47410   5.779  13.418  11.762 -0.0491  0.1412 -0.0611
31517W        W47411   1.828  11.998  14.340  0.2247  0.4052 -0.2614
31518W        W47412   4.644  18.963   3.164 -0.1941  0.0590  0.4076
31519W        W47413   2.479  18.670   0.374 -0.2637 -0.1123 -0.1012
31520W        W47414   8.984  13.041  13.365  0.1428 -0.2754 -0.0516
31521W        W47415   6.353  13.276  12.696 -0.4253  0.0979  0.1440
31522W        W47416  18.850  16.255  11.039 -0.1637  0.0335 -0.1238
31523W        W47417   7.791   1.055  13.543  0.0788  0.1833 -0.4942
31524W        W47418  11.018   9.524   4.501  0.0283  0.0629 -0.2245
31525W        W47419   4.411   5.652  12.252  0.0113 -0.3487 -0.2269
31526W        W47420  15.613   1.663  13.266  0.0276 -0.1165  0.2436
31527W        W47421  11.334  18.351   2.902 -0.0987  0.2167 -0.0997
31528W        W47422  11.588   7.526   2.863  0.0855  0.0269  0.1552
31529W        W47423  12.398   3.514  11.125  0.0886 -0.3762  0.0558
31530W        W47424   9.777   8.293  12.308  0.1392 -0.0899 -0.0839
31531W        W47425  15.863  17.017  14.915 -0.0472 -0.1481 -0.0467
31532W        W47426  14.746   0.661  11.298 -0.0840 -0.2456  0.3954
31533W        W47427  13.302   7.328  14.653 -0.0516 -0.1705  0.2146
31534W        W47428   4.471   8.977  10.440  0.0435  0.0444  0.0821
31535W        W47429   8.166  15.813   9.138  0.0685 -0.2507 -0.1703
31536W        W47430   9.309   2.526  12.091 -0.3318 -0.0627  0.0323
31537W        W47431  10.597  18.002  14.112  0.0260 -0.3377 -0.0043
31538W        W47432  18.981  11.335  10.752 -0.2932  0.0069  0.0181
31539W        W47433   1.684  16.135   2.540 -0.0249 -0.0723  0.1576
31540W        W47434   2.096   4.316   3.611 -0.0341 -0.2612 -0.0297
31541W        W47435   0.398  15.623  11.073  0.2083 -0.0961 -0.2183
31542W        W47436   4.713  18.646  10.140  0.6040  0.0557  0.2311
31543W        W47437  13.824  14.785   2.996 -0.0704  0.3930  0.0003
31544W        W47438   5.266   4.346   4.878 -0.2529  0.0753 -0.1955
31545W        W47439   2.217  14.361   4.988 -0.1275  0.3901  0.0491
31546W        W47440  12.349  16.117   4.534  0.3322 -0.1367  0.1879
31547W        W47441   2.788  16.945   2.449  0.2454 -0.1157 -0.0318
31548W        W47442   7.945   4.477  12.884  0.0699 -0.2540  0.0287
31549W        W47443  10.270   1.212   0.388  0.2229  0.0338  0.2206
31550W        W47444   9.819   2.668  11.010 -0.1432 -0.1828 -0.1755
31551W        W47445   3.868   0.123   2.859  0.1176  0.2159  0.3564
31552W        W47446   6.810   9.225  11.425 -0.2523  0.0674  0.1637
31553W        W47447   8.524  15.385  10.246  0.2441 -0.1028  0.1541
31554W        W47448  14.495   1.856  14.743  0.1555 -0.2539  0.1138
31555W        W47449   3.183  12.605  11.546  0.1474 -0.2078  0.1222
31556W        W47450  18.711   1.510  10.983 -0.3480 -0.2181  0.4460
31557W        W47451  14.173  16.755   1.130 -0.2890  0.0382 -0.1240
31558W        W47452   1.344   7.725   4.646  0.0942  0.0033  0.0013
31559W        W47453   4.914   1.040  11.673  0.0597 -0.2742 -0.0874
31560W        W47454  11.052   6.944  11.012  0.2442 -0.3083 -0.1854
31561W        W47455  16.517  12.326   3.327 -0.0230  0.0277  0.2989
31562W        W47456  10.595  10.609   2.569  0.0257 -0.0385 -0.1878
31563W        W47457   2.976  15.673   0.497 -0.3759  0.1957  0.1022
31564W        W47458   1.461   7.341   1.822  0.0132  0.1583 -0.5946
31565W        W47459   9.128   4.219  12.960 -0.3280  0.0125  0.1035
31566W        W47460  16.921   8.664   0.753  0.2442  0.1376  0.3242
31567W        W47461   1.171  17.591  11.130 -0.1534  0.2569  0.0840
31568W        W47462  18.055   3.639   0.397  0.1186 -0.0942 -0.4086
31569W        W47463   7.838   4.525  14.783 -0.2352 -0.0653 -0.0986
31570W        W47464   7.798  10.586   0.043  0.1263  0.0674  0.1831
31571W        W47465   5.015  12.955  11.619  0.1550  0.0533 -0.0362
31572W        W47466   3.915   6.533  15.105  0.0106  0.1442 -0.3251
31573W        W47467  14.265  14.792   1.622  0.3320 -0.3417  0.1303
31574W        W47468   6.866   2.674   1.274 -0.1110  0.0210 -0.1141
31575W        W47469  13.582   4.672   2.783  0.2784 -0.3391  0.0502
31576W        W47470   4.574  19.130  10.310 -0.0795 -0.3564 -0.0076
31577W        W47471   3.861   2.874   0.950  0.1239 -0.1324 -0.3814
31578W        W47472   9.678  14.383   0.708 -0.0764  0.0507 -0.2237
31579W        W47473   0.138  15.778  14.440 -0.0987 -0.0985  0.0731
31580W        W47474  18.170   5.848  11.643  0.3083  0.1065  0.2845
31581W        W47475   2.400  18.065  14.417 -0.0881 -0.0167 -0.1055
31582W        W47476  13.306   8.708  12.602  0.0476  0.1691  0.0830
31583W        W47477   2.147  13.078   5.410  0.1217  0.1504  0.0771
31584W        W47478   0.011   3.725  13.717 -0.1407 -0.3165 -0.0030
31585W        W47479  12.782   6.901  12.479 -0.0201 -0.0849  0.0527
31586W        W47480   5.344  13.924   0.851 -0.2943 -0.0761  0.0260
31587W        W47481  10.530   7.343  14.207  0.0018  0.0627  0.0324
31588W        W47482   7.659  18.937   1.974 -0.0270 -0.0368 -0.0704
31589W        W47483  16.082  11.000  14.501 -0.1854 -0.2110  0.0036
31590W        W47484  18.636  17.087   0.956  0.0639 -0.1222 -0.0320
31591W        W47485  18.108   1.553   1.873  0.1755 -0.1471  0.3297
31592W        W47486  13.741  10.867  12.236  0.0122 -0.3025  0.2820
31593W        W47487   0.094  18.659   3.989  0.2557  0.0798  0.0960
31594W        W47488   2.772  16.726  12.886 -0.0507 -0.0760 -0.0741
31595W        W47489   0.164   8.834  15.037  0.1192  0.2135 -0.1154
31596W        W47490  16.652   5.136   1.554  0.1184 -0.0243 -0.2488
31597W        W47491   1.726   6.060  10.449  0.1606  0.3005 -0.1343
31598W        W47492   0.163   7.880  14.537  0.4882  0.0079 -0.0126
31599W        W47493  10.742  13.772   5.036 -0.3765  0.0303  0.0833
31600W        W47494  15.808   3.453  15.046  0.0427  0.1045  0.0124
31601W        W47495  14.029   0.840   0.202  0.0631 -0.2015  0.1701
31602W        W47496   6.207   0.730   3.505 -0.1466  0.2051 -0.3194
31603W        W47497  13.169   3.861   2.860  0.1858 -0.2317 -0.1962
31604W        W47498  10.561  12.399  10.530 -0.3046  0.1509 -0.0271
31605W        W47499  17.906  12.391   3.159 -0.5096  0.0895  0.1344
31606W        W47500   4.230   1.371  12.761  0.2488 -0.0874  0.2446
31607W        W47501  12.877  19.059   2.372 -0.0699 -0.2138 -0.0755
31608W        W47502  10.360  18.729  12.767 -0.2476 -0.3138 -0.3235
31609W        W47503   4.124  18.834  14.641  0.1806 -0.0130  0.0270
31610W        W47504   3.534   7.784   9.349 -0.0689 -0.1451 -0.0635
31611W        W47505  18.931   8.259  13.349  0.3503  0.2394 -0.2511
31612W        W47506   6.097  18.811   3.862 -0.0994 -0.1690  0.3130
31613W        W47507   7.252   4.638  14.172 -0.3799 -0.0440  0.2216
31614W        W47508   8.938  10.652   3.691  0.2464  0.3249 -0.1119
31615W        W47509  11.104  12.756  12.935  0.1061 -0.0530 -0.0790
31616W        W47510   3.520   0.040   0.150  0.0676 -0.2802 -0.1731
31617W        W47511   9.039  12.280   3.775  0.0050 -0.2443 -0.1644
31618W        W47512  16.098  10.646  10.595 -0.3847 -0.1009 -0.1020
31619W        W47513   8.535   5.147   2.823 -0.0391  0.0462 -0.1333
31620W        W47514   6.854   1.060  14.257  0.1837 -0.3727 -0.2393
31621W        W47515  10.270   7.624   4.649 -0.2620  0.0699 -0.1617
31622W        W47516   1.138  11.693   2.821 -0.0893  0.1345 -0.1028
31623W        W47517  14.243   1.975  12.880  0.2128  0.1458  0.2082
31624W        W47518  17.266   0.266   4.333 -0.0218 -0.1731 -0.1667
31625W        W47519   7.166   4.047  14.922  0.0280  0.1597  0.2045
31626W        W47520  16.173  16.908   4.472  0.2730 -0.0016  0.1160
31627W        W47521  17.762  13.819  14.570  0.0982 -0.0869 -0.1997
31628W        W47522   3.833   1.775  10.846  0.3672 -0.1078 -0.3279
31629W        W47523  14.112   9.238  14.771 -0.0215 -0.1099 -0.1663
31630W        W47524   2.126  16.979   3.687 -0.1264  0.1182  0.1992
31631W        W47525   9.325   2.889   4.294  0.1877  0.0817  0.0539
31632W        W47526   9.854   6.039  12.407  0.1393 -0.1015  0.1416
31633W        W47527  18.023  10.857   1.025  0.1535 -0.1243 -0.1902
31634W        W47528  10.791   7.160   0.114  0.1067 -0.0513 -0.0524
31635W        W47529   9.545   3.570   0.001 -0.1004  0.1869  0.1683
31636W        W47530  15.791  17.391   1.672 -0.0016 -0.0118 -0.3090
31637W        W47531   9.887  11.395   4.139 -0.0406 -0.2151 -0.1989
31638W        W47532   5.151  12.166   1.466 -0.0827  0.0043 -0.1161
31639W        W47533  17.090  10.559  14.295 -0.2023  0.2073 -0.0443
31640W        W47534   6.989  14.081   3.350  0.0503 -0.1755 -0.0794
31641W        W47535  15.592   7.444  13.687  0.0638 -0.1275 -0.1361
31642W        W47536   9.009  17.381  11.633 -0.0398 -0.2623  0.0038
31643W        W47537  13.392  18.913  15.025 -0.0723  0.5171  0.0816
31644W        W47538   6.824   4.929  14.152 -0.0224 -0.2227 -0.0269
31645W        W47539  10.478  11.995  12.728 -0.0163  0.1723  0.1411
31646W        W47540  16.312  12.711   4.804 -0.2915 -0.0326  0.0777
31647W        W47541   2.379   1.722   4.907  0.0867  0.1392 -0.1159
31648W        W47542   6.163  17.298   4.942 -0.1132  0.0713 -0.2611
31649W        W47543   4.285   4.098   0.568 -0.2577 -0.1895  0.0876
31650W        W47544   9.731   8.407   1.465  0.1638  0.1796  0.2733
31651W        W47545   7.440  15.292  10.855  0.2712  0.0558  0.0260
31652W        W47546  16.621  14.594   0.154  0.0754  0.0125  0.0031
31653W        W47547  16.190  14.995  14.169 -0.3598 -0.2285  0.0533
31654W        W47548   0.956  12.093   9.929 -0.2895  0.0728  0.0988
31655W        W47549  10.102  17.521  14.949  0.1596 -0.1164 -0.1294
31656W        W47550  12.808   1.225  15.179  0.0281 -0.0009  0.2698
31657W        W47551   2.852   4.585  15.035  0.0003  0.1646  0.0561
31658W        W47552   9.323   5.664  14.275  0.0690  0.0883  0.1746
31659W        W47553   6.646  18.342   0.207  0.1447  0.0243 -0.3826
31660W        W47554  11.449   0.891  10.741  0.2251  0.0785  0.3583
31661W        W47555  17.396  15.440   4.669  0.2818 -0.0611 -0.6130
31662W        W47556  16.296  16.423  12.375  0.2295 -0.0000 -0.0771
31663W        W47557   6.981   1.024  13.111 -0.2321  0.4141 -0.5491
31664W        W47558  13.280   1.332   1.015  0.3041  0.2401 -0.0758
31665W        W47559  12.344   8.579  12.960 -0.1673 -0.1262 -0.0472
31666W        W47560   2.710  18.939   1.081  0.2051  0.0413 -0.2690
31667W        W47561   1.318  13.948  12.117 -0.1447  0.0087  0.1886
31668W        W47562  16.264  12.480  13.182  0.1460 -0.2982 -0.0594
31669W        W47563  11.281   6.741   5.177 -0.3219  0.6030 -0.1534
31670W        W47564  11.748  13.942  13.742 -0.0118 -0.0949  0.0838
31671W        W47565   4.728  10.131   3.207 -0.1673  0.1605  0.0026
31672W        W47566   5.956   3.433  12.217  0.0200  0.0079  0.3339
31673W        W47567  12.647   1.919   3.879  0.0563  0.1947 -0.3820
31674W        W47568  18.339  10.909  10.037  0.0054  0.0085 -0.4314
31675W        W47569   5.164  14.070  12.811  0.0183  0.0550  0.2278
31676W        W47570  14.257  17.716   1.461 -0.0403  0.2489 -0.0514
31677W        W47571  17.794  12.282  13.211 -0.3016  0.2417  0.1795
31678W        W47572   2.344  18.830   4.111 -0.0521  0.0041 -0.0583
31679W        W47573  16.599  18.445  15.027 -0.2241  0.0362  0.1619
31680W        W47574   8.089   0.071   2.826  0.1608 -0.2773 -0.1028
31681W        W47575  14.875  13.559  14.388  0.0351  0.1196  0.3477
31682W        W47576   4.232   8.414   4.598 -0.1930 -0.0998  0.0158
31683W        W47577   8.134   3.574  12.783 -0.0830  0.1921  0.1991
31684W        W47578   1.118  12.039   2.452  0.1917  0.4870  0.0185
31685W        W47579   9.760  10.047   0.057 -0.3714  0.2158 -0.3359
31686W        W47580   3.578  17.837  12.540  0.1827  0.3977 -0.2351
31687W        W47581  11.908  14.760   4.529  0.0627 -0.0000 -0.0030
31688W        W47582  16.090   6.113   5.287 -0.3175  0.3239 -0.1578
31689W        W47583   4.444   9.145  12.518  0.0700  0.2293  0.0749
31690W        W47584   6.950   2.634  14.559  0.0717 -0.0500 -0.0330
31691W        W47585  16.353   8.583  13.589  0.2924  0.2979  0.0421
31692W        W47586  16.383   6.425   0.847 -0.1970  0.1369 -0.2862
31693W        W47587  18.190   6.638   2.301 -0.1038 -0.1073  0.2993
31694W        W47588  14.657  17.850   3.681 -0.0633 -0.2120 -0.1545
31695W        W47589   8.509  14.378  11.038  0.5180 -0.1835  0.0228
31696W        W47590   0.166   7.054   4.258 -0.0024  0.2831  0.0249
31697W        W47591   5.994   0.396   3.869  0.1714 -0.1263 -0.2088
31698W        W47592  13.416   5.970   3.213 -0.0893 -0.0747  0.3282
31699W        W47593  10.497   5.061  15.079  0.2630  0.2664  0.1334
31700W        W47594  12.734   8.556  13.613 -0.1798  0.1920 -0.1938
31701W        W47595  12.813   0.660  14.997 -0.0151 -0.1003  0.3077
31702W        W47596   0.930  14.190   4.821  0.2194 -0.1022  0.1451
31703W        W47597   2.202  16.090  13.740  0.1198 -0.0896  0.2437
31704W        W47598  12.432  16.225   0.452 -0.0592 -0.2000  0.2636
31705W        W47599   0.730   1.360  15.117  0.1184  0.1777  0.0072
31706W        W47600   7.404   7.389  11.711  0.1981  0.0331 -0.0089
31707W        W47601  10.462   7.940   2.579 -0.0319 -0.0745  0.0320
31708W        W47602   1.435   8.474  10.663  0.1401 -0.0936 -0.3052
31709W        W47603  14.473  11.622  10.745 -0.0760  0.0749 -0.5066
31710W        W47604   7.293  16.545  11.545  0.1825 -0.0837  0.1188
31711W        W47605   5.868   1.341  10.083 -0.0353  0.0933  0.3214
31712W        W47606   8.749  15.369  13.936  0.0534  0.1193 -0.1377
31713W        W47607  13.167   1.265  13.747 -0.0479 -0.1299 -0.1244
31714W        W47608  14.377  12.986   2.408 -0.2514 -0.0736 -0.1910
31715W        W47609   7.294   2.836  10.815 -0.1768  0.1871 -0.0905
31716W        W47610   4.314  17.559   4.361 -0.2169  0.3930 -0.1854
31717W        W47611  16.769  10.778  10.762 -0.4184 -0.1031 -0.2442
31718W        W47612  12.073  17.587   0.420 -0.2249  0.2999 -0.0662
31719W        W47613   8.614  11.005   3.974  0.0439 -0.0381 -0.0617
31720W        W47614   9.033  14.548   3.678  0.0584  0.1248 -0.0571
31721W        W47615   8.936  18.382   3.963  0.0697  0.0891 -0.0054
31722W        W47616  12.805  10.225  13.944  0.0146 -0.2355 -0.4874
31723W        W47617  13.433  19.012   5.105  0.0684  0.3069 -0.0933
31724W        W47618  14.769   2.299  13.564  0.0754  0.1754 -0.1267
31725W        W47619   2.349  13.340  12.876 -0.1835  0.2507  0.3156
31726W        W47620   0.109   8.854   1.250 -0.1351 -0.0041 -0.1965
31727W        W47621   9.031   9.118   1.294  0.1348 -0.0904 -0.1116
31728W        W47622   8.419  19.052   2.437 -0.3856  0.2324 -0.1436
31729W        W47623  16.641   8.344   1.141  0.1937 -0.3763  0.0168
31730W        W47624  13.005  13.661  14.119 -0.0005  0.0453 -0.1173
31731W        W47625   0.796   7.987  12.201  0.0001  0.0616 -0.1326
31732W        W47626   6.925   6.784   4.991 -0.2225 -0.0117  0.1825
31733W        W47627  16.974   2.053  13.354 -0.1006 -0.3237  0.0428
31734W        W47628   6.474  16.732   2.623 -0.1334 -0.0893  0.1981
31735W        W47629  16.561   0.012  11.235 -0.0221 -0.0369  0.0069
31736W        W47630  11.411   1.657   1.461 -0.0707 -0.1916 -0.1794
31737W        W47631  16.527   1.119   9.834  0.1800  0.0359 -0.0837
31738W        W47632  10.633   7.928  13.863  0.1992  0.4836 -0.1856
31739W        W47633   2.046   5.466  14.406 -0.1661  0.0815  0.1803
31740W        W47634   7.817  17.586  10.787 -0.1230  0.0080 -0.1089
31741W        W47635  11.963   3.926   5.303 -0.1504 -0.0314  0.2989
31742W        W47636  13.053  16.117  13.631 -0.0473  0.0093  0.0102
31743W        W47637   0.626   3.682   3.803 -0.0433 -0.1549  0.0013
31744W        W47638  17.516  12.749  12.389 -0.2659  0.0125  0.5625
31745W        W47639   8.582  11.301  11.594  0.0207  0.0849  0.6155
31746W        W47640   4.116   6.009  13.427  0.0150 -0.1429  0.3403
31747W        W47641  18.117   3.057   3.111 -0.2655 -0.2143  0.0426
31748W        W47642  17.541   6.333  10.502 -0.2670 -0.0810  0.1214
31749W        W47643   3.950  14.339  13.141  0.0066  0.2160 -0.0896
31750W        W47644   5.021  11.698   3.442  0.1766 -0.0282 -0.0477
31751W        W47645  12.648   6.461   3.592 -0.1328 -0.0175 -0.2314
31752W        W47646   8.505   7.960  10.911 -0.1165 -0.1712 -0.0248
31753W        W47647  12.282  11.558  11.158 -0.0299  0.1712 -0.0063
31754W        W47648   6.593   9.365  12.689 -0.0329 -0.1132  0.2404
31755W        W47649   6.709   2.216   2.932  0.1889  0.0238  0.2460
31756W        W47650   3.942  16.867  10.986  0.0627 -0.0018  0.0384
31757W        W47651  13.221   9.288  11.567 -0.2984 -0.0711  0.2371
31758W        W47652   8.051  18.197  13.727 -0.2958 -0.1638 -0.2866
31759W        W47653  14.187  11.022   2.989 -0.0936 -0.3583  0.2516
31760W        W47654   2.308  13.077  14.983 -0.0776 -0.0010 -0.2796
31761W        W47655  18.775   6.387  10.759  0.1175  0.0149 -0.3258
31762W        W47656   7.437   7.262   4.303 -0.0586  0.0216 -0.1285
31763W        W47657   0.525  11.426  14.324  0.1950  0.0181  0.2173
31764W        W47658  17.334  17.114  13.380  0.0278 -0.1775 -0.2400
31765W        W47659   1.273   3.648   3.570 -0.4180 -0.3151 -0.0339
31766W        W47660   1.403  16.527   1.787 -0.0692 -0.1795 -0.1585
31767W        W47661  17.928  17.601  13.282  0.0367  0.0760 -0.2653
31768W        W47662  17.084   5.892   1.813  0.2314  0.1850  0.0316
31769W        W47663  16.171   9.757  13.748 -0.1833  0.0037 -0.1789
31770W        W47664  18.329  12.523   0.624  0.4500 -0.2368  0.1072
31771W        W47665  11.851   5.679   5.294 -0.1101  0.1061 -0.2148
31772W        W47666  16.109  15.254   2.899 -0.1044  0.2951 -0.0004
31773W        W47667  11.751   9.468   3.432  0.0915  0.0570 -0.0407
31774W        W47668   9.751   7.540  13.017 -0.1838 -0.2588  0.0277
31775W        W47669   8.905  18.841   4.188  0.0724 -0.0736 -0.0685
31776W        W47670  16.132   3.878  15.170  0.1561  0.0284  0.0229
31777W        W47671   1.611  10.821  14.441 -0.2447 -0.0882 -0.2104
31778W        W47672  11.783  16.291   3.614 -0.1439 -0.0563 -0.3971
31779W        W47673   5.755   5.927  13.253 -0.1537 -0.2559  0.0867
31780W        W47674   3.640  10.320   5.201  0.0295 -0.2291  0.1228
31781W        W47675  12.343  10.009   2.141 -0.1461  0.1806 -0.1597
31782W        W47676   0.657   0.783  12.127 -0.4770  0.0435 -0.0470
31783W        W47677   5.628  17.487  12.313  0.1931 -0.0754  0.3463
31784W        W47678   1.909  13.781   0.256  0.2829 -0.1847 -0.2972
31785W        W47679   8.896   9.683  10.987 -0.1406  0.2050  0.1544
31786W        W47680  14.798   1.180   3.458 -0.0032 -0.0150 -0.2636
31787W        W47681   2.874   7.497   5.280  0.0750 -0.0462  0.0040
31788W        W47682   4.812   2.601  11.940  0.0022 -0.3521 -0.2260
31789W        W47683  17.299   9.108   4.970  0.0972  0.4100  0.1241
31790W        W47684   8.717  14.832  10.752  0.4765 -0.0694  0.0658
31791W        W47685   3.465  15.259   1.535 -0.1475  0.0143 -0.1808
31792W        W47686   0.653   2.826   4.995 -0.2198 -0.2025 -0.0382
31793W        W47687   6.435   8.489   1.939  0.2111 -0.2425  0.1666
31794W        W47688  15.103   2.138  10.205 -0.0580  0.0319 -0.1652
31795W        W47689  11.630   4.526  14.496 -0.2529 -0.0416 -0.0857
31796W        W47690  16.635  19.137   2.155  0.0841  0.0956 -0.2079
31797W        W47691  19.114   3.437  10.600  0.1314  0.1844  0.4496
31798W        W47692  18.951  12.682   0.557  0.0183  0.0110 -0.0259
31799W        W47693  10.224  14.806  11.327 -0.3436  0.3921 -0.0258
31800W        W47694  17.724  18.724   2.657 -0.0128 -0.0222 -0.1547
31801W        W47695   0.516  10.894   0.221  0.2828  0.3229 -0.0554
31802W        W47696   4.421  11.769   5.576  0.1566 -0.2796 -0.3328
31803W        W47697  15.703   6.210   3.481 -0.0525 -0.1037  0.2669
31804W        W47698  16.907  12.668  11.625  0.1074 -0.3593  0.2201
31805W        W47699  14.076   9.436   0.774  0.0438 -0.1590 -0.1150
31806W        W47700  11.349  16.804   5.180 -0.0844 -0.0715  0.3398
31807W        W47701  12.038   6.306  13.071 -0.1212  0.1360  0.0842
31808W        W47702   1.607   2.852  11.688 -0.1087 -0.1677  0.4855
31809W        W47703  11.112   5.654  10.729  0.4212  0.0409  0.1004
31810W        W47704   3.825   8.847   2.578  0.0350  0.0314  0.0284
31811W        W47705  10.158   8.569   2.028  0.0724 -0.2189  0.0038
31812W        W47706  12.727   4.706  13.739  0.0619  0.0512  0.2284
31813W        W47707  14.135   5.403  14.085 -0.3781  0.2171 -0.0965
31814W        W47708   3.206  12.225   4.934 -0.0020 -0.3477  0.2691
31815W        W47709  12.656   8.858  13.237  0.1333  0.3780 -0.0920
31816W        W47710  15.339   7.393  12.828 -0.1390  0.2235  0.4252
31817W        W47711  10.816  17.416   0.600 -0.1421  0.0354  0.0230
31818W        W47712  17.405   4.276   3.053 -0.0657 -0.2556  0.0672
31819W        W47713   5.912   3.003  13.717 -0.1192 -0.1842 -0.3235
31820W        W47714   6.526  10.446  14.642  0.0321 -0.1150 -0.1496
31821W        W47715   7.023   5.104  14.985  0.0080 -0.2500 -0.4436
31822W        W47716  18.156   3.179  10.549  0.2698 -0.0099  0.2682
31823W        W47717   1.948  16.315  11.149  0.2230 -0.1315 -0.1296
31824W        W47718   5.968  16.890  10.442  0.3424 -0.2383  0.0083
31825W        W47719   2.417   7.593   1.723 -0.2029  0.4179 -0.1249
31826W        W47720   9.026  12.773   3.472  0.0684  0.0162 -0.3815
31827W        W47721  18.925  13.361   3.662  0.0814 -0.0689  0.2920
31828W        W47722   5.816  18.451   5.384  0.1848  0.0413  0.1559
31829W        W47723  17.369   6.125  10.053  0.0489  0.0780 -0.2321
31830W        W47724  12.612   8.175   1.024 -0.1532 -0.0471 -0.4301
31831W        W47725  13.028   0.813   1.924 -0.0434 -0.0059  0.0207
31832W        W47726  14.014  16.566   1.819  0.0898 -0.0852 -0.1246
31833W        W47727   8.649   2.297   4.955 -0.1456 -0.3424  0.2385
31834W        W47728  14.560  15.105   4.645 -0.0221 -0.3529 -0.0242
31835W        W47729  10.836   6.124  10.707 -0.1078  0.1039  0.4118
31836W        W47730  17.802  10.131  12.487  0.1034  0.3104 -0.0174
31837W        W47731   7.070   2.992  12.740 -0.1433 -0.2985  0.0901
31838W        W47732   6.092  11.081   3.881  0.0324 -0.0383  0.1015
31839W        W47733   0.125   1.617  12.722  0.1252  0.0280  0.5606
31840W        W47734   5.642  18.834  10.857  0.2712  0.1941  0.2520
31841W        W47735   6.101   7.732  10.464 -0.1069 -0.0108  0.4109
31842W        W47736  18.137   9.508   5.058 -0.0430 -0.2485 -0.2145
31843W        W47737   3.387   1.172   0.025  0.0549  0.0587 -0.1124
31844W        W47738   2.557   4.471  13.940  0.1279 -0.1830  0.3305
31845W        W47739   8.462   9.708  11.553  0.1268  0.0269  0.0276
31846W        W47740  16.640   4.930   2.492  0.1601 -0.1094  0.0062
31847W        W47741   5.101   1.507  11.002 -0.0804  0.3773  0.3174
31848W        W47742   3.717   2.289  10.810 -0.1337  0.0953  0.0714
31849W        W47743  13.876  18.227  13.901  0.1553  0.1208 -0.0254
31850W        W47744   4.469  10.512  11.947 -0.2255  0.1062 -0.2022
31851W        W47745   4.368   0.402  10.313 -0.3198  0.3915  0.1532
31852W        W47746  15.770   5.062   3.547  0.0161 -0.3090  0.2675
31853W        W47747   9.158   1.490  10.500  0.2544  0.0665 -0.0772
31854W        W47748   6.135  15.059   0.748 -0.3359  0.1859  0.0629
31855W        W47749   8.570  14.857  13.488  0.3099  0.1844  0.3820
31856W        W47750  16.868   8.930   5.245 -0.0841  0.1871 -0.1436
31857W        W47751   0.266  17.330  11.498 -0.0066 -0.1889  0.1683
31858W        W47752   2.992   6.312   1.577 -0.3662 -0.0118 -0.1101
31859W        W47753  12.937   5.186   2.834 -0.0168  0.0266 -0.0678
31860W        W47754  17.921   5.597   0.149  0.1403  0.0233 -0.5078
31861W        W47755   2.159   3.570  13.683 -0.0645 -0.3691 -0.1320
31862W        W47756  16.890  10.627  12.059 -0.1143 -0.0454  0.1688
31863W        W47757   9.187   8.653  14.828  0.3252  0.0291 -0.2648
31864W        W47758   0.373  12.450  12.957 -0.0805  0.1806  0.3068
31865W        W47759  15.417   4.095   5.551 -0.1658 -0.1270  0.1619
31866W        W47760  13.883  17.578  14.286 -0.1024  0.2319 -0.2664
31867W        W47761   8.594   9.755  12.090  0.0888 -0.2947  0.4402
31868W        W47762   8.696  11.947   3.588  0.1610  0.1486 -0.1422
31869W        W47763  16.843   4.901  11.810 -0.0906 -0.0683 -0.1612
31870W        W47764   8.054  16.124   4.179 -0.0430  0.4169  0.1232
31871W        W47765  13.908  16.933  12.286 -0.3507 -0.0604 -0.0901
31872W        W47766   1.652   1.122   0.548  0.1661 -0.0060  0.1286
31873W        W47767  11.056  11.533  12.077  0.3938 -0.1990 -0.1017
31874W        W47768  13.176  16.905  12.708  0.2924  0.3722 -0.1609
31875W        W47769   8.459   7.787   3.527 -0.1059  0.0457 -0.0947
31876W        W47770  12.617   4.241   1.960  0.0555 -0.2049  0.0683
31877W        W47771   9.003   8.337   2.448 -0.1142  0.2461  0.1640
31878W        W47772  17.768  16.889   2.304  0.0199 -0.2321 -0.0273
31879W        W47773   6.006  13.177   1.265  0.1884 -0.3408 -0.3126
31880W        W47774   2.678   0.538   4.129  0.1423  0.2837  0.0361
31881W        W47775  10.262   5.492  15.192  0.1222  0.4475 -0.2426
31882W        W47776  11.423  14.611   0.823  0.1822 -0.0028 -0.0666
31883W        W47777   5.941  16.961   3.903  0.0368 -0.2008  0.3024
31884W        W47778   6.798  16.878   5.389 -0.1635 -0.1593 -0.0818
31885W        W47779   2.691  10.748  11.565  0.0864  0.1501  0.1257
31886W        W47780  18.621   3.192   0.249  0.0400 -0.0447  0.0344
31887W        W47781   8.918  10.096  10.716  0.2714  0.1141 -0.1498
31888W        W47782  11.456   5.785  14.330  0.0005  0.0447  0.5030
31889W        W47783   3.183   5.655  13.603  0.0707 -0.4548 -0.0462
31890W        W47784  13.448  19.133  11.798 -0.2718 -0.3193  0.0606
31891W        W47785  14.737   1.178   2.809 -0.3446 -0.1694  0.2306
31892W        W47786  13.947  13.960   0.157 -0.3994  0.3095  0.2394
31893W        W47787  14.383   2.576   2.295 -0.2346 -0.1006  0.1933
31894W        W47788  15.067   8.417   2.184  0.1352  0.0866  0.1578
31895W        W47789   8.494  14.384   3.399  0.1675 -0.0483  0.3181
31896W        W47790  16.738  12.999  14.980  0.0550  0.0216  0.1613
31897W        W47791  14.521  18.685   4.352 -0.0893 -0.1080  0.2823
31898W        W47792   8.170   1.284   2.987 -0.0959  0.2059  0.0778
31899W        W47793   4.536  13.598   5.853 -0.0234 -0.3615  0.1054
31900W        W47794   3.164   4.321   1.618 -0.0478 -0.0068 -0.1756
31901W        W47795   3.266   6.366  12.967  0.1602 -0.2895  0.2947
31902W        W47796  13.657  17.481  13.072 -0.0792  0.1034  0.1862
31903W        W47797  12.926   2.718  13.029 -0.3408 -0.2733  0.0292
31904W        W47798  16.894  11.688  11.109  0.0119 -0.2192 -0.0476
31905W        W47799   9.349  11.071  10.877 -0.2720 -0.0388  0.0217
31906W        W47800  14.257  13.090   3.681  0.1134 -0.1889  0.0051
31907W        W47801  10.743   8.160   1.351  0.1542  0.0695  0.1131
31908W        W47802   9.797  17.621  14.114  0.1771 -0.2578 -0.0419
31909W        W47803  15.339   3.517   6.060 -0.0828 -0.0198 -0.1293
31910W        W47804  11.438   7.545   1.230 -0.0570  0.3173  0.0312
31911W        W47805  17.282  13.722   2.425  0.1783  0.2841  0.2526
31912W        W47806  10.447   7.066   1.938 -0.0231 -0.1845 -0.0785
31913W        W47807  18.983  18.810   3.000 -0.2707 -0.0058 -0.0525
31914W        W47808  13.956  14.675  14.309 -0.0677  0.0161 -0.1488
31915W        W47809   7.460   8.442   3.188  0.1750  0.0852 -0.1518
31916W        W47810  12.597  12.236   3.910 -0.2447  0.2258 -0.2120
31917W        W47811   3.176  13.105  15.103  0.3500  0.0906 -0.0673
31918W        W47812  14.572   7.372  11.297 -0.0957 -0.0246 -0.0434
31919W        W47813   5.224   9.456  14.548  0.3212 -0.0013  0.0484
31920W        W47814   7.800   2.615  10.137 -0.1814 -0.0570 -0.0285
31921W        W47815   7.445   2.454  10.445 -0.0407 -0.2667 -0.0156
31922W        W47816   0.759  13.877   1.385 -0.4536  0.1474 -0.0122
31923W        W47817  13.170  11.048   0.519  0.0512  0.0149 -0.0809
31924W        W47818   2.973  17.736  11.149 -0.0791 -0.2219 -0.0899
31925W        W47819  18.343  16.368   3.241  0.0448  0.0807  0.1213
31926W        W47820   5.273  10.322  14.978 -0.2180 -0.2618 -0.0353
31927W        W47821   0.309   2.002   3.461  0.1167  0.2459  0.0807
31928W        W47822  15.786  12.287  14.095 -0.0213 -0.4306 -0.1656
31929W        W47823   3.958   5.101   0.404 -0.2896  0.1079  0.1991
31930W        W47824  15.794  13.504   4.741  0.1637 -0.0026 -0.0259
31931W        W47825  14.264   0.372  12.306 -0.1475 -0.0380  0.1361
31932W        W47826  16.278   9.553   0.554 -0.0739  0.0545  0.1378
31933W        W47827   5.377   0.700  10.242  0.2200 -0.1585  0.2901
31934W        W47828  16.898  10.605  13.588 -0.1159  0.0884  0.0039
31935W        W47829  18.584  15.627   1.402 -0.5346 -0.1708 -0.0879
31936W        W47830   2.116   3.264  11.274  0.0273 -0.0911  0.1969
31937W        W47831  18.163   2.173   4.205  0.0713 -0.1648  0.0047
31938W        W47832   1.693  15.134   4.853  0.2362  0.1203 -0.2072
31939W        W47833   3.458   0.517   0.545  0.2051 -0.0333  0.1683
31940W        W47834   5.416  18.205   1.443 -0.0364 -0.3167  0.2210
31941W        W47835   5.178   4.946   3.447  0.4293 -0.1016  0.3815
31942W        W47836   7.263  13.911  10.030 -0.1809 -0.1138  0.1170
31943W        W47837   9.922   3.174  10.835 -0.1316  0.0952 -0.0565
31944W        W47838  11.797  16.343   0.728  0.0281  0.0654  0.0770
31945W        W47839   0.772  10.885   3.614  0.1014 -0.1330 -0.1852
31946W        W47840  12.853   8.151   5.876 -0.3484 -0.0119  0.0348
31947W        W47841  10.839  17.596  13.104 -0.0204  0.1411 -0.1631
31948W        W47842   3.572  11.708   5.946  0.0042  0.0236  0.0464
31949W        W47843  13.569  17.844   4.703  0.0923  0.0168 -0.1206
31950W        W47844   6.568   5.022  13.620  0.0979 -0.0353 -0.1662
31951W        W47845   8.331  12.275  11.864 -0.2348 -0.2089 -0.0613
31952W        W47846  12.131  13.973  14.961  0.2370  0.2400 -0.1012
31953W        W47847  12.073  18.943  13.906  0.0741 -0.0419 -0.2779
31954W        W47848   9.722  16.452   0.845  0.0188 -0.1376  0.0180
31955W        W47849  12.836   1.781   4.378 -0.1029  0.3436  0.2928
31956W        W47850  17.320  13.967  14.391 -0.1724 -0.2726  0.0780
31957W        W47851  12.568   0.961  13.220  0.2564 -0.0698 -0.2452
31958W        W47852   8.551  13.526  13.909  0.0323 -0.1241  0.0074
31959W        W47853   0.584  19.035   5.508 -0.0258  0.0069 -0.2008
31960W        W47854   4.382  14.457   2.947 -0.2041 -0.1347 -0.1578
31961W        W47855   6.707  12.349   5.375  0.1925 -0.1181  0.2148
31962W        W47856   3.651   5.748   0.381 -0.1482  0.1268 -0.1159
31963W        W47857   6.546  13.775   1.000  0.1501 -0.0928 -0.0309
31964W        W47858  11.583  16.630   1.795 -0.1437  0.2341  0.2079
31965W        W47859  11.051   6.576   1.163 -0.0773  0.3509 -0.0564
31966W        W47860   6.040  10.870   5.502 -0.1041 -0.1078 -0.1893
31967W        W47861   8.785  10.837   4.854  0.2840  0.1578 -0.3617
31968W        W47862   2.579  10.752   3.590  0.5118  0.1423  0.1747
31969W        W47863   4.871  14.134  10.466 -0.1055  0.0907 -0.1355
31970W        W47864   8.273   2.526  10.987  0.0852 -0.1377 -0.1907
31971W        W47865  18.234   8.912  12.620  0.1683  0.0872 -0.3598
31972W        W47866   6.624   5.613  13.491 -0.1185  0.0127  0.1237
31973W        W47867   6.932   7.825  13.602  0.1092 -0.1314 -0.0654
31974W        W47868   1.434   4.750  11.818 -0.3995  0.2390 -0.0598
31975W        W47869   6.493   4.431  13.108  0.0570 -0.3264 -0.1951
31976W        W47870   3.040   8.886  13.368  0.3245  0.1156  0.0063
31977W        W47871  10.711  17.113  10.879  0.2846 -0.3104 -0.0923
31978W        W47872   1.640   1.131  11.304  0.1381  0.1720  0.2047
31979W        W47873   1.092   9.369   0.629 -0.0665 -0.3692  0.0317
31980W        W47874   6.904  10.917   4.039  0.2067 -0.0106 -0.1933
31981W        W47875  18.198   7.254   3.219  0.3456 -0.0636  0.1482
31982W        W47876   4.858  10.085  13.458 -0.2097 -0.0767 -0.2639
31983W        W47877  12.674   1.128   1.704 -0.3084 -0.2038 -0.0089
31984W        W47878   7.107   5.774  13.291  0.2149 -0.2123  0.2358
31985W        W47879   9.088   6.565  12.335  0.1113  0.1023 -0.1213
31986W        W47880   7.762  12.545   1.109  0.4781  0.2907 -0.0137
31987W        W47881  10.873   8.139   3.773 -0.0131 -0.3806  0.0923
31988W        W47882   4.359   0.572  13.196  0.2814 -0.2423  0.1727
31989W        W47883  17.511  11.671  12.578  0.0121  0.0843  0.0872
31990W        W47884  16.015   7.129  11.675  0.0774 -0.0397 -0.0366
31991W        W47885   7.376  10.801  10.535 -0.0008  0.2231  0.0554
31992W        W47886   6.884  11.977   5.069  0.0788 -0.0164 -0.1495
31993W        W47887  11.620   4.222  11.973 -0.0364  0.3371  0.1643
31994W        W47888   3.591   3.929   1.565  0.0546 -0.0180  0.1304
31995W        W47889  14.065   3.993   3.163 -0.0374 -0.1367  0.0989
31996W        W47890  17.442   0.981   1.473  0.0309 -0.3484  0.1381
31997W        W47891   1.927  12.205   3.030  0.2092  0.0226  0.1850
31998W        W47892  18.366   5.846  14.537 -0.0077 -0.0553  0.1345
31999W        W47893   1.414  14.208   2.812 -0.0903 -0.3483  0.1739
32000W        W47894   7.644   4.888  11.881  0.0739  0.1667 -0.0591
32001W        W47895   6.349   2.291   0.628 -0.0907 -0.1123 -0.1837
32002W        W47896  14.513   4.731  13.537 -0.0264  0.0252 -0.1023
32003W        W47897  13.520  15.754   5.223  0.3639  0.1517  0.0715
32004W        W47898   0.440   9.745   4.478  0.3801  0.2609  0.1149
32005W        W47899   1.198   4.110   0.524  0.1419  0.1224 -0.1382
32006W        W47900  10.535   1.378  12.353  0.2516  0.1612  0.0239
32007W        W47901  11.651   8.392  12.879  0.1439  0.1443  0.2464
32008W        W47902   3.164   6.799   2.250  0.2857 -0.2169 -0.1851
32009W        W47903  16.614  15.353   1.136  0.0009 -0.2409 -0.0940
32010W        W47904   9.505   4.137   3.348 -0.1672  0.0969  0.2060
32011W        W47905   4.929  10.948  14.714  0.0338  0.0444 -0.0977
32012W        W47906   0.868  13.159  14.134 -0.2045  0.0362  0.2191
32013W        W47907   7.221  18.181   2.282  0.1289 -0.0366  0.0087
32014W        W47908   1.698   4.297   5.100 -0.2086  0.0106 -0.1184
32015W        W47909  13.117   9.416   3.922 -0.0026 -0.1466 -0.2600
32016W        W47910   3.696  16.911   0.240 -0.2665  0.2967 -0.0617
32017W        W47911  14.216   3.530   3.580  0.2121 -0.1651 -0.0596
32018W        W47912   5.064  14.873   2.907 -0.1521 -0.6919  0.0418
32019W        W47913   7.656  11.755   3.454  0.0331  0.0041 -0.0857
32020W        W47914   5.178  13.192   2.627 -0.1200  0.3888  0.3697
32021W        W47915  10.733  18.807   3.358 -0.2243  0.0425  0.2099
32022W        W47916   0.752  17.358  11.701  0.2580 -0.3004 -0.0567
32023W        W47917  11.925  13.891   4.002 -0.1271 -0.1689  0.0553
32024W        W47918   3.065   8.737  11.714 -0.0266  0.0359  0.1247
32025W        W47919   7.522   2.034   3.594 -0.0576  0.3573 -0.0621
32026W        W47920   0.728   6.691  10.161  0.2099  0.1740 -0.0145
32027W        W47921   8.849   0.644   1.398 -0.0761 -0.2291 -0.2282
32028W        W47922  10.400  17.594   5.317  0.0148  0.0301  0.3424
32029W        W47923  10.723  17.542  14.143 -0.1221  0.1845  0.0405
32030W        W47924   9.364  17.043  12.846  0.1667  0.1455 -0.1111
32031W        W47925  18.691   4.799   2.357  0.3574  0.3461  0.1592
32032W        W47926   6.278  10.180   3.027  0.0322 -0.0848 -0.0873
32033W        W47927   3.838  14.167  11.690  0.2059  0.2141 -0.2336
32034W        W47928  17.953   4.812   4.362  0.1211  0.3008  0.1688
32035W        W47929  14.472   9.579   3.931  0.4872  0.0484 -0.0206
32036W        W47930   8.301  15.155  13.808  0.0228  0.2369  0.0739
32037W        W47931   2.716   8.317  14.558 -0.2249  0.0250  0.0024
32038W        W47932   7.538   3.001  10.359  0.4138  0.2858 -0.2899
32039W        W47933   2.972   7.872  13.786  0.1830  0.5885 -0.3578
32040W        W47934  18.354   0.051   0.307 -0.3128 -0.2122 -0.0962
32041W        W47935   8.399   2.670  12.358  0.1253  0.0681  0.0878
32042W        W47936   3.851  13.811   4.979  0.1672  0.2130 -0.1928
32043W        W47937   6.066   2.530   4.681  0.1506  0.5814 -0.0654
32044W        W47938   0.320   3.796  11.236 -0.1691  0.0903 -0.2581
32045W        W47939  16.753   7.675   0.517 -0.1290  0.1956  0.5573
32046W        W47940  17.280   3.052   0.424  0.5041  0.0565  0.2429
32047W        W47941  13.079   6.998   2.401 -0.1663  0.1591 -0.2030
32048W        W47942  15.588   6.629  13.495 -0.0123  0.0251  0.0383
32049W        W47943  12.948   7.378  10.906 -0.1603  0.0346 -0.0554
32050W        W47944  15.165   7.456   5.057  0.1740  0.0649  0.0172
32051W        W47945   5.656   4.295   2.276  0.2094 -0.2292  0.0598
32052W        W47946  16.758   3.965  11.988 -0.1791  0.1918  0.0226
32053W        W47947   3.320   7.136   3.095  0.3251 -0.1056 -0.1801
32054W        W47948   2.772   2.045  12.595  0.0212  0.0410  0.0167
32055W        W47949   5.201  11.968   4.859  0.0624 -0.2000  0.2370
32056W        W47950   6.928   1.010   2.110 -0.5106  0.2385 -0.2585
32057W        W47951  15.199   6.883   5.052  0.3194 -0.1602 -0.0313
32058W        W47952  15.159   1.582  12.348 -0.2466 -0.1168 -0.1410
32059W        W47953   5.495  13.024   4.631 -0.3564  0.1301 -0.1356
32060W        W47954  13.079   9.104   5.051  0.2929 -0.2263  0.1255
32061W        W47955   1.372   1.963   1.055 -0.0361  0.1441  0.0316
32062W        W47956   9.725   9.186  14.112  0.1881 -0.2780  0.0046
32063W        W47957  13.408  14.887  12.529  0.0925  0.0029  0.5450
32064W        W47958   0.185  15.542   3.346 -0.1908  0.0255  0.1832
32065W        W47959  14.069   0.744  13.624 -0.4728  0.0381  0.0826
32066W        W47960  15.944  15.654  11.892 -0.2589 -0.0404  0.1575
32067W        W47961  14.885   8.264   1.136  0.0598 -0.2195 -0.1450
32068W        W47962   2.818  14.383  14.355 -0.1771  0.0234  0.2170
32069W        W47963   5.035   3.885  13.374 -0.0743  0.1982 -0.1863
32070W        W47964  12.524  18.655   3.543 -0.1453  0.0389 -0.3140
32071W        W47965  18.019  14.981  11.278 -0.0603 -0.4027  0.1726
32072W        W47966   8.196  17.476   1.546 -0.0863  0.0264  0.0986
32073W        W47967   0.659   3.704  10.313  0.0769 -0.0446  0.3013
32074W        W47968  14.398  12.692   3.917 -0.1012 -0.2626 -0.3726
32075W        W47969  18.308   0.376  12.750  0.0547 -0.2503  0.1108
32076W        W47970   9.149  16.566  10.744 -0.2535 -0.1724  0.1328
32077W        W47971  12.997  16.613  10.940 -0.0419  0.1058  0.0479
32078W        W47972  17.062   3.491   3.385  0.1850  0.3673  0.0849
32079W        W47973   9.110  11.431   8.986 -0.1497  0.2491 -0.3538
32080W        W47974   6.205   4.349   2.452  0.1285  0.1383  0.0275
32081W        W47975  17.303  16.944  14.409  0.2822  0.2658 -0.0684
32082W        W47976   6.667  10.905  14.614  0.2605 -0.0835  0.0570
32083W        W47977   7.163   7.623   2.094  0.0879 -0.1770 -0.1464
32084W        W47978  16.688  17.794   2.868 -0.0237 -0.0737  0.1932
32085W        W47979   9.356  17.658   1.894 -0.1025  0.1979  0.3895
32086W        W47980   1.467  15.222   1.514  0.2330  0.1718 -0.1282
32087W        W47981  10.916  18.334   3.460 -0.1154  0.5303 -0.0836
32088W        W47982   4.647  17.114   4.373 -0.1062 -0.2046  0.0289
32089W        W47983   6.948  15.275  14.922 -0.0413 -0.0960  0.1646
32090W        W47984   3.259  15.804   4.786  0.1563 -0.0242  0.1783
32091W        W47985  16.406   4.042   4.835 -0.2763  0.0519  0.1857
32092W        W47986  12.132   6.436   5.753 -0.1834  0.1754 -0.0723
32093W        W47987   8.315  16.864  11.234  0.1359 -0.0064 -0.0344
32094W        W47988  12.419  18.585  13.820  0.1334 -0.1400  0.2278
32095W        W47989   7.922   9.519   4.986 -0.0597 -0.0605 -0.2526
32096W        W47990   4.904  14.625  14.090 -0.1392 -0.2641 -0.2251
32097W        W47991   9.207   4.596   2.940  0.2858 -0.3083 -0.1872
32098W        W47992  13.837   5.711  14.804  0.0644  0.0855  0.0739
32099W        W47993   3.285   8.113   0.328  0.3214 -0.2287 -0.2168
32100W        W47994  11.617  15.467  13.915 -0.1503 -0.3006  0.0434
32101W        W47995   1.939  13.232   3.729  0.1975 -0.0269  0.3257
32102W        W47996  12.693   8.253   3.088 -0.1258 -0.4105 -0.3080
32103W        W47997  12.936   0.990  12.802  0.0810 -0.2101  0.0125
32104W        W47998   2.163   2.924  11.609  0.1270 -0.2311 -0.2749
32105W        W47999   4.558   7.794   9.624  0.2544 -0.0242  0.2594
32106W        W48000   4.799   1.378   0.208  0.1575  0.2260 -0.0397
32107W        W48001  15.969  12.453   0.223 -0.1017  0.0925  0.2660
32108W        W48002   5.600   5.565   2.784 -0.4744  0.3232 -0.1001
32109W        W48003   6.417  17.992  14.376  0.3244 -0.0707 -0.0802
32110W        W48004   5.814   2.933  11.953  0.0492  0.2280 -0.3014
32111W        W48005   8.587  15.644   0.815 -0.1093  0.0885 -0.1428
32112W        W48006   9.263   5.240  12.601  0.1389 -0.0042  0.0179
32113W        W48007   5.952   8.512   9.905 -0.1068  0.1013  0.4222
32114W        W48008   6.926   8.297  13.341  0.2510 -0.3296  0.1545
32115W        W48009  11.116  15.065  12.064  0.0725  0.2114  0.0711
32116W        W48010   3.833   2.181   5.180 -0.0954 -0.4374  0.0183
32117W        W48011  15.452   8.155   1.816  0.0470  0.4675  0.0884
32118W        W48012   6.389   7.058   3.881  0.2061 -0.0424  0.0143
32119W        W48013   2.648  18.476  13.356 -0.1602  0.0137 -0.2576
32120W        W48014   6.031  18.573   3.190 -0.0890 -0.1522 -0.1062
32121W        W48015   1.260  14.969   4.588  0.0253  0.4093 -0.1792
32122W        W48016  16.400   2.065   4.761  0.0515  0.1208  0.0052
32123W        W48017  17.364  11.334   0.782  0.0800 -0.1260  0.2483
32124W        W48018  17.862   1.196   3.289 -0.0018 -0.0736 -0.1877
32125W        W48019  18.485   1.148   0.328 -0.4022  0.0457 -0.2179
32126W        W48020   0.728  17.477   3.573  0.3779 -0.4405 -0.1342
32127W        W48021   0.981   7.459  14.097 -0.2287  0.2574 -0.0639
32128W        W48022   6.758   1.737  12.605  0.0369 -0.0024 -0.1553
32129W        W48023   9.906  11.832  10.164  0.0799 -0.0337 -0.2155
32130W        W48024  13.017  18.705  14.520  0.2357 -0.0033 -0.0343
32131W        W48025   5.044  10.980   2.034  0.1710 -0.4232 -0.1941
32132W        W48026  12.412  11.400  10.408 -0.0745  0.0195  0.0502
32133W        W48027   3.412   0.142   4.508 -0.0566  0.2084 -0.1352
32134W        W48028   2.647  12.458   0.238 -0.0860 -0.0528  0.1954
32135W        W48029  16.647   7.054  13.312 -0.1510  0.2844  0.1318
32136W        W48030   2.889  14.086  13.466 -0.0031 -0.1562  0.3586
32137W        W48031   4.556  16.802   5.136 -0.2392 -0.0469  0.2351
32138W        W48032  13.364   2.087  12.527  0.0563  0.1016  0.2323
32139W        W48033   0.670   1.007  11.219  0.4497 -0.0153 -0.0560
32140W        W48034  19.038  13.200  15.152  0.0799 -0.1440  0.3128
32141W        W48035  14.096  15.388   0.267  0.0060  0.0742 -0.0106
32142W        W48036   7.213   5.321   0.546 -0.3833  0.0033 -0.0062
32143W        W48037  16.884   7.625  14.223  0.0833 -0.0791  0.1078
32144W        W48038  11.836   9.862  10.586  0.2427 -0.2275  0.1218
32145W        W48039   7.698  12.888  11.335 -0.0996  0.1517 -0.1365
32146W        W48040   3.316   3.860   5.294  0.0710  0.0184  0.1487
32147W        W48041  17.787   1.639   3.613 -0.1944  0.0183 -0.3507
32148W        W48042   1.079  14.335   2.302 -0.3569  0.1294 -0.5929
32149W        W48043  17.027   6.365   5.252 -0.1716  0.1106  0.1208
32150W        W48044   5.054  16.598   3.820  0.0915  0.3584 -0.1510
32151W        W48045   8.606  14.470  11.685 -0.2277 -0.2933  0.0581
32152W        W48046  13.227   8.858   3.703 -0.0792  0.3235 -0.2703
32153W        W48047  16.691   8.895  14.594  0.4344 -0.1908  0.1335
32154W        W48048  19.087   4.897   5.044 -0.1346  0.1935  0.1002
32155W        W48049   0.451  17.056  14.073 -0.2663  0.1281  0.0325
32156W        W48050   3.048   1.817  14.177  0.3611  0.0588  0.0136
32157W        W48051   3.211   4.652   2.788  0.0906 -0.3938 -0.2773
32158W        W48052   7.508  15.765  11.827 -0.0056 -0.2590  0.2472
32159W        W48053  11.740   6.820   2.495  0.2421 -0.0239  0.2046
32160W        W48054  14.540   6.067   2.510 -0.2739 -0.0610 -0.1396
32161W        W48055   4.988   7.365   4.462 -0.2884  0.0330  0.0053
32162W        W48056  16.793  14.036   1.482 -0.2063  0.0314  0.0117
32163W        W48057   1.637   2.941   1.427 -0.1294  0.0047  0.2432
32164W        W48058   9.302  12.446  11.853 -0.2397 -0.0315 -0.3696
32165W        W48059  13.813  11.481   2.698 -0.1973  0.0887 -0.2105
32166W        W48060   8.643   2.126  13.552 -0.0193  0.1879 -0.3163
32167W        W48061  17.828  19.064   2.229 -0.3563  0.3475  0.1470
32168W        W48062   4.936  18.572   0.060 -0.1808  0.2186  0.1325
32169W        W48063  14.230  14.904  12.782 -0.0658  0.1315  0.3068
32170W        W48064   8.491  13.028  11.761 -0.0633 -0.1157  0.0346
32171W        W48065  14.000   8.912   1.477  0.1104  0.0897 -0.3029
32172W        W48066  14.410  15.239  11.468 -0.1218  0.2516 -0.0661
32173W        W48067   5.887  11.133   2.881 -0.0483  0.1293 -0.0833
32174W        W48068   3.460  16.538  13.893 -0.1274  0.3868 -0.1721
32175W        W48069   8.250   5.685   0.667 -0.1596 -0.0160 -0.1575
32176W        W48070  11.724  15.842  13.383 -0.0639 -0.5361 -0.2684
32177W        W48071  13.228  11.328   4.719  0.0478  0.2219  0.2142
32178W        W48072  13.452  15.701   1.357  0.3188 -0.0725  0.0372
32179W        W48073  13.932   9.405   0.011  0.3326  0.2717 -0.0203
32180W        W48074   4.868   2.785   9.853  0.0934  0.0447 -0.0309
32181W        W48075  12.797  13.794  13.351  0.3262  0.1317  0.2323
32182W        W48076   7.297   7.729   1.145 -0.0053  0.1853 -0.1723
32183W        W48077   4.953   6.081  12.718 -0.0989  0.0532 -0.0696
32184W        W48078  17.699   5.866   4.041 -0.2337 -0.0257  0.0097
32185W        W48079  16.351  10.158   1.494  0.0154 -0.0520 -0.1349
32186W        W48080   1.031   6.450  12.602 -0.2640 -0.2388  0.0587
32187W        W48081   5.242   8.634   0.003 -0.1460  0.0605 -0.1556
32188W        W48082   2.538   8.131   2.745  0.1705 -0.0989  0.2481
32189W        W48083   6.382  13.987   0.600 -0.1736  0.2237 -0.0138
32190W        W48084   9.046   5.954   4.794  0.2989  0.0049 -0.1590
32191W        W48085   0.076  17.245  10.621 -0.1537 -0.1178  0.0701
32192W        W48086   9.276  18.025  12.450  0.1023  0.0939 -0.1691
32193W        W48087  13.723   2.398  14.577 -0.0547  0.0792 -0.1212
32194W        W48088   4.790  18.180  13.975 -0.0837 -0.0529  0.2186
32195W        W48089   6.491  17.185  12.541 -0.0030 -0.1324 -0.0457
32196W        W48090  19.145   3.871   1.389 -0.0522 -0.0200 -0.0375
32197W        W48091  14.215   9.197   1.859 -0.1905 -0.1758  0.0380
32198W        W48092   9.522  14.546   4.017  0.5347  0.1079  0.1737
32199W        W48093  17.910   7.748   3.515 -0.1371 -0.3571 -0.0740
32200W        W48094  17.108   2.592   0.290 -0.2828  0.1498 -0.1139
32201W        W48095  16.633  16.576   3.236 -0.0010  0.1162 -0.2356
32202W        W48096   2.823   8.839  10.799 -0.0932  0.1961 -0.0630
32203W        W48097   1.130  12.447   2.093 -0.0822 -0.1058  0.0419
32204W        W48098   8.033   7.214   2.799 -0.0484 -0.4695  0.4562
32205W        W48099  17.735  15.580   2.123  0.1031  0.1657  0.0844
32206W        W48100  17.420   8.559   0.751 -0.1450 -0.0881  0.1644
32207W        W48101   8.243   1.749  12.325  0.0651 -0.1268  0.1504
32208W        W48102  17.156  19.075  12.159  0.0509  0.1024 -0.1541
32209W        W48103   2.274   5.873   3.884 -0.0182 -0.0604  0.0310
32210W        W48104  15.006   0.948  11.740  0.2218 -0.2411  0.0552
32211W        W48105   0.687   1.925  11.258 -0.3823  0.0959 -0.2380
32212W        W48106  13.382   8.028   0.737  0.0565 -0.2642  0.1878
32213W        W48107   1.042   3.306  13.514 -0.0218  0.2079 -0.0494
32214W        W48108  16.054  14.873  11.326 -0.0603 -0.1517 -0.0535
32215W        W48109  13.822  16.482  13.840  0.1369 -0.0661  0.0546
32216W        W48110  15.265  11.272   0.301 -0.0768  0.3290  0.1893
32217W        W48111   1.718   6.200   9.934 -0.1461 -0.3492 -0.0532
32218W        W48112   3.862   7.256   4.277 -0.0574 -0.1381  0.4956
32219W        W48113   9.042   3.365  13.534  0.1179  0.0333 -0.0992
32220W        W48114  18.142   1.621   2.618 -0.2281 -0.1525  0.0356
32221W        W48115  12.601   7.526   1.743  0.0300  0.0880 -0.1345
32222W        W48116   3.923  14.782   0.222  0.0177  0.2661 -0.0734
32223W        W48117  14.274   1.399  14.936 -0.1506  0.3391  0.2309
32224W        W48118   2.577   4.422   1.372  0.2888 -0.3189 -0.0460
32225W        W48119   0.225   2.704   1.991  0.0768 -0.0192  0.1452
32226W        W48120   4.008   2.857   3.916  0.2844 -0.1430 -0.2553
32227W        W48121   4.163   7.630  12.780  0.2584 -0.1232  0.0868
32228W        W48122  17.823   0.752   1.312 -0.2677 -0.1814  0.1540
32229W        W48123  13.256  12.911   3.090 -0.2191 -0.2758  0.0572
32230W        W48124   9.640   9.708  12.770 -0.2202 -0.1425  0.0090
32231W        W48125  14.095  11.641  11.221  0.2459  0.0356  0.0649
32232W        W48126  11.421   0.716   3.392 -0.0500  0.2759  0.2406
32233W        W48127   5.937   5.960  10.685 -0.2078  0.0672  0.0384
32234W        W48128   1.190   4.719  10.394 -0.0897 -0.1167 -0.0222
32235W        W48129   7.908  11.283  10.800 -0.1164  0.0608  0.0943
32236W        W48130   4.642  15.942   1.879  0.2401  0.0597 -0.1125
32237W        W48131  11.263   0.859   4.667 -0.0471  0.3243  0.0005
32238W        W48132  17.849   5.395  13.338  0.1268 -0.0062  0.3945
32239W        W48133  11.898   8.411   4.372 -0.1188  0.2834 -0.0222
32240W        W48134   9.681  14.291   1.982 -0.1723  0.0873  0.0324
32241W        W48135   6.496  13.862   4.993  0.0406  0.1342  0.1875
32242W        W48136   3.883   0.842   3.791  0.1684  0.0187  0.0545
32243W        W48137  10.862   7.839  10.523 -0.0904 -0.2619 -0.0681
32244W        W48138  11.870   9.696   0.203 -0.1569  0.2357 -0.2419
32245W        W48139  13.128   4.308   0.521 -0.2264  0.1111 -0.0846
32246W        W48140  13.025  17.543  11.042 -0.0277 -0.5064 -0.0735
32247W        W48141   3.024  10.092  13.880 -0.1169  0.3132 -0.3727
32248W        W48142  13.431   1.630   2.363 -0.2137 -0.2256  0.0577
32249W        W48143  14.318   6.540  11.125 -0.1931 -0.1583  0.0536
32250W        W48144  18.536   7.004  14.478  0.1970 -0.2741 -0.1448
32251W        W48145  18.146   1.701  14.609 -0.3629  0.0147 -0.0965
32252W        W48146  15.551   6.211   2.412 -0.2108 -0.0292  0.0965
32253W        W48147  17.977   8.658  15.067  0.0399 -0.3706  0.2218
32254W        W48148  17.439   4.841  12.514  0.1496 -0.0243 -0.1198
32255W        W48149   3.627  11.582   4.563  0.2108 -0.0927 -0.1474
32256W        W48150  14.759   8.351  10.620  0.0245  0.0610 -0.1598
32257W        W48151   2.359  15.408   0.461  0.2506 -0.1450  0.0086
32258W        W48152   7.767   7.687  12.460 -0.1896 -0.0245 -0.1060
32259W        W48153  13.219  12.472   3.959 -0.2565  0.1967  0.0342
32260W        W48154  11.853   8.602   0.573 -0.1340 -0.0282  0.0054
32261W        W48155  15.311   9.902   9.898  0.1102  0.2055  0.0897
32262W        W48156   0.381  16.151   4.130  0.1147  0.0579 -0.0354
32263W        W48157  18.960  18.982   0.713  0.2093  0.1802  0.0142
32264W        W48158   6.111  15.330  11.382 -0.1281  0.1762  0.0171
32265W        W48159  16.685   7.657  13.001 -0.2040  0.1916  0.0085
32266W        W48160   0.726   9.903  12.212  0.0847  0.0368 -0.1926
32267W        W48161  14.741  17.122   1.853  0.0296  0.3612 -0.0415
32268W        W48162  17.124  15.702  15.181 -0.0355  0.0433  0.1297
32269W        W48163  17.317   8.163   4.692  0.0477 -0.1472 -0.2228
32270W        W48164  15.570   5.388   4.807 -0.1850  0.2005  0.2535
32271W        W48165   6.295  16.248   1.388 -0.1676 -0.1920  0.1969
32272W        W48166   5.732   0.502  15.148  0.1954 -0.0561  0.1296
32273W        W48167  14.389  11.377   5.485 -0.0866 -0.0570  0.0287
32274W        W48168  10.192  10.561   2.911 -0.1853  0.1849 -0.0881
32275W        W48169  15.280  18.638   3.509  0.2965 -0.0045 -0.0794
32276W        W48170   9.778  17.676  12.728 -0.0710 -0.2540 -0.1128
32277W        W48171   6.529  11.106   4.767 -0.0097  0.0656  0.1172
32278W        W48172  14.277   9.789   0.465 -0.1296 -0.0502 -0.1993
32279W        W48173   3.147  17.870  14.700 -0.0533 -0.1540 -0.1517
32280W        W48174   7.958  14.450   3.857 -0.4627 -0.0948 -0.2966
32281W        W48175  14.300   6.446   5.252  0.0441  0.2230  0.1198
32282W        W48176  17.870   8.107  13.479  0.0819  0.2170  0.1073
32283W        W48177   0.885   1.622   4.370  0.2100 -0.3489  0.3059
32284W        W48178  16.436   5.604  11.288 -0.1332  0.1390 -0.0649
32285W        W48179  10.371  11.303   0.882  0.3560  0.2941  0.3443
32286W        W48180  17.551  11.191  14.768  0.1666 -0.2544 -0.0805
32287W        W48181  11.131  17.529  11.951 -0.3655 -0.1321  0.2298
32288W        W48182   9.196  18.509  12.664  0.0371 -0.0881  0.2130
32289W        W48183   9.998   0.851  13.056 -0.3953 -0.2208  0.2028
32290W        W48184  10.144  10.808   1.935  0.2804 -0.1214  0.2482
32291W        W48185  10.147   9.525  14.278  0.0440 -0.0643  0.2100
32292W        W48186   1.190  13.959  13.435  0.3146 -0.1585 -0.2062
32293W        W48187   7.623  16.632  12.972 -0.0680 -0.1945  0.1539
32294W        W48188   5.405   4.135   1.499  0.2761 -0.0214 -0.0605
32295W        W48189   4.344   4.529   2.409 -0.1185 -0.1204  0.0126
32296W        W48190   3.785  12.567  13.482  0.3923  0.1809 -0.0026
32297W        W48191   7.919  14.435   2.574  0.3059  0.2605  0.2997
32298W        W48192  15.693  10.034   2.513 -0.5529 -0.2190 -0.0592
32299W        W48193  12.644   5.231  14.793 -0.0562 -0.0656  0.0931
32300W        W48194  13.971   5.332   1.294 -0.0254  0.2557  0.1326
32301W        W48195  11.796   6.084  10.821  0.1830 -0.0341  0.0081
32302W        W48196  17.374  11.269   4.773  0.0337 -0.0515 -0.4769
32303W        W48197  17.417   7.343  11.377  0.2327 -0.0534 -0.1607
32304W        W48198   2.677   2.617   3.874  0.2392  0.3829 -0.0430
32305W        W48199  11.183  17.020   2.726 -0.2487 -0.2189 -0.0549
32306W        W48200  18.873  14.235   5.526  0.1267 -0.0807  0.1441
32307W        W48201  17.541   8.953  13.456 -0.3219 -0.0851  0.0041
32308W        W48202   6.614  15.851  11.894  0.1877  0.1685  0.1508
32309W        W48203   9.696  18.016   4.451  0.3144  0.1677 -0.0153
32310W        W48204  11.012   1.454   1.366  0.0525 -0.1642 -0.0317
32311W        W48205   1.325   1.589  11.104 -0.0781  0.1268  0.0580
32312W        W48206  11.513   7.164  13.211  0.1088 -0.3785 -0.1879
32313W        W48207   8.821   2.963  14.763 -0.2688 -0.0025 -0.4052
32314W        W48208  17.777   0.432  12.490  0.0376  0.1297  0.1485
32315W        W48209   1.150   6.637  13.557 -0.3197  0.3265 -0.0171
32316W        W48210  11.012   4.838   3.079 -0.1991  0.1882 -0.2720
32317W        W48211  16.874   8.582   2.213  0.2054  0.1229 -0.2094
32318W        W48212  13.254  13.491  10.712 -0.1676  0.1668 -0.0038
32319W        W48213   4.285   1.911   2.588 -0.0967 -0.2058  0.0195
32320W        W48214  12.277   8.388  13.430 -0.0873  0.1571  0.0515
32321W        W48215  18.195   2.272   3.438 -0.1970 -0.3647  0.5437
32322W        W48216  15.899   6.458   0.811  0.1308  0.0318 -0.0833
32323W        W48217   1.548  15.278  11.430  0.1514 -0.0501  0.1190
32324W        W48218  17.222   6.045   3.823  0.2547 -0.4034  0.0774
32325W        W48219  18.078   0.823   0.461 -0.2491 -0.2277  0.0989
32326W        W48220   4.061  16.053  14.321 -0.0349  0.1760  0.0476
32327W        W48221   4.622  16.753  11.792  0.2067 -0.0675  0.0645
32328W        W48222   5.757   8.419   0.018 -0.1066  0.3641  0.3086
32329W        W48223  14.548  16.992   3.419 -0.2293  0.1813  0.1624
32330W        W48224   3.199   7.392  12.760  0.0237  0.2292  0.1158
32331W        W48225   9.380  11.409   3.299 -0.2055 -0.2926  0.1291
32332W        W48226   9.009  14.241   3.257 -0.1029 -0.0101  0.1699
32333W        W48227  15.448   6.069   3.907  0.1848  0.0238  0.2454
32334W        W48228   8.986  16.824  14.621 -0.0048 -0.0549  0.0943
32335W        W48229   9.186   9.398   2.608  0.0763  0.3235  0.0234
32336W        W48230   9.046  16.830  13.795  0.2315 -0.0299  0.0018
32337W        W48231  10.852  12.338   3.977  0.2243 -0.2159 -0.2864
32338W        W48232  15.096  16.457  12.189  0.2492 -0.5105  0.1418
32339W        W48233  10.882   4.134   1.179 -0.0144 -0.0368  0.2295
32340W        W48234  13.599   8.147  13.520 -0.2319 -0.0919  0.0733
32341W        W48235  16.960  10.738   2.946 -0.2875  0.1943 -0.1432
32342W        W48236  15.270   4.827   4.325  0.1456 -0.0444  0.1311
32343W        W48237  19.079   7.333  10.966  0.0984 -0.1711 -0.4698
32344W        W48238   3.974  10.651   9.694 -0.1122 -0.1314 -0.0633
32345W        W48239   2.904   9.544   0.447 -0.0202 -0.1230  0.0372
32346W        W48240   5.416   9.523   3.526 -0.4333 -0.0975 -0.2160
32347W        W48241   6.607   7.574  12.537 -0.0075  0.0593 -0.1915
32348W        W48242   7.347  12.352   0.653 -0.3591 -0.2639 -0.0614
32349W        W48243   8.871   8.325  11.575  0.3254  0.0627 -0.0173
32350W        W48244   1.943   9.163   1.131 -0.0610  0.0569 -0.1137
32351W        W48245  15.070  12.499  13.596 -0.1315 -0.1791 -0.2535
32352W        W48246   9.552  11.310   0.578 -0.1591  0.1608 -0.1318
32353W        W48247   7.097   7.615  10.787 -0.0502 -0.0612  0.0898
32354W        W48248  17.667   9.339  14.793 -0.0113  0.1661  0.0265
32355W        W48249   1.205  12.321  11.664  0.2044  0.0021 -0.0041
32356W        W48250  15.940   1.839   4.456 -0.1647 -0.0939 -0.1138
32357W        W48251   0.391  12.264  14.890  0.2111  0.0461  0.1986
32358W        W48252   8.933   0.895   3.617 -0.0515  0.0702  0.0955
32359W        W48253  12.759   5.386  14.326 -0.1630 -0.1079  0.0726
32360W        W48254   5.957   2.344  10.272 -0.0353  0.2595 -0.3314
32361W        W48255  12.966  10.382   9.883 -0.1083 -0.1246  0.3074
32362W        W48256   2.358  12.532  12.370  0.0301  0.0519  0.0578
32363W        W48257  15.020   4.200   2.127  0.0016 -0.0463  0.0996
32364W        W48258  16.919  16.234  13.043  0.0603 -0.1272 -0.2144
32365W        W48259  10.524   1.512   4.771  0.0666  0.2011  0.0705
32366W        W48260  17.238  12.669   5.029  0.0791  0.0021 -0.3132
32367W        W48261   5.618   2.085   2.907 -0.4499  0.1557 -0.1040
32368W        W48262   9.523  18.923   4.232  0.0270  0.0455  0.2954
32369W        W48263  15.971  14.396   3.926 -0.1189 -0.0829 -0.0601
32370W        W48264  11.230   2.900  10.351  0.2688  0.2740 -0.3633
32371W        W48265   1.283   1.503   2.051  0.2835 -0.1651  0.0167
32372W        W48266   1.259  12.165   0.010 -0.3645 -0.0920  0.0963
32373W        W48267  14.044  17.772  13.241 -0.1515 -0.0861  0.0019
32374W        W48268  11.954  10.920   2.579  0.2268  0.1586  0.3137
32375W        W48269   6.764  15.228   2.520 -0.2304 -0.0463 -0.0788
32376W        W48270   1.787  14.328   4.341  0.0909  0.0472 -0.2053
32377W        W48271   4.280  17.283   2.234  0.1866 -0.0567 -0.1258
32378W        W48272   4.769   7.068   9.894 -0.0195  0.2802  0.1897
32379W        W48273   7.979   7.145   1.397 -0.0453  0.0576 -0.0127
32380W        W48274  12.704   7.541  13.819 -0.1069  0.0257  0.1814
32381W        W48275   7.511  16.453  10.086  0.1285  0.0676 -0.1569
32382W        W48276   1.224   5.412   4.352 -0.1104 -0.0811  0.2073
32383W        W48277   1.648  10.259  10.751  0.0860 -0.2922  0.0739
32384W        W48278  17.246  13.323   2.146  0.0401  0.1021 -0.2387
32385W        W48279  18.116   0.901  11.645  0.3840  0.0702 -0.2718
32386W        W48280   4.007  14.099   1.424 -0.0622 -0.1331 -0.2723
32387W        W48281   3.846   6.978  10.943  0.0041 -0.2609 -0.2113
32388W        W48282  15.894  10.663   0.465 -0.0670 -0.0730  0.3892
32389W        W48283   0.104   5.086   3.107 -0.1647  0.1330  0.1831
32390W        W48284  18.459   4.119   3.932 -0.0328 -0.1130  0.2243
32391W        W48285   0.354   4.447   4.911  0.0928 -0.3520  0.2134
32392W        W48286   5.147   7.854  15.030  0.1117 -0.1217 -0.1174
32393W        W48287   2.375  13.911  13.845 -0.0791  0.2517 -0.1201
32394W        W48288  17.385   1.941   4.803  0.1024  0.0533  0.0043
32395W        W48289   8.122  10.954   0.670  0.2999  0.0353 -0.0398
32396W        W48290   5.688  12.729   1.949 -0.0448  0.0630  0.1341
32397W        W48291   7.898   5.272   0.873  0.3352  0.1139  0.1113
32398W        W48292   9.349   7.002   2.380 -0.2656 -0.2929 -0.1176
32399W        W48293  13.328   8.054   0.175  0.3852 -0.2817 -0.2014
32400W        W48294  13.695   8.024  14.055  0.1931  0.1006 -0.3162
32401W        W48295   8.627  10.858   3.409 -0.1300  0.1194  0.0137
32402W        W48296   8.399   0.029   1.022 -0.0704 -0.3498 -0.0798
32403W        W48297   1.568   5.419   2.686  0.1605 -0.3257  0.3829
32404W        W48298   5.124  14.020   0.214  0.1747  0.0701  0.0008
32405W        W48299  16.631   2.949  13.935  0.1394 -0.1128 -0.2070
32406W        W48300   9.955   8.791   3.346 -0.2369 -0.1887 -0.3743
32407ION     NA48301  14.561  13.682  11.130 -0.0910 -0.3162  0.1417
32408ION     NA48302   2.418  14.571  10.034  0.4020 -0.5422 -0.0857
32409ION     NA48303   2.356  11.488  13.404  0.0372  0.3270  0.2484
32410ION     NA48304   8.592   8.679   9.812 -0.0793 -0.0092  0.0024
32411ION     NA48305   7.439   0.035   5.087  0.1404 -0.0228 -0.2587
32412ION     NA48306   6.134   9.821  14.680 -0.0234 -0.0575 -0.2726
32413ION     NA48307   2.593   8.263   5.640  0.0344  0.2262  0.2521
32414ION     NA48308   0.778   5.425   9.682  0.0859  0.0829 -0.1761
32415ION     NA48309   4.716  12.891   4.066  0.0771  0.1010  0.0762
32416ION     NA48310  12.493  18.285   9.788 -0.0507  0.1592  0.0125
32417ION     NA48311  17.826   1.886  10.013 -0.2265 -0.0854 -0.2318
32418ION     NA48312  17.029   2.567   9.928 -0.3969  0.0440  0.1794
32419ION     NA48313   0.814  18.220  10.532 -0.1395  0.1389  0.2560
32420ION     NA48314  18.359  14.238  12.261  0.3233  0.0662 -0.1717
32421ION     NA48315  14.019   4.638  14.751  0.0575 -0.1360  0.0690
32422ION     NA48316   0.527   2.534   9.811  0.1662 -0.0353 -0.0985
32423ION     NA48317   4.763  12.435   9.857  0.0611  0.0609 -0.0125
32424ION     NA48318   9.052   1.237  13.027 -0.0172 -0.0136 -0.0161
32425ION     NA48319   9.965  17.128   2.467 -0.3511  0.0246  0.0936
32426ION     NA48320  11.393  15.958   9.506  0.1661  0.3065 -0.0626
32427ION     NA48321  17.222  16.217  10.993  0.1108  0.0429  0.0292
32428ION     NA48322  17.155   5.417  10.502  0.1394  0.2937 -0.0525
32429ION     NA48323   6.707  18.616   4.940  0.1035 -0.0440  0.0531
32430ION     NA48324  12.880  16.701   9.957 -0.1044 -0.0856  0.1953
32431ION     NA48325   9.481   6.601   1.984  0.1732  0.0853  0.0719
32432ION     NA48326  16.434   2.442   1.208 -0.0290  0.3380  0.2988
32433ION     NA48327   5.824  18.730   9.282  0.0667 -0.2017  0.0766
32434ION     NA48328  10.615  15.611  11.142  0.0795  0.0434 -0.1886
32435ION     NA48329  11.406  15.507   5.062  0.1004 -0.0310  0.0006
32436ION     NA48330   7.239   3.452   2.370  0.1455  0.1328  0.1243
32437ION     NA48331  16.783   5.299  13.247 -0.2603  0.0239 -0.0737
32438ION     NA48332  13.903  12.388   9.972 -0.1447  0.1168 -0.0411
32439ION     NA48333   8.045   6.297   9.735  0.0514 -0.0201 -0.0416
32440ION     NA48334  17.223   6.297   6.034 -0.0225 -0.2751  0.1562
32441ION     NA48335   0.233  16.462   5.680 -0.0464  0.1893  0.0715
32442ION     NA48336   6.377   7.536  14.432 -0.3569 -0.2071  0.0719
32443ION     NA48337   4.952   4.002   4.678 -0.1992  0.0553 -0.4882
32444ION     NA48338  13.676  15.340   4.901 -0.2030 -0.0795  0.2428
32445ION     NA48339  15.509  19.089   5.209 -0.0667  0.0430  0.1300
32446ION     NA48340   5.658  10.120   9.728 -0.1262  0.2880 -0.2279
32447ION     NA48341   3.542  12.479   0.555 -0.0738 -0.1006  0.0603
32448ION     NA48342  18.189  14.233   3.082  0.2367  0.0900  0.0303
32449ION     NA48343   2.286   3.685   9.742  0.2225  0.1249 -0.2178
32450ION     NA48344  10.859  18.014   5.536 -0.0763  0.0379  0.1066
32451ION     NA48345  18.666   1.559  10.203  0.2233 -0.0625 -0.3471
32452ION     NA48346   7.466  18.862  11.308 -0.1670  0.0381 -0.1457
32453ION     NA48347   5.580   0.357  12.138 -0.1453 -0.0174 -0.6406
32454ION     NA48348  14.362   4.003  10.285 -0.0926 -0.0607 -0.2224
32455ION     NA48349  13.205  13.517   9.626  0.3651  0.3762  0.0889
32456ION     NA48350   1.159  19.140  10.097  0.0405  0.3311 -0.2359
32457ION     NA48351  13.810  10.662   2.879  0.0959 -0.2577 -0.0409
32458ION     NA48352   7.316   0.433   9.472 -0.0032 -0.1366  0.0645
32459ION     NA48353  17.169  11.417   9.461 -0.0911  0.0743 -0.0313
32460ION     NA48354  13.865   8.793   9.891  0.3311 -0.2577 -0.1814
32461ION     NA48355   5.623   4.259   9.453 -0.1798  0.0451 -0.1177
32462ION     NA48356  13.340  14.452  12.788 -0.2735 -0.1419  0.0108
32463ION     NA48357  13.022   5.432  10.411  0.1151  0.0758  0.0025
32464ION     NA48358  17.423   2.301   5.459  0.1088 -0.1801 -0.0547
32465ION     NA48359   2.847   3.839   9.848  0.2740 -0.0833  0.2375
32466ION     NA48360  11.286   7.283   4.989 -0.2679 -0.0085 -0.1378
32467ION     NA48361   2.524   6.037   5.199 -0.1035  0.1953 -0.3333
32468ION     NA48362   3.068  12.255   9.862 -0.0174 -0.0997  0.0421
32469ION     NA48363   9.099  16.750   2.813  0.0442  0.2166  0.0691
32470ION     NA48364  16.916   9.312   9.776  0.2058  0.1701  0.2056
32471ION     NA48365   9.747   0.544  11.588  0.1821  0.0598 -0.2233
32472ION     NA48366  10.605   4.537  14.605  0.0761 -0.0109 -0.2155
32473ION     NA48367   1.018   1.531  10.232  0.1448 -0.2028 -0.1204
32474ION     NA48368  15.720   4.921  10.478 -0.2765  0.4084 -0.2018
32475ION     NA48369   7.363  14.581   9.401  0.0971  0.0827 -0.0831
32476ION     NA48370   1.765   6.318   9.439  0.2762  0.2033 -0.2445
32477ION     NA48371   3.223   7.506   9.647  0.0114  0.1651  0.3318
32478ION     NA48372   9.355   3.388   5.553 -0.1616 -0.0549  0.1162
32479ION     NA48373   5.550  10.863   9.905 -0.0440 -0.3549 -0.0668
32480ION     NA48374   3.992  13.225  10.558  0.2308 -0.0459  0.3658
32481ION     NA48375   7.962   9.841   9.601  0.2802 -0.0524 -0.1478
32482ION     NA48376   1.114   0.223   5.858  0.1574 -0.2212  0.0073
32483ION     NA48377   2.584  14.479  12.173 -0.3939 -0.0178  0.1024
32484ION     NA48378   7.496  12.004   5.021 -0.1606  0.0574  0.2227
32485ION     NA48379   3.061   2.031   9.685  0.0706 -0.1937 -0.1033
32486ION     NA48380   5.541  13.873   1.312 -0.0769 -0.1469  0.0783
32487ION     NA48381  16.920   0.706   0.329 -0.0798 -0.1577 -0.1031
32488ION     NA48382   7.458  17.317   9.562 -0.4430  0.1911  0.4024
32489ION     NA48383  15.579  14.391   9.486  0.0915 -0.1668  0.3594
32490ION     NA48384  18.215   4.821   4.989 -0.1200 -0.1000 -0.0424
32491ION     NA48385  12.010   4.066  10.242 -0.2997 -0.2777  0.2383
32492ION     NA48386  14.866   0.872  10.136 -0.1485  0.1618 -0.0199
32493ION     NA48387   5.246   2.220   4.086  0.0875 -0.1546  0.1040
32494ION     NA48388   8.163  12.481   9.477  0.1600  0.2908  0.0132
32495ION     NA48389   6.349  11.036   0.568  0.1892 -0.2596  0.2242
32496ION     NA48390   4.071  17.329   9.693 -0.3050  0.1273  0.0580
32497ION     NA48391  10.879   2.696   5.271  0.2111 -0.1084 -0.3345
32498ION     NA48392  12.353   2.597   4.092  0.2538  0.3207  0.2429
32499ION     NA48393   8.876   2.641  12.271 -0.0100  0.3997 -0.3385
32500ION     NA48394   1.762   6.391   5.523 -0.2562 -0.3157 -0.2842
32501ION     NA48395   5.239  15.299  10.402  0.1464 -0.0704 -0.2817
32502ION     NA48396   7.010  11.370   3.872 -0.0331  0.0583 -0.0999
32503ION     NA48397   6.159  10.055   9.755 -0.4594 -0.1707 -0.2600
32504ION     NA48398  10.949   8.163  14.157  0.0230  0.0203 -0.1830
32505ION     NA48399  12.901  19.175  10.198 -0.1514  0.3262 -0.2382
32506ION     NA48400   6.946  17.772  10.312  0.3709 -0.0249  0.0589
32507ION     NA48401   5.421   7.480   9.504  0.2117  0.1847  0.0156
32508ION     NA48402   9.877  16.055   9.741 -0.1492  0.1040  0.1115
32509ION     NA48403  10.851   5.977   4.925 -0.0408 -0.0963  0.0045
32510ION     NA48404  15.070   4.474   0.963 -0.0169  0.0846  0.2043
32511ION     NA48405  11.256  14.118   9.586 -0.0042  0.1064  0.0905
32512ION     NA48406   3.252  17.436   5.412 -0.0689  0.1234  0.3250
32513ION     NA48407  11.166   8.181   3.276  0.5855 -0.2851  0.1925
32514ION     NA48408   0.328   4.638   9.845 -0.4310  0.2217  0.0653
32515ION     NA48409  12.314  16.570   4.252  0.4649 -0.2695 -0.0947
32516ION     NA48410   8.621   0.555   9.633 -0.0978 -0.0107 -0.2303
32517ION     NA48411   1.436   0.615  13.494  0.0258 -0.3313 -0.1453
32518ION     NA48412  16.673  11.650   2.608 -0.3552 -0.0148 -0.0256
32519ION     NA48413   1.837  10.759   9.889  0.1138 -0.2666 -0.1776
32520ION     NA48414   5.532  13.339  14.873 -0.1587 -0.1236  0.2821
32521ION     NA48415  16.254  11.161   9.326 -0.0251 -0.3429 -0.1422
32522ION     NA48416  14.120   0.721   9.768  0.2469 -0.0418  0.1185
32523ION     NA48417   0.696   1.337   3.991  0.0716 -0.0142 -0.1374
32524ION     NA48418   9.518   0.886  10.270  0.2384  0.0688  0.0342
32525ION     NA48419   4.931  14.162  13.309 -0.2338  0.4199  0.2574
32526ION     NA48420  18.023  18.954   5.492  0.2029 -0.1566 -0.1773
32527ION     NA48421  14.383  10.061   9.720  0.1834  0.2136  0.2223
32528ION     NA48422  11.108   9.810   2.141 -0.0044  0.0019  0.0265
32529ION     NA48423   3.171   8.359   4.931 -0.3034  0.0982  0.2938
32530ION     NA48424  18.224   6.904   5.671  0.2829  0.1836 -0.0702
32531ION     NA48425   5.220   1.969   9.363 -0.0750 -0.3603  0.0596
32532ION     NA48426   2.329  13.025  11.411 -0.2488  0.1276  0.0596
32533ION     NA48427   8.140   1.508   5.056  0.2146 -0.2285 -0.1957
32534ION     NA48428   6.646   0.204  13.452  0.0376 -0.0071  0.2172
32535ION     NA48429  18.814  11.365  11.791  0.0191 -0.2303  0.0429
32536ION     NA48430  11.546  15.091   9.580  0.0641 -0.0152  0.1722
32537ION     NA48431   7.452  10.503   9.521 -0.1056  0.5021 -0.0982
32538ION     NA48432  14.597  18.295  10.377 -0.0744 -0.2064 -0.0907
32539ION     NA48433  17.367  13.781   9.561 -0.1043 -0.0713 -0.2730
32540ION     NA48434  16.915   7.676   5.613  0.1651 -0.0378 -0.3696
32541ION     NA48435   3.587  12.065   0.029 -0.0272 -0.1320 -0.1657
32542ION     NA48436  13.384   2.554   2.763  0.1560  0.0208 -0.0682
32543ION     NA48437  17.060   6.409  10.359 -0.1148  0.2154 -0.2670
32544ION     NA48438  10.784  12.306   0.784  0.0339 -0.3554 -0.0885
32545ION     NA48439   4.576   5.256   9.632 -0.0421 -0.0863 -0.0096
32546ION     NA48440  13.257  16.152  13.123 -0.0413  0.1121  0.0550
32547ION     NA48441   2.268  13.859   4.864 -0.4508 -0.1946 -0.1204
32548ION     NA48442   2.679  18.903   9.581 -0.0921  0.2362 -0.1943
32549ION     NA48443  10.353   1.758   9.925 -0.0319 -0.1206 -0.1016
32550ION     NA48444  16.811   5.417   6.371  0.0677 -0.0438 -0.0323
32551ION     NA48445   4.354  18.059   9.681  0.0100  0.4940  0.0515
32552ION     NA48446  18.924   5.440   9.891  0.0890  0.2858  0.1832
32553ION     NA48447  14.042   4.599  10.104  0.1028  0.1263  0.1678
32554ION     NA48448  10.713  11.235   5.304 -0.3147 -0.0422 -0.1923
32555ION     NA48449   9.122  18.139   9.655  0.0345 -0.2070 -0.4271
32556ION     NA48450   6.617   8.902   9.307  0.0612 -0.1240 -0.1626
32557ION     NA48451   4.894  11.669   5.663  0.3951  0.1317 -0.0881
32558ION     NA48452   0.523  14.668   1.077 -0.3693  0.0405  0.1507
32559ION     NA48453  18.953   0.242  10.288 -0.3664  0.0028 -0.0086
32560ION     NA48454   9.417  14.548   9.528  0.1291 -0.0877  0.1472
32561ION     NA48455   6.175   5.669   9.430  0.2221  0.2204 -0.1942
32562ION     NA48456   3.511  18.540   9.361 -0.1927  0.0760 -0.2070
32563ION     NA48457  15.346   2.313  11.817  0.1749 -0.0041  0.1110
32564ION     NA48458   2.024  17.240   1.956  0.0964 -0.0158 -0.2476
32565ION     NA48459  10.451  13.840   9.687  0.1798 -0.3197 -0.2059
32566ION     NA48460   1.253  13.232  10.289 -0.0291 -0.0768 -0.1918
32567ION     NA48461  11.564   5.735  13.839 -0.2402 -0.2286  0.1662
32568ION     NA48462  13.636  13.143   5.434 -0.0217 -0.1232 -0.0419
32569ION     NA48463  18.602   3.982  13.470  0.1686  0.1788 -0.0857
32570ION     NA48464  10.362  12.070   9.337 -0.0749 -0.2994 -0.0712
32571ION     NA48465   8.996   2.281   9.668  0.1999 -0.0238 -0.1573
32572ION     NA48466  13.455  15.010  14.170 -0.0553  0.2798  0.2507
32573ION     NA48467  15.343   4.072  10.218 -0.3863 -0.0032 -0.2228
32574ION     NA48468   5.601  10.732   2.825  0.0461  0.0120  0.2005
32575ION     NA48469   1.681  15.447  10.008 -0.0722 -0.0094  0.0972
32576ION     NA48470  13.550  13.346  14.110  0.0467 -0.0614 -0.0265
32577ION     NA48471   8.643  16.836   4.969  0.0230  0.4469  0.1293
32578ION     NA48472   4.274  10.501   2.222 -0.4201 -0.0605 -0.2578
32579ION     NA48473   6.132   6.709   9.523  0.0134 -0.2383 -0.1461
32580ION     NA48474  13.921  14.335  10.103 -0.0390 -0.0005  0.1304
32581ION     NA48475   8.455  18.814   9.627  0.0717 -0.2298 -0.1618
32582ION     NA48476  12.489   6.569  10.018 -0.1836 -0.3193 -0.1545
32583ION     NA48477  13.320  15.537   9.671 -0.1689  0.0232 -0.0229
32584ION     NA48478  11.940  10.791   5.547  0.3360  0.0372  0.0493
32585ION     NA48479  11.104  13.263   9.906  0.1553 -0.2741 -0.3193
32586ION     NA48480   1.259  11.552   2.298 -0.2513  0.1977 -0.3782
32587ION     NA48481   1.090  14.954   5.582  0.1977 -0.0517  0.0391
32588ION     NA48482   9.295   5.813   5.298 -0.0307 -0.2560 -0.3412
32589ION     NA48483   3.649  14.878   5.617 -0.0448 -0.0196  0.2124
32590ION     NA48484   7.925   8.105   2.687  0.2902 -0.1394  0.0076
32591ION     NA48485  18.498  16.962  10.714 -0.0482  0.0068  0.0145
32592ION     NA48486  13.019   8.781   9.712  0.0572 -0.0176 -0.1056
32593ION     NA48487   3.026   8.535   9.791 -0.0937  0.1559 -0.2628
32594ION     NA48488   5.607   1.227   9.427 -0.2409  0.2307 -0.2023
32595ION     NA48489   6.774  18.946  10.870 -0.0665  0.0029 -0.0200
32596ION     NA48490   0.916  10.345  13.599 -0.1576 -0.0988  0.0092
32597ION     NA48491  15.410  13.556  12.804  0.0356  0.0215 -0.3815
32598ION     NA48492   6.811  14.496  12.787  0.2701 -0.2072 -0.0585
32599ION     NA48493  16.252   9.833   9.974  0.0789 -0.0774 -0.0285
32600ION     NA48494   0.938  14.058   2.709 -0.1997 -0.0526  0.0341
32601ION     NA48495   8.980  11.139   3.095 -0.1118  0.0345  0.0679
32602ION     NA48496  13.119   2.871   5.809  0.0703  0.3853  0.1467
32603ION     NA48497  17.936   1.307  14.853 -0.4801  0.0130  0.2492
32604ION     NA48498  13.793   2.651   5.926  0.0198 -0.2760  0.2064
32605ION     NA48499   3.799   8.896   5.418 -0.1997  0.1264 -0.0520
32606ION     NA48500  11.542   0.697   9.963 -0.0078  0.1360  0.3289
32607ION     NA48501   5.476  17.499   1.777 -0.1608  0.0965  0.0295
32608ION     NA48502   9.553  11.965   9.847 -0.0940 -0.2552 -0.0574
32609ION     NA48503   5.282   0.198   3.821  0.0341 -0.1860  0.2943
32610ION     NA48504  13.150  14.966   0.781  0.0008 -0.2862  0.3383
32611ION     NA48505   4.657   0.794  12.111 -0.0476 -0.1350 -0.1147
32612ION     NA48506  17.230  15.730   5.980  0.0229 -0.5161  0.1284
32613ION     NA48507   8.747   7.860   2.314 -0.0091 -0.2026 -0.0012
32614ION     NA48508  10.035   1.552   9.528 -0.1241  0.1643  0.1115
32615ION     NA48509   1.209  16.769  10.662  0.0233  0.0941 -0.1511
32616ION     NA48510   8.423  18.957  14.087 -0.0963  0.1164  0.0252
32617ION     NA48511  18.999   3.542  10.112 -0.2593 -0.3011  0.2825
32618ION     NA48512  15.839   7.508  12.810 -0.0303  0.0556 -0.2462
32619ION     NA48513   7.776  12.093   9.738  0.2686  0.5034  0.3863
32620ION     NA48514  18.888  11.052   3.460 -0.0165  0.1848  0.3331
32621ION     NA48515   1.779  10.288  11.310 -0.2369 -0.2727 -0.0430
32622ION     NA48516  14.853  11.801   4.315  0.2620  0.1046  0.1512
32623ION     NA48517  15.402  15.566   1.593  0.0362  0.3326  0.2269
32624ION     NA48518   7.581  14.725   0.963  0.1266  0.1684  0.5855
32625ION     NA48519   5.327   9.821  13.240 -0.0253 -0.0212 -0.0098
32626ION     NA48520   2.964   9.681   9.779  0.1319  0.3343 -0.0590
32627ION     NA48521   6.817  14.597  14.087 -0.0495  0.0102  0.2742
32628ION     NA48522   2.576  18.425   9.505 -0.2097 -0.0977  0.0286
32629ION     NA48523   2.393   6.464   9.394 -0.1148  0.1245 -0.1146
32630ION     NA48524  14.923   4.832  10.286 -0.2656  0.0423  0.0918
32631ION     NA48525  13.769   3.926  13.223  0.2220 -0.1161  0.0885
32632ION     NA48526  12.226  18.636  10.007  0.0904 -0.0118  0.1275
32633ION     NA48527   4.362  17.348  11.983  0.4403 -0.3380  0.0572
32634ION     NA48528  15.741   2.155   3.118  0.1715 -0.1042 -0.1011
32635ION     NA48529   7.619  18.437   5.168 -0.3460 -0.0663 -0.0815
32636ION     NA48530  13.578   6.217   5.658  0.0846  0.0801  0.0007
32637ION     NA48531   3.538   3.703   3.143  0.0998 -0.0261  0.2222
32638ION     NA48532   9.962  10.551   1.515 -0.0428  0.2913 -0.0154
32639ION     NA48533  18.990   5.941   9.943 -0.2379 -0.1142 -0.2024
32640ION     NA48534  19.084  11.988   9.669  0.1647  0.0177  0.3288
32641ION     NA48535   1.715   3.745   1.107  0.3825  0.2071  0.1234
32642ION     NA48536   3.796  11.470   9.972 -0.2641 -0.3864 -0.1377
32643ION     NA48537  12.592   6.592   5.566 -0.0605  0.0018 -0.1039
32644ION     NA48538  11.944  18.447  13.916  0.1529 -0.1381  0.0956
32645ION     NA48539  18.325  13.478  13.845 -0.1215 -0.3732 -0.0104
32646ION     NA48540  13.743   8.442   3.046 -0.0233 -0.1073  0.1346
32647ION     NA48541  15.055  13.685   9.527  0.3592  0.1545  0.3180
32648ION     NA48542   2.077   9.130   9.672 -0.0897 -0.0383  0.0136
32649ION     NA48543  16.834   4.270  14.766 -0.1959 -0.1140 -0.4148
32650ION     NA48544  14.323   3.168  10.441  0.1425 -0.1489 -0.0254
32651ION     NA48545   5.552   4.073   5.254  0.0547  0.0947  0.3364
32652ION     NA48546  18.924  18.785  10.575  0.1250 -0.1199 -0.3423
32653ION     NA48547  13.980   6.994   2.483  0.0987  0.4291  0.0905
32654ION     NA48548  11.521   2.427   9.852 -0.2820  0.0524  0.2763
32655ION     NA48549   8.552   8.597  13.422  0.1100  0.1445  0.2781
32656ION     NA48550   3.333  12.989   5.456  0.0055 -0.1249 -0.1142
32657ION     NA48551   4.498  15.544  10.154 -0.0014  0.2339 -0.3410
32658ION     NA48552   5.503   1.967   3.425 -0.4579  0.1178 -0.1364
32659ION     NA48553   5.699   2.860   9.677  0.1502  0.2205 -0.1507
32660ION     NA48554  12.006  16.810   0.998  0.1190 -0.1934 -0.1658
32661ION     NA48555  16.946  14.903  15.076 -0.1155  0.1546 -0.1039
32662ION     NA48556   3.431  16.478  10.851 -0.0138 -0.1368 -0.0380
32663ION     NA48557   7.112   8.541   4.510  0.1441  0.2086 -0.3985
32664ION     NA48558  10.993   1.267  12.089  0.0798 -0.0088  0.1876
32665ION     NA48559  18.475  13.681   0.039 -0.0210  0.1631  0.4833
32666ION     NA48560   9.393  11.509   9.427 -0.0103 -0.1837 -0.0316
32667ION     NA48561  18.408  11.587   9.547 -0.0265  0.2445  0.0519
32668ION     NA48562  13.274  14.663  11.334  0.0499  0.0486 -0.1304
32669ION     NA48563  12.932  11.920   9.744  0.2119  0.0621  0.1797
32670ION     NA48564   0.922   9.057   9.677  0.2598 -0.1758  0.2228
32671ION     NA48565  14.427   5.645   9.942  0.0950  0.4771  0.0218
32672ION     NA48566   6.757  14.647   4.941  0.2069 -0.1982 -0.1143
32673ION     NA48567  12.745  15.630   5.035  0.0560 -0.1843 -0.1517
32674ION     NA48568  10.023  10.602   9.573  0.0402 -0.1652 -0.2384
32675ION     NA48569  16.272   4.501   5.920  0.1224 -0.0061  0.0120
32676ION     NA48570   5.967   2.144   9.354 -0.1474  0.1959  0.0196
32677ION     NA48571   6.911   3.912   9.536 -0.4093  0.1554  0.2349
32678ION     NA48572  13.626  14.880   5.141  0.1383  0.0598  0.0440
32679ION     NA48573   6.379  12.434   9.630 -0.0086  0.0204 -0.0645
32680ION     NA48574   6.681  17.726   0.090  0.1157 -0.1001  0.1515
32681ION     NA48575  13.916  11.828   9.668  0.2231  0.0832 -0.1539
32682ION     NA48576   0.825   4.614   4.743  0.0893  0.1075  0.0627
32683ION     NA48577  13.745   2.168  10.322 -0.0159  0.2165 -0.0682
32684ION     NA48578  11.361  17.432  13.091  0.5050 -0.0955 -0.0325
32685ION     NA48579  18.497   6.157   9.891 -0.1595 -0.2446  0.1170
32686ION     NA48580  19.187  16.636  10.264  0.1039  0.0055 -0.4255
32687ION     NA48581   0.864  11.379   5.451 -0.0379 -0.0247 -0.1065
32688ION     NA48582   0.447   2.584   4.215  0.0401 -0.1768 -0.0070
32689ION     NA48583   5.311  11.876   9.988 -0.1653  0.1024 -0.3758
32690ION     NA48584  14.775   6.211   5.493  0.0249 -0.4242 -0.0823
32691ION     NA48585   2.305  17.293  10.181  0.1967  0.3144 -0.1648
32692ION     NA48586  18.020   3.049   9.978 -0.1279 -0.1250  0.0823
32693ION     NA48587   0.241   1.046  14.991 -0.0754  0.0989 -0.0593
32694ION     NA48588  15.627   3.222   9.980 -0.0027 -0.1395  0.2089
32695ION     NA48589  11.744  17.012   9.494  0.1107 -0.1388  0.2695
32696ION     NA48590   7.071  17.232  11.198  0.0498  0.1288  0.2395
32697ION     NA48591   2.118   9.154  15.138 -0.4117  0.2208  0.1337
32698ION     NA48592   8.691   6.579   9.924 -0.1824  0.0823  0.0948
32699ION     NA48593  13.781  15.635   3.041  0.1572 -0.1129 -0.0724
32700ION     NA48594   8.281  14.842   9.322 -0.0253  0.2754  0.4361
32701ION     NA48595   6.311   0.076   9.551 -0.2254 -0.0697  0.0531
32702ION     NA48596   3.773  12.876   3.583 -0.0540 -0.2868 -0.4297
32703ION     NA48597   4.174   4.414   5.107 -0.0238  0.2262 -0.4349
32704ION     NA48598   3.377  17.926   9.578 -0.2651 -0.1417  0.0357
32705ION     NA48599  12.661  12.848   9.745  0.0786  0.2112  0.4184
32706ION     NA48600   8.666   5.306  11.309  0.0007 -0.1798  0.0460
32707ION     NA48601   1.403   6.611   3.736  0.2494 -0.0026 -0.2777
32708ION     NA48602   1.248  18.109   5.038 -0.4552 -0.1519 -0.3091
32709ION     NA48603   9.806   1.369   3.964  0.1067 -0.1621  0.2183
32710ION     NA48604   3.387  12.415   4.177  0.0053 -0.0864  0.0024
32711ION     NA48605  15.504  12.604   3.141 -0.0622  0.0385 -0.4316
32712ION     NA48606   8.299  13.454   9.578  0.0760  0.1893  0.1606
32713ION     NA48607   6.482   0.926   9.601 -0.0422  0.1246 -0.1141
32714ION     NA48608   5.079  11.439   9.979  0.2011 -0.1021  0.1190
32715ION     NA48609  10.895   1.207   9.491  0.4971  0.2381  0.2161
32716ION     NA48610   7.090   4.396   9.865  0.0736 -0.0424  0.1099
32717ION     NA48611   2.107   0.090   2.650  0.2111  0.3815  0.0477
32718ION     NA48612  13.581   9.561   9.828  0.2229 -0.3579 -0.0756
32719ION     NA48613   0.510   0.763  10.375  0.0110 -0.0280  0.0677
32720ION     NA48614  16.697   7.013   5.875  0.0774  0.3209 -0.0088
32721ION     NA48615  16.800   0.415  10.468 -0.0804  0.2890  0.0762
32722ION     NA48616   6.746   2.593   9.675 -0.2008  0.0787 -0.1573
32723ION     NA48617  10.777   9.317   9.489  0.0441 -0.1628  0.0495
32724ION     NA48618   6.799  12.626   0.987 -0.0115 -0.2816 -0.2338
32725ION     NA48619  11.386   8.037  14.363  0.4114 -0.2393  0.1528
32726ION     NA48620  17.390  12.961   9.508 -0.0982  0.0262 -0.0161
32727ION     NA48621  11.193  12.608   9.280 -0.0427 -0.2780 -0.1685
32728ION     NA48622   6.381   3.140   5.161  0.3626 -0.0378  0.0920
32729ION     NA48623  14.559  16.340   9.882 -0.1651 -0.0100  0.0103
32730ION     NA48624   0.792   3.371   9.774  0.1708 -0.3175  0.3789
32731ION     NA48625  18.083   0.115  10.350 -0.0614 -0.1028 -0.1190
32732ION     NA48626   2.792  11.743   9.950 -0.1446  0.1203 -0.1645
32733ION     NA48627  10.247  15.256   1.252  0.1390 -0.0339  0.0399
32734ION     NA48628  14.594   2.365  10.187 -0.1774  0.0233  0.3344
32735ION     NA48629   6.011  17.412   9.501 -0.1335 -0.1965  0.1713
32736ION     NA48630  19.069  14.537   0.260  0.2177 -0.2371 -0.0037
32737ION     NA48631   2.588   5.846   0.018 -0.0457 -0.2110 -0.3856
32738ION     NA48632  17.038   4.606  12.715 -0.0636  0.0608  0.0145
32739ION     NA48633   4.868   4.423   9.718 -0.0977 -0.0936  0.1174
32740ION     NA48634  12.106   6.537   1.029  0.1825 -0.0693  0.3024
32741ION     NA48635   9.732   1.068  14.469 -0.3253 -0.0264  0.1917
32742ION     NA48636  18.298   8.754   5.198 -0.0992 -0.2868  0.2394
32743ION     NA48637   3.866   3.007  11.857  0.1641  0.2336  0.2324
32744ION     NA48638  14.285  13.150   9.607 -0.0436 -0.2153  0.2614
32745ION     NA48639   3.357   5.298   9.496 -0.1316 -0.0856 -0.2886
32746ION     NA48640  15.337  18.265  10.527  0.2271 -0.0258 -0.2666
32747ION     NA48641  14.694   7.787   4.240  0.2995 -0.0943  0.0114
32748ION     NA48642  10.773  18.416   9.721  0.1137  0.0310  0.2217
32749ION     NA48643   2.378   5.637   9.559 -0.0373  0.1258  0.1180
32750ION     NA48644  17.827  11.753   1.035 -0.1257  0.2502  0.4554
32751ION     NA48645   9.991   4.427   0.875 -0.0598 -0.3864  0.3624
32752ION     NA48646   5.420   6.455   9.618 -0.2213 -0.1774 -0.4023
32753ION     NA48647  13.479   1.524   0.598  0.2133  0.2260 -0.3879
32754ION     NA48648   2.693  10.511  10.771 -0.2557 -0.3332 -0.1965
32755ION     NA48649  13.891   5.335   5.931 -0.2589  0.1049  0.0582
32756ION     NA48650   4.017   5.835  12.011  0.0776  0.0388  0.1900
32757ION     NA48651   9.526   2.343   2.000  0.3137 -0.0141 -0.0937
32758ION     NA48652  17.469  10.336   9.593  0.1329 -0.0547  0.1776
32759ION     NA48653  10.988   2.437  10.202  0.0503 -0.3457  0.0173
32760ION     NA48654   2.512  10.884   0.905 -0.1090  0.1395  0.0423
32761ION     NA48655  17.283  11.668   5.575 -0.0492  0.0062  0.0679
32762ION     NA48656  19.047   7.373  14.448 -0.0182  0.0800 -0.2063
32763ION     NA48657   2.619   8.596  12.336 -0.1702 -0.0962 -0.1340
32764ION     NA48658   7.029   4.648   5.159 -0.1290  0.0256  0.0527
32765ION     NA48659   3.764   6.840   9.282 -0.1131  0.0106 -0.1764
32766ION     NA48660   8.875   7.427  11.895  0.2225 -0.1826  0.2520
32767ION     NA48661  13.492   6.096  10.078 -0.1751  0.3818  0.2376
32768ION     NA48662   9.226  19.074   9.485 -0.3858 -0.0994  0.0982
32769ION     NA48663   4.886   6.146   5.246 -0.2570 -0.1831  0.0754
32770ION     NA48664  10.375  16.717   9.945  0.1086  0.0188 -0.0693
32771ION     NA48665  11.177  10.704  10.444  0.2506  0.1256  0.1105
32772ION     NA48666  11.731   9.218   4.904  0.0789 -0.0074  0.2664
32773ION     NA48667  16.404   7.433  14.132 -0.2254  0.0341 -0.1479
32774ION     NA48668  17.894  18.391  10.688 -0.1770  0.2576  0.0138
32775ION     NA48669  11.069   0.370   9.809  0.1757  0.0124  0.1260
32776ION     NA48670  12.146  13.587   9.834 -0.1101 -0.0385  0.0421
32777ION     NA48671   9.956   1.126   5.450 -0.1097 -0.1510  0.3852
32778ION     NA48672   9.640   6.885   9.950  0.0454 -0.1796 -0.0337
32779ION     NA48673  16.731   4.607  10.235 -0.2481  0.3618  0.3377
32780ION     NA48674   2.923   0.588   1.699 -0.4465 -0.0430 -0.4143
32781ION     NA48675   7.117   7.410   9.449 -0.1580  0.1782 -0.1852
32782ION     NA48676   7.641  18.638   9.560  0.2226  0.0286 -0.1216
32783ION     NA48677   7.294   0.179   0.649  0.0426 -0.0222  0.3845
32784ION     NA48678  16.353  15.809   2.674  0.1555 -0.1375  0.2154
32785ION     NA48679  15.395   9.395   9.885  0.0911  0.2288 -0.0247
32786ION     NA48680   9.015  13.679   9.669  0.1236 -0.2152 -0.2314
32787ION     NA48681  17.728  15.448   1.098  0.2363 -0.1186 -0.1432
32788ION     NA48682   2.245   2.430   9.881  0.0997 -0.2557  0.0003
32789ION     NA48683  13.464  18.386   5.508 -0.0299 -0.0392  0.3701
32790ION     NA48684  13.190   3.005  10.504 -0.0297 -0.3373  0.3083
32791ION     NA48685  11.854  12.065   9.215  0.1351  0.1033  0.1206
32792ION     NA48686  10.170  12.968   9.468 -0.0272 -0.3624  0.4875
32793ION     NA48687  14.275  10.219   5.642  0.4254 -0.3758  0.2919
32794ION     NA48688   6.832  18.119   9.445 -0.3913 -0.0961  0.1230
32795ION     NA48689  12.245  12.519   9.937  0.0362 -0.1099 -0.0928
32796ION     NA48690  17.820   1.059  10.123  0.0498 -0.1072  0.1084
32797ION     NA48691   6.261   4.930  11.567  0.4248  0.1483  0.0106
32798ION     NA48692   6.099  15.651   9.451  0.3176 -0.0940 -0.1563
32799ION     NA48693  16.426   0.593   5.774  0.2911 -0.0774  0.1126
32800ION     NA48694   1.397  13.557  14.700  0.1167  0.0763 -0.0661
32801ION     NA48695  11.997  14.203   1.439  0.0190  0.1668 -0.1398
32802ION     NA48696   7.505   9.060   9.336  0.0644  0.1639 -0.1687
32803ION     NA48697  13.537  11.308  12.396  0.1908 -0.0014  0.1435
32804ION     NA48698  16.828   5.757   3.860 -0.0281  0.2848  0.4381
32805ION     NA48699   8.439   2.912  11.315 -0.0573 -0.0617 -0.0215
32806ION     NA48700   1.642  16.553   0.695  0.3415 -0.0495 -0.1832
32807ION     NA48701  12.835   1.861   9.900 -0.5079  0.3545 -0.0385
32808ION     NA48702   0.816  16.934  12.478 -0.4251  0.2775  0.3138
32809ION     NA48703  13.313   0.093   5.813  0.3757  0.1568  0.0274
32810ION     NA48704  13.103   4.967  11.311  0.0773 -0.2691  0.1101
32811ION     NA48705  16.586  13.170  12.858 -0.0180  0.1151  0.0437
32812ION     NA48706  16.490   8.056  10.146  0.1542  0.0337  0.0823
32813ION     NA48707  19.134  13.631  10.014  0.1109  0.1395  0.1262
32814ION     NA48708  14.975  12.044   9.595 -0.1465 -0.0566 -0.2321
32815ION     NA48709   9.203  12.072  13.082  0.0161 -0.0864  0.3547
32816ION     NA48710   0.790  11.833   9.476  0.4429  0.1272 -0.0408
32817ION     NA48711  18.894   7.652   9.700  0.0042  0.2777  0.0019
32818ION     NA48712   1.902  13.707   9.700 -0.1576 -0.1581  0.2067
32819ION     NA48713   4.264   1.508  14.036 -0.1510  0.3033  0.0529
32820ION     NA48714   8.147   8.338   4.625  0.0977  0.0190 -0.1158
32821ION     NA48715  18.141   4.577  13.926 -0.0930  0.2384 -0.4564
32822ION     NA48716   8.984   1.383   9.379  0.1300 -0.1236  0.2470
32823ION     NA48717   9.596   0.675   9.299  0.1621 -0.1752  0.0231
32824ION     NA48718   1.291   8.034   9.422 -0.1938  0.0096 -0.0258
32825ION     NA48719  18.883   6.107   1.615  0.4237 -0.1747  0.0320
32826ION     NA48720  12.833  13.938  11.529 -0.0951  0.1363 -0.0690
32827ION     NA48721   0.596  13.896  10.476  0.5601 -0.0160  0.1479
32828ION     NA48722   1.565   3.172   9.652  0.3404 -0.2517  0.0065
32829ION     NA48723   0.107  10.448   9.683  0.2379  0.0641  0.1115
32830ION     NA48724  10.915   7.713   9.626 -0.2113 -0.1436 -0.2151
32831ION     NA48725   5.002   8.505  10.591  0.0134  0.3967  0.1547
32832ION     NA48726   2.179  11.909   5.600 -0.0033  0.5394  0.1799
32833ION     NA48727  16.539  12.677   9.556 -0.1818  0.0844 -0.0431
32834ION     NA48728   2.827   2.124   5.400  0.0711 -0.1228  0.3676
32835ION     NA48729  17.399   4.495   3.541 -0.0815 -0.1817  0.2486
32836ION     NA48730   5.032   8.372  13.646  0.1974 -0.1662 -0.1364
32837ION     NA48731  14.249  12.261  11.465  0.0146 -0.1822 -0.2492
32838ION     NA48732  11.095   8.703   9.495  0.0834 -0.4623 -0.2512
32839ION     NA48733   1.680   4.377  13.605  0.0018  0.1355  0.2808
32840ION     NA48734   8.234  10.570  12.206 -0.1194  0.3184  0.1678
32841ION     NA48735  18.409  14.020   9.810  0.0034 -0.2555 -0.1094
32842ION     NA48736   8.640  10.913   0.816 -0.0962 -0.1760 -0.2461
32843ION     NA48737   2.091   8.646   3.956 -0.1410 -0.0190 -0.1885
32844ION     NA48738   6.839   9.276   0.074  0.2641 -0.0568 -0.2239
32845ION     NA48739   5.063  10.209   4.272 -0.2780  0.1054 -0.0301
32846ION     NA48740  17.030   3.940   0.416  0.3983  0.1993  0.1497
32847ION     NA48741  17.668   4.716  10.041 -0.1178 -0.0802  0.0311
32848ION     NA48742   1.600   1.759  10.184 -0.2501  0.2014 -0.0286
32849ION     NA48743  14.040   7.182  10.021  0.2018  0.0004 -0.2106
32850ION     NA48744   1.652  12.629   9.704 -0.2256  0.0300  0.0747
32851ION     NA48745  11.347  12.334   3.394  0.1453 -0.2230 -0.1082
32852ION     NA48746   1.176   2.071   9.773 -0.1791 -0.5066 -0.0691
32853ION     NA48747  11.203  17.813   9.425 -0.1624  0.2427  0.1553
32854ION     NA48748   1.076   1.548   5.278  0.2289 -0.0023 -0.0782
32855ION     NA48749  14.408  10.737  10.263  0.2296 -0.0840 -0.4465
32856ION     NA48750  11.239  17.038   3.287 -0.0008 -0.0326  0.3041
32857ION     NA48751   8.400   2.172   9.569  0.3058  0.0398  0.2699
32858ION     NA48752  11.496   4.127   2.859  0.1821 -0.1176  0.1186
32859ION     NA48753  12.951  14.638   5.038  0.1184  0.1613  0.1160
32860ION     NA48754  12.797   2.326   5.857 -0.3388 -0.0819  0.0973
32861ION     NA48755  14.536   0.022   9.909  0.3419  0.5284  0.2055
32862ION     NA48756  13.949  15.623  13.397  0.0670  0.1716  0.5023
32863ION     NA48757  15.885  15.328   5.588  0.1213  0.2042 -0.0679
32864ION     NA48758   4.003   6.087   9.491  0.3158 -0.0366  0.0478
32865ION     NA48759   7.179   1.797   9.513 -0.0667 -0.0456  0.3204
32866ION     NA48760   0.709  15.663  10.168 -0.1452  0.2103  0.2108
32867ION     NA48761  10.411   7.972   0.992 -0.2336  0.0780  0.0574
32868ION     NA48762   0.417   6.403  10.858  0.1407  0.0463 -0.0348
32869ION     NA48763   1.693   5.828   9.577  0.0773 -0.1853  0.1071
32870ION     NA48764  12.585  13.933   5.271  0.0440  0.1880 -0.4165
32871ION     NA48765   4.759  16.677   1.983  0.1688  0.1290  0.2817
32872ION     NA48766   2.134   2.307   9.387  0.2903 -0.0972 -0.0288
32873ION     NA48767  13.598  16.927   1.934 -0.0793 -0.0745 -0.1022
32874ION     NA48768   0.126   7.723   4.792  0.3052 -0.2275 -0.3972
32875ION     NA48769  18.589   1.368   5.241  0.1008  0.0118  0.0562
32876ION     NA48770  13.935   2.758   1.509  0.0162  0.1298  0.0699
32877ION     NA48771   2.088  12.510  11.386  0.0161 -0.0213 -0.4044
32878ION     NA48772  16.664   1.244  10.261  0.1173 -0.2000 -0.1727
32879ION     NA48773   9.688   2.386   1.088  0.2653  0.4581  0.1625
32880ION     NA48774  11.737   9.207   9.901 -0.1055  0.0948  0.1342
32881ION     NA48775   6.068   7.991   5.443 -0.0784 -0.3973 -0.1349
32882ION     NA48776   2.333  18.139   9.882  0.0588 -0.1501  0.0810
32883ION     NA48777   1.414  15.975  10.081  0.2381 -0.0690 -0.0761
32884ION     NA48778   2.976   5.859   5.024  0.1689  0.2440  0.1426
32885ION     NA48779   2.983   2.964   9.758 -0.1069 -0.0536  0.3520
32886ION     NA48780   9.470   4.769   9.991 -0.1563  0.0550  0.2546
32887ION     NA48781  10.094   5.273   4.108 -0.2216  0.0303  0.1784
32888ION     NA48782   3.978   5.813  12.996  0.0310 -0.1494 -0.1387
32889ION     NA48783   2.961  17.510   0.740 -0.2674 -0.1422 -0.2605
32890ION     NA48784  12.031  10.152   9.540  0.1466  0.4273 -0.2080
32891ION     NA48785  18.380  14.995   9.931 -0.0660 -0.2557  0.0945
32892ION     NA48786  19.164  13.154   5.696  0.0675 -0.1907 -0.0919
32893ION     NA48787  16.452  15.490  10.159  0.1587  0.0139  0.2318
32894ION     NA48788  12.148   4.955  10.995  0.0211  0.0817 -0.1078
32895ION     NA48789   9.955   7.801   9.381 -0.1122 -0.1660 -0.0996
32896ION     NA48790   9.093  12.749   9.644 -0.1110 -0.0217 -0.1004
32897ION     NA48791   9.188  15.602   4.668  0.1367  0.1723 -0.0675
32898ION     NA48792   5.160  17.538   9.618 -0.0237  0.0171  0.3398
32899ION     NA48793   8.123  13.904   9.412 -0.0710 -0.1322 -0.0556
32900ION     NA48794  10.997  14.146  12.932  0.1526  0.2874  0.3788
32901ION     NA48795   9.920  19.105   9.490  0.0433 -0.0064  0.2099
32902ION     NA48796  17.587   4.289  11.156  0.0431 -0.3141  0.2477
32903ION     NA48797  18.161  12.369   9.482  0.2920 -0.1686  0.2313
32904ION     NA48798   6.083   7.159   5.460  0.2207  0.1873  0.0634
32905ION     NA48799  16.471   5.902  10.253 -0.1395 -0.2201  0.0756
32906ION     NA48800  13.255  17.826  10.236  0.1836  0.0753 -0.1532
32907ION     NA48801  11.755   3.294  13.255  0.0658 -0.5288 -0.0543
32908ION     NA48802  14.488  18.273   9.835  0.1275  0.1165 -0.0732
32909ION     NA48803  12.070   8.572   9.672 -0.2528 -0.1912 -0.0004
32910ION     NA48804   3.661  18.409   5.383 -0.3064  0.1935  0.1084
32911ION     NA48805   6.110   1.054   1.968 -0.1153  0.1486  0.3044
32912ION     NA48806  16.023  18.152  10.063 -0.0408 -0.0563  0.1894
32913ION     NA48807  19.036  18.187  10.477  0.1308 -0.1165  0.3712
32914ION     NA48808  10.110   8.488  12.707 -0.0263  0.3436  0.0675
32915ION     NA48809   4.288   8.122   9.912 -0.1126  0.1396  0.1096
32916ION     NA48810  13.387  10.945  14.263 -0.2503  0.1834 -0.1521
32917ION     NA48811   7.968   1.132   9.531  0.1150 -0.0920  0.1748
32918ION     NA48812   8.911   6.122   9.748  0.0364 -0.0956 -0.1412
32919ION     NA48813   2.399   7.929   9.487 -0.1515 -0.1257 -0.3657
32920ION     NA48814   4.803  19.079   9.300  0.0131  0.0500 -0.0286
32921ION     NA48815  19.187  12.564   4.948 -0.0866  0.1016  0.0619
32922ION     NA48816   3.020  16.656   9.975  0.1046  0.2016  0.0327
32923ION     NA48817  11.917   7.482  13.311 -0.0758 -0.1651 -0.2155
32924ION     NA48818  19.071   9.291  12.978  0.1961 -0.1811 -0.0876
32925ION     NA48819   3.198   4.526   5.173  0.1453 -0.1826 -0.1848
32926ION     NA48820   8.378   3.358   5.293  0.1478  0.3563 -0.0144
32927ION     NA48821  12.777   9.942   9.742  0.0207  0.0304  0.3164
32928ION     NA48822   6.329   6.168   9.395 -0.0825 -0.0170 -0.0211
32929ION     NA48823   0.473   8.174   9.815 -0.1968 -0.0092 -0.0776
32930ION     NA48824  11.785   3.608   4.918  0.1774  0.0665  0.1038
32931ION     NA48825  13.928   7.615   3.607  0.1364  0.2645  0.0369
32932ION     NA48826   6.472  14.740   9.630  0.0804  0.1294  0.0608
32933ION     NA48827   9.539   4.088  12.708  0.0477 -0.4034  0.3748
32934ION     NA48828  15.089  16.301   9.824  0.0588 -0.1166 -0.2175
32935ION     NA48829   8.958   4.036  10.307  0.0990  0.0475 -0.2453
32936ION     NA48830  10.178   5.718  10.106 -0.2394 -0.4074  0.2490
32937ION     NA48831  14.334  15.779   9.713  0.0617 -0.0585 -0.0842
32938ION     NA48832   0.680  12.492   9.942  0.1345 -0.0874  0.0643
32939ION     NA48833   0.178   5.516  12.582 -0.4261 -0.0697  0.0557
32940ION     NA48834   6.713  16.403   9.207 -0.2558 -0.1818  0.0311
32941ION     NA48835   3.058   9.577   5.613 -0.3375 -0.1272  0.5426
32942ION     NA48836   7.035  16.605  13.723  0.1639 -0.2601  0.1026
32943ION     NA48837  14.772  17.383  10.131 -0.1229  0.1922 -0.1874
32944ION     NA48838  14.895   7.038   2.279 -0.2049 -0.2188  0.1545
32945ION     NA48839  17.632   7.390   4.567  0.1344 -0.1671  0.0615
32946ION     NA48840  11.834   8.133   2.138 -0.0398 -0.1008  0.2012
32947ION     NA48841  15.862  11.654   9.664 -0.1469 -0.0883 -0.0240
32948ION     NA48842   7.064   9.734   9.360  0.0199  0.1319 -0.0629
32949ION     NA48843  16.596   3.080  10.257 -0.2792  0.1199  0.0342
32950ION     NA48844  10.994   9.197  12.033  0.1258 -0.2432 -0.1694
32951ION     NA48845  15.660   0.522  10.483 -0.0223  0.2004 -0.1316
32952ION     NA48846   2.421  12.707   9.980  0.3282 -0.0516 -0.0079
32953ION     NA48847   4.813   6.802   4.481 -0.1386  0.3481 -0.0391
32954ION     NA48848   2.280   0.666   5.395  0.0515  0.2538 -0.1429
32955ION     NA48849  16.348  17.042  13.674  0.0474  0.3629  0.4244
32956ION     NA48850   9.944  12.599   2.516  0.1282  0.1619 -0.4013
32957ION     NA48851   7.550  11.432   9.739  0.1915  0.1128  0.2457
32958ION     NA48852  14.230   1.462  10.287  0.3569 -0.0092  0.0284
32959ION     NA48853   4.352   0.597   0.017  0.0107 -0.2012  0.0135
32960ION     NA48854   9.060   4.696   4.735 -0.2759  0.0887 -0.1373
32961ION     NA48855   5.211  18.042   9.529  0.0364 -0.1397  0.0511
32962ION     NA48856  16.567   3.285   3.504  0.2653  0.0525 -0.3318
32963ION     NA48857   8.781   2.275  14.244  0.3446 -0.0602  0.1698
32964ION     NA48858   9.823   9.280   2.023 -0.2385  0.1285 -0.1577
32965ION     NA48859   8.464   5.076   9.739  0.0651 -0.0157 -0.0442
32966ION     NA48860   2.508  15.176  14.135 -0.0652  0.1005  0.1348
32967ION     NA48861  14.468   5.140   1.829 -0.1497  0.0681 -0.2404
32968ION     NA48862  17.103   8.031  14.675 -0.0477  0.0689  0.2098
32969ION     NA48863   0.755   7.393   9.779 -0.0735 -0.2330  0.0248
32970ION     NA48864  16.060  18.458   5.451  0.1530  0.0319  0.1918
32971ION     NA48865   3.378   4.386   9.683  0.1518  0.0110  0.0170
32972ION     NA48866   8.328   3.804  11.218  0.3253  0.0010 -0.0588
32973ION     NA48867  16.490   6.741  12.874  0.0426  0.2420 -0.4866
32974ION     NA48868  18.086  13.177   9.791  0.0857 -0.3414 -0.0005
32975ION     NA48869  11.489   3.081   0.359 -0.0216 -0.1895  0.0868
32976ION     NA48870   6.259   0.566   9.318 -0.1401  0.1603  0.2627
32977ION     NA48871   5.863   1.357  12.984  0.2928  0.2665 -0.0936
32978ION     NA48872   1.482   0.965   5.852  0.1055 -0.1964 -0.0126
32979ION     NA48873  13.762   3.308   2.586  0.0951 -0.1934  0.0675
32980ION     NA48874  15.177  18.682   5.751  0.0792  0.0090  0.3889
32981ION     NA48875   7.149   7.157  14.776 -0.2646 -0.1275 -0.2250
32982ION     NA48876  18.719   4.574  10.178 -0.2081  0.1561 -0.0662
32983ION     NA48877  16.524  13.683   9.993 -0.1337 -0.0497 -0.1726
32984ION     NA48878   2.879   0.862   4.522  0.0199 -0.3023 -0.0247
32985ION     NA48879   8.273   3.179   9.558  0.1709 -0.3038  0.1145
32986ION     NA48880   5.364  12.622   3.293  0.2222 -0.1074  0.1604
32987ION     NA48881   7.299  16.073  11.455  0.0515 -0.1404 -0.0484
32988ION     NA48882  12.912   2.710  14.313 -0.0442 -0.2600 -0.1528
32989ION     NA48883  14.571   6.331  10.325  0.2430  0.2301  0.1377
32990ION     NA48884  17.816  15.550  10.063  0.3716  0.1877 -0.0627
32991ION     NA48885   4.739   9.161   5.715 -0.2343 -0.2696 -0.0260
32992ION     NA48886   5.555  12.750   9.800 -0.0513  0.3969  0.0505
32993ION     NA48887  10.896   4.313   9.864  0.0457  0.0472  0.0109
32994ION     NA48888   3.016  11.548   5.440  0.1155 -0.0858 -0.0956
32995ION     NA48889   5.077   9.250   9.570  0.2327  0.3747  0.0241
32996ION     NA48890  10.449   8.368   5.348  0.0848  0.1065  0.0500
32997ION     NA48891   4.656   0.763   9.420 -0.0773  0.1457 -0.0404
32998ION     NA48892  15.338  16.001   0.679  0.1828  0.2692  0.2699
32999ION     NA48893  14.466   1.599   5.674 -0.3497 -0.0651 -0.2069
33000ION     NA48894   4.479   2.851   5.348  0.0331 -0.0696 -0.0018
33001ION     NA48895   9.293  15.397   9.646  0.0658  0.1104 -0.0588
33002ION     NA48896  18.138   5.236  10.047 -0.0695 -0.1052  0.0204
33003ION     NA48897   1.675  17.933  10.401  0.0399 -0.1691 -0.3118
33004ION     NA48898  13.201   9.966   3.884  0.0064 -0.1344 -0.1155
33005ION     NA48899   9.067  12.993  11.816  0.0350  0.0456 -0.2680
33006ION     NA48900   8.664   1.973  11.605  0.0920 -0.1185  0.0235
33007ION     NA48901  11.720  11.841   1.418  0.2347 -0.2185 -0.0478
33008ION     NA48902  15.866   5.187   6.294 -0.1478  0.1504  0.3250
33009ION     NA48903  15.614   1.446  10.165 -0.2264  0.1783 -0.1401
33010ION     NA48904  16.826  13.776   5.344 -0.2779  0.1659 -0.2665
33011ION     NA48905   4.747   9.350  14.273 -0.1567  0.0441  0.2715
33012ION     NA48906   8.217   4.084   9.667  0.0090 -0.1165  0.1212
33013ION     NA48907  10.579   9.850   9.506  0.2856 -0.0304  0.1161
33014ION     NA48908   3.878   0.248   9.306 -0.1622  0.2894  0.0058
33015ION     NA48909  17.800   1.372   2.300 -0.1234 -0.0822  0.2347
33016ION     NA48910   5.264   8.436   9.550  0.0492  0.2041 -0.1384
33017ION     NA48911   6.061   8.094   9.554  0.1354 -0.2880  0.2952
33018ION     NA48912   3.667  13.268  12.929  0.2516 -0.1407 -0.2154
33019ION     NA48913  12.042   9.603   3.041  0.1425  0.1894  0.0417
33020ION     NA48914  17.427  17.768   9.970  0.0149  0.0305 -0.1748
33021ION     NA48915  17.344  16.380  10.181 -0.2403  0.0350  0.0057
33022ION     NA48916  17.543  14.692  10.244 -0.1973 -0.0706 -0.1615
33023ION     NA48917  12.341   1.944   9.972  0.3201 -0.1765 -0.3315
33024ION     NA48918   9.000  10.523   9.603 -0.2669 -0.0151  0.3458
33025ION     NA48919   6.217   4.764   9.709  0.1196  0.1794 -0.0407
33026ION     NA48920   9.549   2.318   9.661 -0.7197 -0.2018  0.1623
33027ION     NA48921   8.596  10.920   5.365 -0.0017 -0.3679 -0.0595
33028ION     NA48922   6.449  17.960   1.279  0.3104 -0.3177  0.3642
33029ION     NA48923   8.160  13.881   5.407  0.0514  0.3530 -0.1744
33030ION     NA48924   1.509   7.158   9.397  0.0290 -0.0007  0.4310
33031ION     NA48925   4.624   4.539   2.822 -0.1820 -0.0174 -0.0368
33032ION     NA48926  18.340   8.685   2.150 -0.1495  0.3378  0.2468
33033ION     NA48927  13.027  12.633  13.542  0.4377 -0.0761  0.1052
33034ION     NA48928  17.212   7.373  10.476  0.0950  0.1452 -0.2085
33035ION     NA48929   6.737   9.706   5.210  0.0785  0.2202  0.2017
33036ION     NA48930  10.421  15.759   9.673 -0.1083  0.0954 -0.0477
33037ION     NA48931   0.591  15.147   3.286 -0.0224  0.0996  0.2608
33038ION     NA48932  11.956  10.244   2.498  0.2987  0.1862 -0.2764
33039ION     NA48933   9.862   4.053   9.980  0.0653  0.0589  0.2705
33040ION     NA48934   4.155   3.741   9.747 -0.1568 -0.0821 -0.0011
33041ION     NA48935  11.958  16.068   9.499  0.0062  0.0899 -0.0541
33042ION     NA48936  12.086  15.240  12.004  0.0283 -0.2689 -0.2111
33043ION     NA48937  18.787  17.874  11.272  0.3966  0.1061  0.4495
33044ION     NA48938   0.213   1.155  10.112  0.1834 -0.1925  0.0503
33045ION     NA48939  16.415   2.877  13.027  0.0433  0.0411  0.1000
33046ION     NA48940  11.412  10.063   9.661  0.0756 -0.1911  0.2802
33047ION     NA48941  17.415  14.747   9.727 -0.2519  0.0225  0.0564
33048ION     NA48942  13.238  17.954   4.262  0.0337 -0.1752 -0.0689
33049ION     NA48943   4.384   9.239   4.733  0.1773  0.1482  0.1377
33050ION     NA48944  11.357  13.539   9.443  0.1496  0.1487 -0.1479
33051ION     NA48945   8.824   7.468   9.707  0.1459  0.0725 -0.1952
33052ION     NA48946   1.438   4.092   9.753  0.3353 -0.1284  0.2949
33053ION     NA48947  16.448  14.635   9.816  0.0629  0.3222  0.2003
33054ION     NA48948   6.687   0.960   4.289  0.3143  0.0301  0.2151
33055ION     NA48949   5.452  18.430   3.965 -0.0519  0.3224 -0.0246
33056ION     NA48950   2.543   6.949   9.706  0.0879  0.0561  0.2170
33057ION     NA48951   3.228  18.759  14.887 -0.1726 -0.1100  0.0378
33058ION     NA48952  16.730   9.080  10.136  0.1211 -0.2026 -0.2283
33059ION     NA48953  15.222  13.019   9.626  0.0716  0.1081 -0.2646
33060ION     NA48954  17.748  13.935   5.250 -0.1534 -0.0396  0.0663
33061ION     NA48955   3.890   1.308   9.464 -0.4390 -0.2658 -0.3178
33062ION     NA48956  14.862  16.734  14.598 -0.1431 -0.2248  0.0449
33063ION     NA48957   9.813   9.656   9.683  0.2327 -0.1520 -0.2097
33064ION     NA48958  16.731  18.219  10.603  0.0837  0.1998 -0.2291
33065ION     NA48959   4.374   2.552   2.135  0.0799 -0.0158 -0.2254
33066ION     NA48960  13.272   0.280  10.046  0.0714 -0.1756  0.1663
33067ION     NA48961   3.779   9.697   9.797  0.1487  0.0272  0.4177
33068ION     NA48962  17.887   9.499   9.506 -0.1034 -0.4858  0.1614
33069ION     NA48963   2.869  12.600   1.243  0.0809 -0.1176  0.2588
33070ION     NA48964   4.790  10.253   9.947  0.0895 -0.0684  0.0172
33071ION     NA48965  17.637   3.874  10.031 -0.4187  0.0329  0.4038
33072ION     NA48966  18.177  11.306   5.376 -0.2620 -0.1570  0.4212
33073ION     NA48967  18.659   9.080   9.619  0.1389  0.1689  0.0563
33074ION     NA48968  14.428  13.944  13.628  0.0463 -0.0343  0.1284
33075ION     NA48969  14.383  16.677  12.075 -0.1387 -0.0041  0.0246
33076ION     NA48970  10.331   0.811   9.496 -0.4412  0.0577  0.1917
33077ION     NA48971  15.812   8.621   9.923 -0.2862  0.3163  0.1910
33078ION     NA48972   0.261   9.630   9.456  0.1656 -0.1424 -0.0569
33079ION     NA48973   2.244  11.658  10.105  0.1231  0.1455  0.0473
33080ION     NA48974  12.611  17.169   2.067  0.0011 -0.0422 -0.1280
33081ION     NA48975   6.901   5.813   5.402 -0.0074  0.1348 -0.2744
33082ION     NA48976  18.685   9.853   9.474  0.0041  0.0374 -0.3717
33083ION     NA48977  12.472   0.940   9.976 -0.1139 -0.3226 -0.0606
33084ION     NA48978   6.624   5.124  14.642  0.2711  0.1288 -0.1634
33085ION     NA48979   2.087  13.787   0.712 -0.1924 -0.0605  0.0737
33086ION     NA48980  18.245  10.819   9.589 -0.0389 -0.2154  0.0175
33087ION     NA48981   0.427  10.829  14.914  0.2551 -0.4825  0.1813
33088ION     NA48982   0.961   6.539   9.667  0.0187 -0.2569 -0.2523
33089ION     NA48983   4.701   6.890   9.418 -0.3032  0.1455 -0.0685
33090ION     NA48984  17.514  11.339  12.165 -0.1105  0.4682 -0.0032
33091ION     NA48985  12.871  14.675  10.393  0.0825 -0.2419  0.0585
33092ION     NA48986  16.213  19.017  10.144  0.0445  0.2773  0.1192
33093ION     NA48987   7.436  13.021   9.642  0.0588 -0.1038 -0.0514
33094ION     NA48988   0.465  14.771  10.186 -0.0429 -0.1522  0.0310
33095ION     NA48989  10.959   1.288  13.693 -0.0966  0.3299 -0.3238
33096ION     NA48990  18.490   3.590   9.853 -0.0536  0.2492 -0.1179
33097ION     NA48991   6.207   7.886  12.302  0.1497  0.1482 -0.2540
33098ION     NA48992   2.965  12.765  13.188  0.3157 -0.2128  0.2694
33099ION     NA48993   4.536   5.824   4.594 -0.0427  0.3373  0.1651
33100ION     NA48994   0.891  10.447   9.470  0.2781 -0.0445  0.0379
33101ION     NA48995  14.715   4.385  12.902 -0.2496 -0.1531 -0.0684
33102ION     NA48996  18.397  16.564   5.709 -0.2561 -0.2422  0.0919
33103ION     NA48997   6.434  13.783   9.608 -0.0470 -0.1166  0.1631
33104ION     NA48998  18.130   9.042   0.409  0.0619 -0.0040 -0.2147
33105ION     NA48999   1.236   4.713   9.852 -0.2833 -0.1526  0.1526
33106ION     NA49000  10.033   7.596  10.022  0.2338 -0.5682  0.0364
33107ION     NA49001  11.707  17.823  10.064 -0.2962 -0.0072 -0.1293
33108ION     NA49002   8.039  11.767   3.999  0.0569  0.2122  0.2976
33109ION     NA49003   0.521  17.361  10.533  0.0668 -0.1214 -0.1051
33110ION     NA49004  15.147   1.613  10.133 -0.0752 -0.1933 -0.2954
33111ION     NA49005  12.081  14.195   9.738  0.0986 -0.0882 -0.1311
33112ION     NA49006  17.557  16.936  10.441 -0.0081  0.1092  0.0370
33113ION     NA49007  14.561  11.191  11.216  0.0639 -0.2215 -0.3891
33114ION     NA49008  12.679  10.817   9.819  0.0742 -0.3694  0.1784
33115ION     NA49009  17.596   8.834   9.733 -0.1134  0.0501  0.3414
33116ION     NA49010  14.622  16.537   2.062  0.0644 -0.0651 -0.2325
33117ION     NA49011   8.009  16.350   9.215  0.1151  0.0522 -0.0649
33118ION     NA49012  10.916  11.686   9.262 -0.2388  0.3433  0.1276
33119ION     NA49013  16.094   1.131   3.378  0.1308 -0.0258  0.0816
33120ION     NA49014  10.769  14.911   9.640 -0.1459  0.2794  0.2186
33121ION     NA49015   2.382  13.221   3.349  0.1008 -0.0931  0.1070
33122ION     NA49016  16.336  10.953   9.821 -0.0900 -0.2920  0.2431
33123ION     NA49017   3.374  13.100   9.894  0.2012  0.1013  0.0766
33124ION     NA49018   0.240   5.637   5.494 -0.1451 -0.1240 -0.0629
33125ION     NA49019   5.533   0.042  14.269  0.1548 -0.0915  0.1902
33126ION     NA49020   4.017   8.873   9.680  0.2265 -0.0029  0.2234
33127ION     NA49021   8.884   2.609   2.275  0.1648  0.1192  0.1736
33128ION     NA49022   5.436   5.122   9.621  0.0026 -0.4102 -0.1576
33129ION     NA49023  19.143  11.204   2.050  0.2194  0.2495  0.2539
33130ION     NA49024  15.740  15.418   9.640  0.5813  0.0116  0.0473
33131ION     NA49025  13.903   0.923   5.416  0.0235 -0.4137 -0.2237
33132ION     NA49026  17.174   1.455   4.980  0.2148  0.1636 -0.2446
33133ION     NA49027  12.582   0.492  13.497  0.1837 -0.1840  0.4003
33134ION     NA49028   9.541   8.496   5.409 -0.2713 -0.0308  0.0905
33135ION     NA49029  11.190   5.863  10.193  0.1666 -0.2119 -0.1613
33136ION     NA49030  13.971  16.286   5.178 -0.1155  0.0563  0.0349
33137ION     NA49031   7.657  15.485   9.353 -0.1710  0.0221  0.1614
33138ION     NA49032  12.939   0.856   4.714  0.1917  0.0911  0.1959
33139ION     NA49033  15.234  15.412   9.827  0.2622  0.0294 -0.0899
33140ION     NA49034   9.262   3.175   9.741 -0.3388 -0.1767  0.0763
33141ION     NA49035   7.308  10.484   9.996 -0.2529  0.0942  0.1676
33142ION     NA49036   2.035   3.504  10.761 -0.2524  0.0948  0.5199
33143ION     NA49037  11.260   0.204   5.418 -0.1573 -0.0676 -0.1900
33144ION     NA49038   0.864   7.716   2.801 -0.4879  0.0089  0.1749
33145ION     NA49039   8.634  15.692   9.410  0.0138  0.1110 -0.1734
33146ION     NA49040  18.149  17.721  10.207 -0.1628  0.0045 -0.0949
33147ION     NA49041   2.479   4.528   9.811 -0.2063  0.1001 -0.2163
33148ION     NA49042   2.562  15.772  10.038  0.1069 -0.0667 -0.0906
33149ION     NA49043   7.526   4.084  13.931 -0.0178 -0.2712  0.0514
33150ION     NA49044  16.472  17.330   9.916  0.1151 -0.0004  0.0414
33151ION     NA49045  15.969   7.701   2.379  0.1339 -0.0381 -0.4087
33152ION     NA49046   3.315  14.939  10.208 -0.2793 -0.0699 -0.0817
33153ION     NA49047  14.495   9.465   9.919  0.3203 -0.1176 -0.0129
33154ION     NA49048  17.563  13.141   5.629 -0.2977 -0.3054  0.1667
33155ION     NA49049  14.499   8.954   1.533 -0.1582 -0.3417 -0.1954
33156ION     NA49050   0.098  15.883   4.442 -0.0484  0.2317 -0.0164
33157ION     NA49051   5.268  16.239  10.800 -0.0445 -0.3302  0.0891
33158ION     NA49052  13.004   8.513  13.198 -0.0943 -0.1167 -0.4337
33159ION     NA49053  11.665   7.436   5.573 -0.0977 -0.1809 -0.2268
33160ION     NA49054   1.478   8.660   2.297  0.0537  0.0494 -0.0575
33161ION     NA49055   4.139  16.490   9.990  0.0360  0.1949  0.3744
33162ION     NA49056   8.553   4.532   1.205 -0.2623  0.0091  0.1503
33163ION     NA49057  10.876  11.197  13.414  0.1405  0.0414  0.2298
33164ION     NA49058   1.830   3.575  12.187 -0.0045 -0.0945  0.2285
33165ION     NA49059  13.534   0.132   0.157  0.2429  0.0585  0.1673
33166ION     NA49060   2.929  13.842  11.249 -0.1195 -0.1785  0.1485
33167ION     NA49061  18.307  16.333  10.027 -0.0407 -0.2928 -0.2570
33168ION     NA49062  13.346  14.689   9.604  0.0447 -0.0127  0.1316
33169ION     NA49063  13.095   7.483   9.932 -0.1048  0.0020  0.0638
33170ION     NA49064  15.604   6.163  10.442  0.1964  0.0492 -0.1734
33171ION     NA49065   9.243   5.632   2.749 -0.2950 -0.3258 -0.3909
33172ION     NA49066  11.854   8.046   0.472 -0.1337 -0.0817 -0.1798
33173ION     NA49067   3.138   6.077   9.490  0.1896 -0.0058 -0.2643
33174ION     NA49068  14.454  12.261  14.727  0.1466  0.1566 -0.2414
33175ION     NA49069  18.551   7.579   3.405  0.1182  0.1464 -0.2641
  19.18822  19.18822  15.19387
