INSANE! Membrane UpperLeaflet>loPI:POPI:DPPI:PYPI:ERGO=180.0:5.0:3.0:2.0:10.0 LowerLeaflet>PSPI:POPI:POPS:YOPS:POPE:YOPE:POPC:YOPC:ERGO=6.0:14.0:21.0:9.0:9.0:21.0:12.0:48.0:60.0
49069
    1loPI    C1    1  16.535   6.078  10.533  0.2844 -0.0916 -0.0945
    1loPI    C2    2  16.260   5.908  10.769 -0.0328  0.1205 -0.3036
    1loPI    C3    3  16.641   5.789  10.788 -0.0916 -0.0122  0.1602
    1loPI   PO4    4  16.409   6.094  10.353 -0.2709  0.1724 -0.0285
    1loPI   GL1    5  16.244   6.246   9.922  0.0686 -0.2547 -0.2932
    1loPI   GL2    6  16.063   6.347  10.091 -0.0814  0.0764 -0.0608
    1loPI   C1A    7  16.041   6.331   9.552 -0.1929  0.0060 -0.0905
    1loPI   C2A    8  16.253   6.281   9.222  0.1395 -0.0089 -0.1350
    1loPI   C3A    9  16.226   6.153   8.835  0.0287 -0.2917 -0.0864
    1loPI   C4A   10  16.222   6.276   8.396 -0.2515 -0.1177 -0.3295
    1loPI   C5A   11  16.522   6.557   8.154 -0.2370  0.0762 -0.0207
    1loPI   C6A   12  16.636   6.495   7.736 -0.3488 -0.0251 -0.0656
    1loPI   C1B   13  15.753   6.611   9.941 -0.2887  0.0889  0.2004
    1loPI   C2B   14  15.266   6.542   9.922 -0.1542 -0.2801 -0.4341
    1loPI   C3B   15  14.862   6.486   9.673 -0.2838 -0.0241  0.1346
    1loPI   C4B   16  14.592   6.323   9.251 -0.0579  0.2044  0.0788
    2loPI    C1   17  12.204   2.252  10.192  0.0984  0.0474 -0.2705
    2loPI    C2   18  11.819   2.314  10.281  0.1587  0.1972 -0.1069
    2loPI    C3   19  12.004   1.985  10.413  0.0256  0.0070 -0.3844
    2loPI   PO4   20  12.261   2.319   9.936  0.0558  0.0309 -0.0361
    2loPI   GL1   21  12.016   2.359   9.613  0.0038 -0.3117 -0.1702
    2loPI   GL2   22  11.699   2.297   9.604  0.0225  0.2161  0.1515
    2loPI   C1A   23  12.074   2.418   9.223 -0.2602  0.4758  0.0340
    2loPI   C2A   24  11.747   2.454   8.957  0.3212  0.1996 -0.0106
    2loPI   C3A   25  11.648   2.545   8.539  0.1772  0.2324  0.0506
    2loPI   C4A   26  11.457   2.681   8.207 -0.3640 -0.3608  0.1647
    2loPI   C5A   27  11.495   2.731   7.719  0.0825 -0.2283 -0.1625
    2loPI   C6A   28  11.517   2.448   7.486  0.0366 -0.1755  0.0424
    2loPI   C1B   29  11.939   1.895   9.363 -0.0479  0.2473 -0.0205
    2loPI   C2B   30  11.959   1.813   8.904  0.0046  0.0050 -0.1128
    2loPI   C3B   31  11.959   1.555   8.534  0.1258  0.1989  0.0059
    2loPI   C4B   32  11.994   1.232   8.175  0.2350 -0.1652 -0.2659
    3loPI    C1   33   3.247   4.693  10.230 -0.0904 -0.0310  0.0941
    3loPI    C2   34   3.505   4.960  10.377 -0.1960  0.1282 -0.0065
    3loPI    C3   35   3.244   4.780  10.621  0.0258 -0.0545  0.1005
    3loPI   PO4   36   3.166   4.786   9.924 -0.1782 -0.2521 -0.1399
    3loPI   GL1   37   3.121   4.596   9.464  0.2940 -0.0823  0.0205
    3loPI   GL2   38   3.386   4.715   9.463 -0.2145 -0.1814  0.0787
    3loPI   C1A   39   2.842   4.352   9.201  0.1537  0.0947  0.0549
    3loPI   C2A   40   2.556   4.316   8.902  0.1149  0.0093 -0.3048
    3loPI   C3A   41   2.606   4.113   8.500 -0.0771 -0.1938 -0.0171
    3loPI   C4A   42   2.866   4.045   8.088 -0.2822 -0.2256 -0.1022
    3loPI   C5A   43   3.003   4.355   7.758  0.0277  0.3421 -0.0329
    3loPI   C6A   44   3.184   4.405   7.345 -0.0825  0.2432 -0.2846
    3loPI   C1B   45   3.342   4.749   9.051  0.1631 -0.3251 -0.0506
    3loPI   C2B   46   3.456   4.788   8.640 -0.0099 -0.0291 -0.2556
    3loPI   C3B   47   3.596   4.885   8.164 -0.0394  0.0415 -0.0124
    3loPI   C4B   48   3.812   5.126   7.742 -0.1949  0.1574 -0.2157
    4loPI    C1   49   0.951   7.218  10.199 -0.2226  0.0648  0.1154
    4loPI    C2   50   0.924   6.830  10.105  0.0250  0.0835 -0.0418
    4loPI    C3   51   1.081   6.940  10.456  0.0371  0.0442 -0.0349
    4loPI   PO4   52   1.057   7.255   9.886 -0.0983 -0.1476  0.1482
    4loPI   GL1   53   1.240   6.810   9.558  0.1586 -0.0307 -0.3791
    4loPI   GL2   54   0.899   6.994   9.516 -0.1416 -0.2882 -0.1462
    4loPI   C1A   55   1.212   6.684   9.082 -0.0989 -0.1358 -0.2433
    4loPI   C2A   56   1.158   6.618   8.681  0.1470  0.2438  0.0457
    4loPI   C3A   57   1.184   6.593   8.232  0.1479 -0.0370 -0.1556
    4loPI   C4A   58   1.447   6.852   7.916 -0.2800  0.1499  0.2117
    4loPI   C5A   59   1.575   7.218   7.820 -0.0655  0.1991  0.0842
    4loPI   C6A   60   1.509   7.516   7.555  0.1900 -0.2572 -0.0023
    4loPI   C1B   61   0.744   6.951   9.170 -0.0060  0.0923 -0.1079
    4loPI   C2B   62   0.579   6.872   8.760 -0.1182 -0.1814 -0.2067
    4loPI   C3B   63   0.730   6.678   8.486 -0.0807  0.1375 -0.0795
    4loPI   C4B   64   0.828   6.820   8.048  0.0174 -0.4979  0.1981
    5loPI    C1   65   7.464  12.072  10.038  0.0886 -0.0328 -0.0640
    5loPI    C2   66   7.478  12.243  10.399 -0.0102  0.2032 -0.1693
    5loPI    C3   67   7.587  11.861  10.354 -0.1439  0.1256  0.1365
    5loPI   PO4   68   7.238  12.101   9.875  0.1209  0.0764 -0.0862
    5loPI   GL1   69   7.093  12.227   9.563 -0.1704 -0.0106  0.0360
    5loPI   GL2   70   6.852  11.988   9.414 -0.1011 -0.2426  0.3191
    5loPI   C1A   71   7.170  12.319   9.153 -0.1655 -0.1538 -0.2119
    5loPI   C2A   72   7.194  12.340   8.662  0.0704 -0.0441  0.1017
    5loPI   C3A   73   7.091  12.323   8.283 -0.4427 -0.0582 -0.1430
    5loPI   C4A   74   7.016  12.323   7.848 -0.0024  0.0933  0.1174
    5loPI   C5A   75   6.881  12.346   7.370  0.3848  0.1495 -0.3269
    5loPI   C6A   76   6.596  12.017   7.144 -0.2545  0.1782  0.1466
    5loPI   C1B   77   6.815  12.044   8.968 -0.1138  0.1494  0.3484
    5loPI   C2B   78   6.739  12.147   8.539  0.2068  0.1121 -0.0047
    5loPI   C3B   79   6.576  12.209   8.124  0.2310 -0.2639  0.1547
    5loPI   C4B   80   6.437  12.340   7.706  0.2204  0.1538 -0.0447
    6loPI    C1   81   5.273   3.834  10.210 -0.0502 -0.0712 -0.2169
    6loPI    C2   82   5.436   3.494  10.344  0.1190  0.1382  0.1232
    6loPI    C3   83   5.215   3.719  10.589  0.1297  0.3477 -0.0558
    6loPI   PO4   84   5.211   3.733   9.943 -0.2291  0.3607 -0.2265
    6loPI   GL1   85   4.917   3.744   9.674  0.0216 -0.0783 -0.0989
    6loPI   GL2   86   4.691   3.837   9.443 -0.2834 -0.1875  0.1893
    6loPI   C1A   87   5.102   3.808   9.276  0.0228  0.0202 -0.2207
    6loPI   C2A   88   5.162   3.805   8.746 -0.2053 -0.0021 -0.0457
    6loPI   C3A   89   5.324   3.776   8.318 -0.1476  0.1415 -0.2319
    6loPI   C4A   90   5.439   3.980   7.954  0.1246 -0.2328 -0.2107
    6loPI   C5A   91   5.817   4.045   7.728  0.0764  0.1291  0.0914
    6loPI   C6A   92   6.014   4.320   7.421 -0.0646 -0.0824 -0.1933
    6loPI   C1B   93   4.572   3.810   9.018  0.0581  0.1295 -0.1195
    6loPI   C2B   94   4.664   3.767   8.588  0.1247  0.3858  0.3978
    6loPI   C3B   95   4.689   3.743   8.090 -0.2592  0.1404  0.2912
    6loPI   C4B   96   4.990   3.584   7.977  0.0385 -0.1803 -0.1110
    7loPI    C1   97   5.573   4.922  10.277 -0.0473 -0.2969  0.0020
    7loPI    C2   98   5.864   5.096  10.490 -0.0143  0.1429 -0.3866
    7loPI    C3   99   5.839   4.697  10.473  0.1513  0.0989  0.1986
    7loPI   PO4  100   5.554   5.019  10.065 -0.2873  0.0316 -0.2082
    7loPI   GL1  101   5.825   5.092   9.815 -0.0073  0.3695  0.1147
    7loPI   GL2  102   6.067   4.846   9.627  0.2939  0.2526 -0.0108
    7loPI   C1A  103   5.689   5.128   9.400 -0.2505  0.1490 -0.0479
    7loPI   C2A  104   5.648   5.122   8.992  0.2305 -0.0435 -0.0048
    7loPI   C3A  105   5.381   5.036   8.753  0.0575 -0.1571  0.1403
    7loPI   C4A  106   5.183   4.938   8.387  0.2640 -0.0609 -0.0750
    7loPI   C5A  107   5.051   4.822   7.956 -0.0187  0.0446  0.0738
    7loPI   C6A  108   4.919   4.454   7.586 -0.0290 -0.1745 -0.2123
    7loPI   C1B  109   6.087   4.886   9.134  0.0572  0.3858 -0.1059
    7loPI   C2B  110   6.126   4.979   8.770  0.4185  0.2150  0.0599
    7loPI   C3B  111   6.228   5.049   8.280 -0.3857 -0.0285 -0.0518
    7loPI   C4B  112   6.104   5.212   7.937 -0.0532  0.4288  0.0847
    8loPI    C1  113   0.594  15.812  10.422 -0.1089 -0.1441  0.0894
    8loPI    C2  114   0.787  15.472  10.337  0.0188 -0.0594  0.0356
    8loPI    C3  115   0.765  15.600  10.715  0.2624  0.0448  0.0160
    8loPI   PO4  116   0.691  15.985  10.305  0.3731 -0.2216 -0.2240
    8loPI   GL1  117   0.750  16.200   9.950  0.5184  0.2898 -0.0682
    8loPI   GL2  118   0.987  16.382   9.778 -0.0486 -0.0119  0.2413
    8loPI   C1A  119   0.636  16.068   9.589 -0.4235 -0.1668 -0.0799
    8loPI   C2A  120   0.524  16.019   9.163 -0.2876 -0.2698 -0.2781
    8loPI   C3A  121   0.578  15.950   8.784  0.0947  0.1150 -0.3271
    8loPI   C4A  122   0.589  16.132   8.335  0.1269 -0.2767  0.0423
    8loPI   C5A  123   0.560  16.084   7.814 -0.0512 -0.0487  0.1105
    8loPI   C6A  124   0.775  16.253   7.442  0.0169  0.1555  0.0596
    8loPI   C1B  125   1.056  16.260   9.339  0.2790 -0.0910 -0.1489
    8loPI   C2B  126   1.024  16.102   8.927 -0.2058 -0.1537 -0.1202
    8loPI   C3B  127   1.080  16.093   8.474  0.0331 -0.0438 -0.3057
    8loPI   C4B  128   1.079  16.057   8.144 -0.1431 -0.0249 -0.0146
    9loPI    C1  129   4.894   6.884   9.658  0.1634 -0.0629 -0.1431
    9loPI    C2  130   5.213   6.644   9.683  0.3245  0.1425 -0.2051
    9loPI    C3  131   5.237   7.024   9.807  0.0258  0.0854  0.0401
    9loPI   PO4  132   4.722   6.696   9.721  0.1093 -0.0167 -0.1437
    9loPI   GL1  133   4.645   6.429   9.397  0.4112  0.0193 -0.1704
    9loPI   GL2  134   4.840   6.207   9.365 -0.0794  0.3477  0.1597
    9loPI   C1A  135   4.503   6.545   8.994 -0.1180  0.0319 -0.1947
    9loPI   C2A  136   4.432   6.672   8.487 -0.0983  0.2489  0.1430
    9loPI   C3A  137   4.643   6.572   8.028 -0.3535 -0.4465  0.1501
    9loPI   C4A  138   4.721   6.390   7.578  0.0581 -0.1786 -0.1847
    9loPI   C5A  139   4.492   6.143   7.308  0.0547  0.0629 -0.1300
    9loPI   C6A  140   4.179   6.171   6.956 -0.0089  0.0736 -0.1449
    9loPI   C1B  141   5.083   6.536   9.165  0.0055 -0.2262  0.2448
    9loPI   C2B  142   4.935   6.841   8.914  0.1558  0.0615 -0.1454
    9loPI   C3B  143   4.875   6.889   8.393  0.1336  0.2632  0.2609
    9loPI   C4B  144   4.546   7.025   7.998  0.0756  0.0945  0.0797
   10loPI    C1  145  14.567  12.618  10.604  0.0355  0.3190 -0.2726
   10loPI    C2  146  14.352  12.955  10.607 -0.1624  0.1941 -0.0031
   10loPI    C3  147  14.456  12.781  10.952 -0.1220 -0.0590 -0.1407
   10loPI   PO4  148  14.516  12.555  10.362  0.3509 -0.0723 -0.0845
   10loPI   GL1  149  14.670  12.491  10.022  0.1796  0.3750 -0.2229
   10loPI   GL2  150  14.764  12.215   9.989  0.2905 -0.0358 -0.0245
   10loPI   C1A  151  15.073  12.560   9.752 -0.1689 -0.0006  0.2168
   10loPI   C2A  152  15.298  12.766   9.436  0.0230 -0.1348  0.1811
   10loPI   C3A  153  15.523  13.015   9.263  0.1052  0.3270 -0.1863
   10loPI   C4A  154  15.915  13.169   9.129 -0.1743 -0.0904  0.0662
   10loPI   C5A  155  16.376  13.141   8.970  0.0979 -0.0155 -0.2197
   10loPI   C6A  156  16.795  13.090   8.676  0.2031  0.1245  0.1998
   10loPI   C1B  157  14.578  12.128   9.580  0.3773  0.0398 -0.0911
   10loPI   C2B  158  14.558  12.167   9.098  0.4014  0.2494  0.2405
   10loPI   C3B  159  14.942  12.334   8.838  0.0134 -0.0918  0.1410
   10loPI   C4B  160  15.237  12.608   9.002  0.0054 -0.0613  0.2208
   11loPI    C1  161  13.213  18.500  10.183  0.0906  0.2520  0.1877
   11loPI    C2  162  13.120  18.183  10.408 -0.1909 -0.1131 -0.4172
   11loPI    C3  163  12.925  18.528  10.459  0.0279 -0.0633  0.1583
   11loPI   PO4  164  13.146  18.410   9.922  0.0032  0.1696  0.4656
   11loPI   GL1  165  13.322  18.454   9.483 -0.2207  0.2701 -0.2242
   11loPI   GL2  166  13.043  18.665   9.466 -0.2409 -0.1048  0.1823
   11loPI   C1A  167  13.555  18.317   9.182 -0.0338 -0.1350 -0.2691
   11loPI   C2A  168  13.583  18.280   8.742 -0.1539  0.1140 -0.1693
   11loPI   C3A  169  13.553  18.360   8.330 -0.0204  0.0782  0.0355
   11loPI   C4A  170  13.222  18.499   8.041 -0.0159 -0.1027 -0.1593
   11loPI   C5A  171  12.785  18.516   7.945  0.0947  0.1157 -0.3789
   11loPI   C6A  172  12.418  18.590   7.729 -0.0205 -0.2077  0.0974
   11loPI   C1B  173  13.185  18.635   8.997  0.1216  0.0507  0.2127
   11loPI   C2B  174  13.114  18.666   8.546 -0.2097  0.0779  0.0160
   11loPI   C3B  175  13.063  18.921   8.237 -0.0139  0.0558  0.1590
   11loPI   C4B  176  12.935  19.198   7.821  0.0322  0.0632  0.2539
   12loPI    C1  177  17.389   8.412  10.488 -0.0898  0.0978 -0.1678
   12loPI    C2  178  17.013   8.278  10.516 -0.0271 -0.0905 -0.2162
   12loPI    C3  179  17.276   8.196  10.806  0.0185 -0.0953 -0.2590
   12loPI   PO4  180  17.429   8.488  10.276  0.1211 -0.0967  0.0128
   12loPI   GL1  181  17.473   8.393   9.917  0.0380 -0.0666  0.2424
   12loPI   GL2  182  17.844   8.247   9.870 -0.0075 -0.1435 -0.0552
   12loPI   C1A  183  17.316   8.573   9.440  0.1168 -0.0381  0.0804
   12loPI   C2A  184  17.471   8.690   9.052  0.0440 -0.1763  0.0166
   12loPI   C3A  185  17.161   8.632   8.755 -0.0396  0.1153  0.0087
   12loPI   C4A  186  17.055   8.525   8.431 -0.3677 -0.3113 -0.1193
   12loPI   C5A  187  16.671   8.674   8.125 -0.0566  0.0276 -0.0002
   12loPI   C6A  188  16.266   8.515   7.948 -0.0895  0.0602 -0.1882
   12loPI   C1B  189  17.723   8.207   9.482 -0.2563  0.3276 -0.1954
   12loPI   C2B  190  17.430   8.079   9.263 -0.0932 -0.2392 -0.1125
   12loPI   C3B  191  17.416   7.854   8.953  0.3264  0.0711 -0.3066
   12loPI   C4B  192  17.531   7.981   8.506  0.0969 -0.2756  0.0286
   13loPI    C1  193  15.573  15.283  10.366 -0.0546 -0.0357  0.2084
   13loPI    C2  194  15.843  15.169  10.638 -0.0286 -0.1374  0.1403
   13loPI    C3  195  15.459  15.208  10.742 -0.0620 -0.4234  0.1336
   13loPI   PO4  196  15.659  15.481  10.094  0.0588 -0.4670  0.2560
   13loPI   GL1  197  15.733  15.822   9.766  0.0363 -0.0909 -0.5760
   13loPI   GL2  198  15.834  15.991   9.776 -0.0927 -0.1782 -0.0194
   13loPI   C1A  199  15.616  15.600   9.454 -0.2313 -0.0357  0.1502
   13loPI   C2A  200  15.617  15.485   8.930 -0.3240 -0.1298 -0.0273
   13loPI   C3A  201  15.734  15.249   8.566  0.3509  0.1848 -0.2414
   13loPI   C4A  202  15.508  14.975   8.291  0.2335  0.1232 -0.1739
   13loPI   C5A  203  15.115  15.210   8.146 -0.0989  0.0593 -0.0835
   13loPI   C6A  204  14.728  15.439   8.010 -0.1079 -0.0994 -0.1556
   13loPI   C1B  205  16.042  15.905   9.374  0.2181 -0.3160 -0.0318
   13loPI   C2B  206  16.115  15.738   9.013 -0.0125 -0.0134 -0.1574
   13loPI   C3B  207  16.078  15.649   8.614  0.3187  0.0356  0.3700
   13loPI   C4B  208  16.081  15.483   8.194  0.0833 -0.1220 -0.2099
   14loPI    C1  209   3.748  18.085   9.875  0.1649  0.0673 -0.1127
   14loPI    C2  210   3.828  17.831  10.173 -0.0760 -0.1825 -0.2558
   14loPI    C3  211   3.930  18.217  10.206 -0.0405 -0.2200  0.1202
   14loPI   PO4  212   3.761  17.936   9.636 -0.1921  0.1233 -0.1466
   14loPI   GL1  213   3.841  17.987   9.261 -0.2212  0.0213 -0.0724
   14loPI   GL2  214   3.826  17.696   9.132 -0.3065  0.1580 -0.1536
   14loPI   C1A  215   3.732  18.268   8.983 -0.1384  0.0963  0.1769
   14loPI   C2A  216   3.489  18.472   8.566 -0.1017 -0.1300 -0.1583
   14loPI   C3A  217   3.317  18.530   8.274  0.2385 -0.4793 -0.3141
   14loPI   C4A  218   3.021  18.562   7.826  0.2030  0.1508 -0.3606
   14loPI   C5A  219   2.582  18.470   7.588  0.0469 -0.2901  0.0881
   14loPI   C6A  220   2.380  18.521   7.199 -0.0518 -0.0023 -0.3284
   14loPI   C1B  221   4.132  17.886   8.844  0.0199 -0.5163  0.2106
   14loPI   C2B  222   4.265  17.883   8.384 -0.2113 -0.1503  0.3603
   14loPI   C3B  223   4.569  18.008   8.041 -0.3114 -0.1203  0.0066
   14loPI   C4B  224   4.836  18.216   7.805 -0.0868 -0.1121 -0.1303
   15loPI    C1  225  14.734  11.322  10.714 -0.2674 -0.0051 -0.0044
   15loPI    C2  226  14.412  11.352  10.950 -0.1884 -0.0226  0.1065
   15loPI    C3  227  14.755  11.209  11.097 -0.0996  0.0961  0.0171
   15loPI   PO4  228  14.685  11.220  10.490  0.0523 -0.1872  0.1205
   15loPI   GL1  229  14.929  10.841  10.271  0.1448 -0.0104  0.0684
   15loPI   GL2  230  15.038  11.124  10.120  0.2543 -0.1322  0.3080
   15loPI   C1A  231  14.700  10.612   9.901 -0.3560  0.1240  0.1960
   15loPI   C2A  232  14.565  10.696   9.489 -0.1529  0.0264  0.1012
   15loPI   C3A  233  14.504  10.628   9.076  0.0126 -0.2669  0.4065
   15loPI   C4A  234  14.416  10.444   8.702  0.0445  0.0504  0.1495
   15loPI   C5A  235  14.414  10.596   8.238  0.4716  0.0014  0.2077
   15loPI   C6A  236  14.227  10.357   7.978  0.1272  0.2440 -0.1218
   15loPI   C1B  237  15.057  11.019   9.707 -0.0396  0.3010 -0.1912
   15loPI   C2B  238  14.969  10.898   9.199  0.1814 -0.2808  0.0810
   15loPI   C3B  239  14.931  10.785   8.848 -0.1141  0.3497 -0.0049
   15loPI   C4B  240  14.984  10.609   8.436  0.2284 -0.3679 -0.2172
   16loPI    C1  241   0.631   4.352  10.447  0.1640 -0.0046 -0.1655
   16loPI    C2  242   0.843   4.082  10.651 -0.0562 -0.2330 -0.2348
   16loPI    C3  243   0.524   4.255  10.820  0.1054  0.0133 -0.1775
   16loPI   PO4  244   0.685   4.310  10.205  0.0041 -0.0929 -0.1470
   16loPI   GL1  245   0.643   3.949   9.865 -0.3950  0.4711 -0.1013
   16loPI   GL2  246   0.724   4.119   9.612  0.1715  0.0619 -0.1513
   16loPI   C1A  247   0.424   3.677   9.706 -0.0673  0.0185 -0.0201
   16loPI   C2A  248   0.370   3.757   9.335 -0.0716  0.2492  0.4090
   16loPI   C3A  249   0.331   3.638   8.911 -0.3161  0.0534 -0.1657
   16loPI   C4A  250   0.522   3.361   8.600  0.0926 -0.1438 -0.1342
   16loPI   C5A  251   0.574   3.426   8.209  0.0849  0.1515 -0.0658
   16loPI   C6A  252   0.872   3.554   7.856  0.0945  0.1319 -0.1189
   16loPI   C1B  253   0.889   4.029   9.292  0.2130 -0.2670  0.1817
   16loPI   C2B  254   0.678   4.056   8.944 -0.0799 -0.4442 -0.0349
   16loPI   C3B  255   0.612   4.290   8.568 -0.2782 -0.0181  0.1839
   16loPI   C4B  256   0.600   4.466   8.151 -0.1283  0.1049  0.1185
   17loPI    C1  257  13.365   8.475  10.696  0.1577 -0.5769 -0.0187
   17loPI    C2  258  13.552   8.455  11.048  0.1129  0.1717  0.0645
   17loPI    C3  259  13.153   8.457  11.034  0.1091 -0.2722 -0.0295
   17loPI   PO4  260  13.497   8.698  10.555  0.2000  0.1733 -0.1833
   17loPI   GL1  261  13.301   8.974  10.290 -0.1955 -0.0370 -0.2280
   17loPI   GL2  262  13.087   9.187  10.275  0.0266  0.0848 -0.2978
   17loPI   C1A  263  13.513   9.048   9.972 -0.3427 -0.1594  0.0049
   17loPI   C2A  264  13.661   8.880   9.631 -0.2724  0.0212 -0.2086
   17loPI   C3A  265  13.676   8.689   9.286 -0.1276  0.0075 -0.1510
   17loPI   C4A  266  13.660   8.699   8.861  0.1139  0.1425  0.2487
   17loPI   C5A  267  13.621   8.774   8.356  0.2454 -0.0639 -0.1866
   17loPI   C6A  268  13.587   9.137   8.169  0.0567 -0.1738  0.0196
   17loPI   C1B  269  13.068   9.099   9.866 -0.1060  0.2356  0.0981
   17loPI   C2B  270  13.234   8.943   9.523  0.6025  0.1716  0.2447
   17loPI   C3B  271  13.261   9.063   9.089  0.0876  0.4749  0.2578
   17loPI   C4B  272  13.341   9.097   8.620  0.1519 -0.1863 -0.2746
   18loPI    C1  273  18.131   2.564  10.281  0.0827  0.2291  0.1182
   18loPI    C2  274  18.122   2.696  10.659 -0.0659  0.0954  0.1628
   18loPI    C3  275  18.444   2.501  10.522 -0.0007  0.1684  0.2118
   18loPI   PO4  276  17.968   2.605  10.133 -0.0673 -0.1304  0.1371
   18loPI   GL1  277  17.916   2.689   9.715 -0.0730 -0.2594  0.4035
   18loPI   GL2  278  17.666   2.578   9.505  0.1314  0.0053 -0.1493
   18loPI   C1A  279  18.279   2.498   9.558  0.2801  0.1806  0.0509
   18loPI   C2A  280  18.357   2.297   9.167 -0.2864 -0.0042 -0.3604
   18loPI   C3A  281  18.377   2.395   8.881 -0.0303  0.0869  0.0849
   18loPI   C4A  282  18.323   2.589   8.465 -0.1226 -0.1302  0.1351
   18loPI   C5A  283  18.557   2.476   8.083  0.0959 -0.1810 -0.1597
   18loPI   C6A  284  18.454   2.472   7.644 -0.1434  0.2104 -0.1053
   18loPI   C1B  285  17.905   2.569   9.162 -0.1652 -0.3061  0.1152
   18loPI   C2B  286  17.827   2.595   8.723 -0.2569  0.2803  0.3541
   18loPI   C3B  287  17.838   2.468   8.272  0.0569 -0.1824 -0.1810
   18loPI   C4B  288  17.961   2.529   7.839 -0.3270  0.2771  0.0385
   19loPI    C1  289   4.431  18.310  10.189 -0.0830  0.1917  0.2146
   19loPI    C2  290   4.652  18.496  10.465  0.2742 -0.0729  0.1153
   19loPI    C3  291   4.342  18.269  10.576  0.2354  0.0577  0.2773
   19loPI   PO4  292   4.300  18.536  10.020 -0.1442  0.1720 -0.0281
   19loPI   GL1  293   4.158  18.683   9.549 -0.0914  0.0890 -0.2430
   19loPI   GL2  294   4.157  18.337   9.553 -0.0581 -0.1813 -0.0140
   19loPI   C1A  295   4.193  19.085   9.342 -0.2061 -0.1313  0.0279
   19loPI   C2A  296   4.108  19.203   8.908 -0.2010 -0.2208  0.4115
   19loPI   C3A  297   4.133  19.317   8.449 -0.0512  0.0442 -0.0516
   19loPI   C4A  298   3.887  19.366   8.039 -0.0540  0.3818 -0.0063
   19loPI   C5A  299   4.100  19.254   7.730  0.1678  0.1309  0.4281
   19loPI   C6A  300   4.428  18.956   7.615  0.2112 -0.0150 -0.1039
   19loPI   C1B  301   4.214  18.376   9.082  0.0674  0.0277 -0.0364
   19loPI   C2B  302   4.312  18.329   8.662 -0.1137 -0.3733  0.2410
   19loPI   C3B  303   4.202  18.386   8.216 -0.0559  0.1279 -0.1520
   19loPI   C4B  304   4.050  18.082   7.978  0.2554  0.2950 -0.0497
   20loPI    C1  305  14.069   9.349  10.645  0.0222  0.3610  0.1416
   20loPI    C2  306  14.343   9.248  10.918 -0.0108 -0.0726  0.0212
   20loPI    C3  307  13.978   9.365  11.034  0.0888  0.0952  0.1697
   20loPI   PO4  308  14.270   9.467  10.415 -0.1926 -0.0853  0.1292
   20loPI   GL1  309  14.538   9.225  10.099  0.3319 -0.3550  0.2511
   20loPI   GL2  310  14.699   8.927  10.080  0.1618 -0.1648 -0.0223
   20loPI   C1A  311  14.376   9.309   9.707 -0.3739 -0.1861  0.0868
   20loPI   C2A  312  14.335   9.377   9.180  0.2114  0.2266 -0.0454
   20loPI   C3A  313  14.352   9.139   8.846  0.0420 -0.0119 -0.1816
   20loPI   C4A  314  14.507   9.172   8.547  0.2534  0.2424  0.0736
   20loPI   C5A  315  14.585   9.514   8.262 -0.2326  0.1240  0.0225
   20loPI   C6A  316  14.517  10.009   8.164 -0.0856 -0.0174 -0.1147
   20loPI   C1B  317  14.637   8.932   9.654 -0.1935  0.1094  0.0848
   20loPI   C2B  318  14.632   8.820   9.064 -0.0057 -0.1197  0.0883
   20loPI   C3B  319  14.832   8.850   8.714 -0.2141 -0.0984  0.0760
   20loPI   C4B  320  15.149   8.774   8.537  0.3479  0.3698 -0.2342
   21loPI    C1  321  17.518  18.089  10.080  0.0811  0.1981 -0.0216
   21loPI    C2  322  17.414  18.459   9.968 -0.2805  0.1568  0.1632
   21loPI    C3  323  17.732  18.404  10.204  0.0691  0.3021 -0.2598
   21loPI   PO4  324  17.264  17.970  10.116 -0.1028 -0.2371  0.1399
   21loPI   GL1  325  16.785  17.810   9.762 -0.1957 -0.0687 -0.0150
   21loPI   GL2  326  16.623  18.146   9.658  0.2400  0.1173  0.0456
   21loPI   C1A  327  16.836  17.852   9.309  0.2834 -0.0316 -0.0988
   21loPI   C2A  328  16.955  17.888   8.941 -0.0568 -0.1449  0.1729
   21loPI   C3A  329  16.983  18.124   8.537 -0.0882  0.0719  0.0439
   21loPI   C4A  330  17.170  18.308   8.189 -0.0879  0.3359  0.1142
   21loPI   C5A  331  17.215  18.703   8.078 -0.0098  0.2306 -0.2702
   21loPI   C6A  332  17.356  18.997   7.706 -0.0237  0.1161  0.0138
   21loPI   C1B  333  16.884  18.487   9.500 -0.1386 -0.1285  0.1725
   21loPI   C2B  334  17.039  18.958   9.521  0.1318  0.0856  0.0568
   21loPI   C3B  335  16.968  19.194   9.087  0.1432 -0.0294 -0.0077
   21loPI   C4B  336  17.088  19.041   8.730 -0.0377 -0.2124  0.1050
   22loPI    C1  337   0.372   8.064  10.343  0.2524 -0.0931  0.1430
   22loPI    C2  338   0.555   8.228  10.660  0.1951 -0.0921  0.1756
   22loPI    C3  339   0.384   7.868  10.692 -0.1722  0.0842  0.2643
   22loPI   PO4  340   0.512   8.059  10.096 -0.3286  0.4377  0.0327
   22loPI   GL1  341   0.336   8.194   9.643  0.0374 -0.0188  0.0477
   22loPI   GL2  342   0.658   8.108   9.563  0.0803 -0.1711  0.1105
   22loPI   C1A  343   0.311   8.390   9.275  0.1736 -0.3196 -0.2781
   22loPI   C2A  344   0.188   8.307   8.851  0.0471 -0.0284 -0.1420
   22loPI   C3A  345  -0.058   8.296   8.448  0.0378  0.1340 -0.2219
   22loPI   C4A  346  -0.346   8.161   8.172  0.0482  0.1505 -0.2172
   22loPI   C5A  347  -0.603   8.109   7.853  0.0152 -0.1677 -0.4973
   22loPI   C6A  348  -0.848   8.178   7.472 -0.1235  0.1081 -0.3533
   22loPI   C1B  349   0.625   7.930   9.174  0.2414 -0.0967  0.2309
   22loPI   C2B  350   0.501   7.917   8.775 -0.1524  0.4547 -0.2122
   22loPI   C3B  351   0.423   8.098   8.352 -0.0252 -0.0810  0.2300
   22loPI   C4B  352   0.330   8.327   7.960  0.1750  0.2902  0.1493
   23loPI    C1  353  10.687   0.032  10.151 -0.3114 -0.0277  0.2179
   23loPI    C2  354  10.710   0.428  10.206  0.3385 -0.0201 -0.0258
   23loPI    C3  355  10.705   0.182  10.522 -0.0241  0.1751  0.1256
   23loPI   PO4  356  10.570   0.039   9.939  0.0194 -0.0507  0.1085
   23loPI   GL1  357  10.659  -0.012   9.486 -0.3890 -0.1297 -0.3495
   23loPI   GL2  358  10.437  -0.312   9.636 -0.1176  0.0937  0.2068
   23loPI   C1A  359  10.790   0.212   9.196 -0.0513 -0.0550  0.0941
   23loPI   C2A  360  10.733   0.260   8.707  0.2375 -0.1232 -0.0417
   23loPI   C3A  361  10.664   0.163   8.293  0.1003 -0.0494 -0.0527
   23loPI   C4A  362  10.751  -0.101   7.991 -0.1062 -0.1273  0.0960
   23loPI   C5A  363  11.038  -0.098   7.621  0.1493 -0.0660  0.0651
   23loPI   C6A  364  11.353  -0.197   7.399  0.0905 -0.0726  0.3385
   23loPI   C1B  365  10.331  -0.492   9.186 -0.2172 -0.1664 -0.1363
   23loPI   C2B  366  10.282  -0.648   8.740  0.1818  0.1617 -0.2017
   23loPI   C3B  367  10.105  -0.892   8.463  0.1421 -0.1197 -0.1778
   23loPI   C4B  368  10.051  -1.143   8.104  0.0386 -0.2636  0.0401
   24loPI    C1  369  16.842   6.791  10.685  0.2261  0.1146 -0.0055
   24loPI    C2  370  16.719   7.057  10.957  0.1172  0.1098 -0.0497
   24loPI    C3  371  16.933   6.739  11.071 -0.2563 -0.0991  0.0874
   24loPI   PO4  372  16.758   6.911  10.482 -0.0013 -0.1222  0.2304
   24loPI   GL1  373  16.712   7.115  10.151 -0.2309 -0.0719  0.0385
   24loPI   GL2  374  16.792   6.875   9.928  0.2887 -0.0900 -0.1049
   24loPI   C1A  375  16.393   7.298   9.855  0.3234  0.1292 -0.3403
   24loPI   C2A  376  16.261   7.325   9.448 -0.1455  0.0182 -0.0309
   24loPI   C3A  377  16.230   7.285   9.041  0.1478  0.0710  0.0089
   24loPI   C4A  378  15.953   7.141   8.752  0.2004 -0.2068  0.1893
   24loPI   C5A  379  15.729   7.058   8.322 -0.0567 -0.0390  0.1129
   24loPI   C6A  380  15.764   7.411   8.024  0.2358 -0.0019  0.2465
   24loPI   C1B  381  16.681   6.909   9.523  0.0179 -0.0998 -0.2401
   24loPI   C2B  382  16.407   6.884   9.262  0.0750  0.1333 -0.2392
   24loPI   C3B  383  16.002   6.760   9.025 -0.0537  0.0509 -0.0680
   24loPI   C4B  384  15.789   6.615   8.670  0.0461  0.3634  0.0943
   25loPI    C1  385   2.072   3.577  10.378 -0.0763  0.0808  0.1302
   25loPI    C2  386   2.405   3.648  10.589 -0.0878 -0.0028  0.1766
   25loPI    C3  387   2.213   3.299  10.628 -0.0590 -0.0412 -0.0137
   25loPI   PO4  388   2.126   3.535  10.074 -0.0938 -0.1373 -0.1302
   25loPI   GL1  389   1.802   3.629   9.687  0.3851 -0.0849 -0.0316
   25loPI   GL2  390   1.906   3.799   9.485 -0.0337 -0.0392 -0.1279
   25loPI   C1A  391   1.731   3.289   9.328 -0.0808 -0.1761  0.2104
   25loPI   C2A  392   1.534   3.037   8.943  0.1893  0.1154  0.2629
   25loPI   C3A  393   1.689   2.715   8.670 -0.0402  0.1181  0.1078
   25loPI   C4A  394   1.733   2.574   8.311  0.0666 -0.1144 -0.0111
   25loPI   C5A  395   1.867   2.411   7.938 -0.0107  0.1226  0.1117
   25loPI   C6A  396   2.297   2.207   7.861  0.0464 -0.0079  0.3648
   25loPI   C1B  397   1.823   3.677   9.026  0.0040  0.0510 -0.0035
   25loPI   C2B  398   1.691   3.462   8.688  0.5939 -0.2064 -0.0456
   25loPI   C3B  399   1.590   3.141   8.386  0.3150  0.1067 -0.1398
   25loPI   C4B  400   1.671   3.008   7.999  0.0671  0.1643 -0.2875
   26loPI    C1  401   8.868   6.947  10.331 -0.0489 -0.2148 -0.1651
   26loPI    C2  402   8.511   6.843  10.480  0.0336 -0.0938  0.1249
   26loPI    C3  403   8.791   6.998  10.721  0.1117  0.2682 -0.1891
   26loPI   PO4  404   8.955   6.765  10.220  0.0732  0.1400 -0.0852
   26loPI   GL1  405   9.076   6.634   9.757 -0.1969  0.0261  0.2245
   26loPI   GL2  406   9.367   6.748   9.688 -0.1861 -0.1823 -0.0570
   26loPI   C1A  407   8.968   6.620   9.330  0.0949  0.0995  0.2020
   26loPI   C2A  408   9.284   6.729   9.074  0.0705 -0.3914 -0.0466
   26loPI   C3A  409   9.315   6.797   8.672 -0.0912  0.0606 -0.1806
   26loPI   C4A  410   9.470   6.570   8.348  0.2087 -0.0132 -0.1752
   26loPI   C5A  411   9.216   6.248   8.184 -0.0539  0.1656  0.2532
   26loPI   C6A  412   8.934   5.985   8.042 -0.2451 -0.0946 -0.2055
   26loPI   C1B  413   9.707   6.899   9.528  0.2386  0.0588 -0.3348
   26loPI   C2B  414   9.853   6.905   9.187  0.0011 -0.1481  0.0805
   26loPI   C3B  415  10.221   6.916   8.957  0.3021 -0.0492 -0.0407
   26loPI   C4B  416  10.325   6.678   8.616 -0.1497  0.1465 -0.2587
   27loPI    C1  417   7.952   7.619  10.402  0.0749 -0.1599  0.0933
   27loPI    C2  418   8.300   7.745  10.249  0.0498 -0.2167 -0.0115
   27loPI    C3  419   8.272   7.660  10.639  0.0966 -0.0074  0.0387
   27loPI   PO4  420   7.805   7.588  10.105  0.0241 -0.1142 -0.1594
   27loPI   GL1  421   8.071   7.506   9.732 -0.3631 -0.1158 -0.0353
   27loPI   GL2  422   8.192   7.872   9.765 -0.1697  0.0429 -0.2607
   27loPI   C1A  423   7.953   7.559   9.268  0.1337 -0.0940  0.2897
   27loPI   C2A  424   8.140   7.600   8.775 -0.0876  0.0761 -0.0196
   27loPI   C3A  425   8.239   7.612   8.392  0.0510  0.0881  0.1359
   27loPI   C4A  426   8.249   7.796   8.023  0.1796 -0.1889  0.1315
   27loPI   C5A  427   8.837   7.833   7.893 -0.0936  0.1639  0.0241
   27loPI   C6A  428   9.296   7.892   7.860  0.1245  0.1806 -0.2372
   27loPI   C1B  429   8.369   7.930   9.438 -0.3458  0.0543 -0.1425
   27loPI   C2B  430   8.483   7.915   9.016 -0.0848  0.1134 -0.1260
   27loPI   C3B  431   8.520   8.011   8.626  0.1348 -0.0887  0.0203
   27loPI   C4B  432   8.585   8.137   8.171  0.0370 -0.0003 -0.4628
   28loPI    C1  433  17.494  17.138   9.921  0.0736 -0.0225 -0.2590
   28loPI    C2  434  17.747  16.952  10.169 -0.1980 -0.1924 -0.1045
   28loPI    C3  435  17.818  16.954   9.776  0.1970  0.0158 -0.0374
   28loPI   PO4  436  17.250  17.032  10.042  0.1503  0.0569  0.0615
   28loPI   GL1  437  17.112  16.689   9.856 -0.0563 -0.2536  0.3771
   28loPI   GL2  438  16.881  16.892   9.693  0.0296 -0.0516  0.2431
   28loPI   C1A  439  17.373  16.584   9.523 -0.0241  0.3707  0.3743
   28loPI   C2A  440  17.442  16.624   9.083  0.0919  0.0552  0.0983
   28loPI   C3A  441  17.314  16.685   8.714 -0.0389 -0.2311  0.2708
   28loPI   C4A  442  17.182  16.579   8.292 -0.1720  0.4067  0.1227
   28loPI   C5A  443  17.079  16.786   7.851  0.1542  0.2664 -0.2681
   28loPI   C6A  444  16.768  16.770   7.612  0.1186 -0.0402  0.0892
   28loPI   C1B  445  17.068  16.915   9.246  0.2092  0.4032 -0.1344
   28loPI   C2B  446  16.995  17.030   8.872  0.0938 -0.1778  0.1038
   28loPI   C3B  447  17.221  17.139   8.525 -0.0427 -0.0677 -0.2184
   28loPI   C4B  448  17.162  17.208   8.063 -0.2438  0.1865  0.2112
   29loPI    C1  449   9.848   5.039  10.124 -0.0392  0.0052 -0.2849
   29loPI    C2  450   9.892   4.657  10.234 -0.2038 -0.0076 -0.2600
   29loPI    C3  451   9.564   4.859  10.342 -0.0229  0.2033 -0.0959
   29loPI   PO4  452  10.019   5.038   9.862  0.2629 -0.1003  0.1040
   29loPI   GL1  453   9.768   5.204   9.530 -0.0709  0.0215  0.1061
   29loPI   GL2  454   9.959   5.454   9.467 -0.1413 -0.3003 -0.1632
   29loPI   C1A  455   9.510   5.411   9.101 -0.0791 -0.2486  0.2009
   29loPI   C2A  456   9.657   5.388   8.660 -0.2063  0.1263  0.3441
   29loPI   C3A  457   9.678   5.262   8.286 -0.0262  0.1506 -0.1782
   29loPI   C4A  458   9.664   5.241   7.874  0.0374 -0.0774 -0.0681
   29loPI   C5A  459   9.593   5.532   7.516  0.1699 -0.2291  0.0734
   29loPI   C6A  460   9.481   5.723   7.097  0.0193  0.2293  0.0568
   29loPI   C1B  461  10.068   5.636   9.104 -0.0491 -0.1141  0.0803
   29loPI   C2B  462  10.193   5.643   8.740  0.1697  0.1894 -0.0669
   29loPI   C3B  463  10.027   5.753   8.357  0.4427  0.0294 -0.2147
   29loPI   C4B  464   9.865   5.694   7.996 -0.0166  0.1513 -0.0409
   30loPI    C1  465  12.648  12.113  10.616 -0.0116  0.0265  0.0181
   30loPI    C2  466  12.251  12.087  10.659  0.0138 -0.2340  0.1162
   30loPI    C3  467  12.482  12.159  10.977  0.0431 -0.0283  0.0504
   30loPI   PO4  468  12.711  12.207  10.450  0.1100 -0.3500  0.2461
   30loPI   GL1  469  12.815  12.160  10.013 -0.1997  0.2381  0.2986
   30loPI   GL2  470  13.064  11.923  10.061  0.1304 -0.1962  0.1209
   30loPI   C1A  471  12.736  12.256   9.597  0.2162 -0.1434  0.0234
   30loPI   C2A  472  12.899  12.276   9.230  0.0266  0.2513 -0.2053
   30loPI   C3A  473  12.843  12.536   8.935 -0.1293 -0.2889  0.1986
   30loPI   C4A  474  12.961  12.767   8.614  0.0591  0.3528 -0.1676
   30loPI   C5A  475  12.972  13.080   8.435 -0.1645  0.0455 -0.0910
   30loPI   C6A  476  13.121  13.294   8.125 -0.0927 -0.1712 -0.1260
   30loPI   C1B  477  13.121  11.874   9.647  0.2959 -0.0569 -0.2053
   30loPI   C2B  478  13.265  11.937   9.222  0.1355 -0.0675  0.2485
   30loPI   C3B  479  13.117  12.131   8.773 -0.0312 -0.0943  0.0680
   30loPI   C4B  480  13.096  12.332   8.437  0.1502 -0.5195  0.3054
   31loPI    C1  481   3.431   3.203  10.180 -0.1245  0.0333 -0.0850
   31loPI    C2  482   3.457   3.534  10.402 -0.0195 -0.0022 -0.0439
   31loPI    C3  483   3.343   3.190  10.570  0.3448 -0.0950  0.0232
   31loPI   PO4  484   3.400   3.344   9.926 -0.2794 -0.0335 -0.2711
   31loPI   GL1  485   3.354   3.465   9.524  0.2640 -0.1491 -0.1605
   31loPI   GL2  486   3.269   3.131   9.481  0.0380  0.2274  0.1277
   31loPI   C1A  487   3.130   3.571   9.195  0.0683  0.1145 -0.3045
   31loPI   C2A  488   3.142   3.447   8.714  0.0934  0.0888 -0.1781
   31loPI   C3A  489   3.092   3.249   8.384  0.4500 -0.1812  0.4546
   31loPI   C4A  490   3.288   3.139   7.962 -0.0216 -0.3092 -0.1563
   31loPI   C5A  491   3.282   3.356   7.634 -0.0465 -0.3437  0.1629
   31loPI   C6A  492   3.213   3.622   7.338  0.2420  0.0483  0.1540
   31loPI   C1B  493   3.389   3.146   9.037 -0.2536 -0.2245  0.1268
   31loPI   C2B  494   3.458   3.011   8.611  0.3593 -0.0564  0.0641
   31loPI   C3B  495   3.616   2.820   8.215  0.1070 -0.2033 -0.2151
   31loPI   C4B  496   3.692   2.826   7.739  0.2055 -0.0093 -0.1182
   32loPI    C1  497   6.234  11.158  10.321  0.0383  0.2002 -0.1153
   32loPI    C2  498   6.462  11.375  10.568  0.2830 -0.3174  0.1292
   32loPI    C3  499   6.432  10.980  10.620 -0.2127 -0.3400 -0.2597
   32loPI   PO4  500   6.283  11.104  10.083  0.3370 -0.3442  0.0116
   32loPI   GL1  501   6.179  11.145   9.781  0.0553 -0.1582  0.5046
   32loPI   GL2  502   6.101  11.472   9.726 -0.0390  0.2520 -0.1655
   32loPI   C1A  503   6.180  11.033   9.249  0.3099 -0.3524 -0.1423
   32loPI   C2A  504   5.942  10.822   8.862  0.0013 -0.1592 -0.2604
   32loPI   C3A  505   5.972  10.649   8.489 -0.3128 -0.0696 -0.0967
   32loPI   C4A  506   6.068  10.624   8.044  0.0939 -0.2926  0.1350
   32loPI   C5A  507   6.075  10.815   7.760 -0.2614 -0.2867  0.1861
   32loPI   C6A  508   5.931  10.896   7.347 -0.0201  0.2334 -0.0616
   32loPI   C1B  509   6.063  11.594   9.362  0.2689  0.0632  0.0698
   32loPI   C2B  510   6.075  11.429   9.001 -0.0948  0.0626 -0.1280
   32loPI   C3B  511   5.828  11.331   8.690 -0.1264  0.3308  0.1038
   32loPI   C4B  512   5.638  11.332   8.284 -0.2267 -0.1458 -0.1224
   33loPI    C1  513   3.614   4.305  10.093 -0.0049  0.3515  0.1286
   33loPI    C2  514   3.383   4.018  10.248  0.1312  0.0147 -0.2750
   33loPI    C3  515   3.775   4.025  10.329  0.0817  0.2545 -0.0436
   33loPI   PO4  516   3.483   4.312   9.801  0.3532  0.2486  0.3255
   33loPI   GL1  517   3.843   4.464   9.505  0.2403 -0.1917  0.2783
   33loPI   GL2  518   4.008   4.686   9.409  0.2171  0.4330  0.0560
   33loPI   C1A  519   3.705   4.310   9.187 -0.0626  0.0027 -0.0374
   33loPI   C2A  520   3.785   4.423   8.722  0.2674  0.1903 -0.1053
   33loPI   C3A  521   3.925   4.396   8.221  0.1466  0.1460 -0.2437
   33loPI   C4A  522   3.988   4.512   7.879 -0.2476  0.2044  0.0032
   33loPI   C5A  523   4.234   4.930   7.539  0.1191  0.0626 -0.2445
   33loPI   C6A  524   4.435   5.084   7.053 -0.2065  0.0801  0.3289
   33loPI   C1B  525   3.930   4.797   9.052 -0.0087 -0.0048 -0.1818
   33loPI   C2B  526   3.925   4.841   8.610 -0.1210  0.2631 -0.0634
   33loPI   C3B  527   4.107   4.960   8.259 -0.0468  0.2110 -0.0722
   33loPI   C4B  528   4.259   5.216   7.970 -0.2874 -0.2971  0.2966
   34loPI    C1  529  15.236   4.057   9.801  0.1824  0.0525 -0.0269
   34loPI    C2  530  15.555   3.891   9.976  0.2551 -0.0926 -0.2925
   34loPI    C3  531  15.200   3.708   9.993  0.1942  0.0453 -0.0376
   34loPI   PO4  532  15.333   4.292   9.749 -0.0315  0.4128 -0.2273
   34loPI   GL1  533  15.211   4.432   9.423 -0.0209 -0.0997  0.2496
   34loPI   GL2  534  15.394   4.781   9.611 -0.0252 -0.0411 -0.0192
   34loPI   C1A  535  15.333   4.512   8.941 -0.1701 -0.2578 -0.3204
   34loPI   C2A  536  15.381   4.426   8.573  0.0836 -0.4497  0.3471
   34loPI   C3A  537  15.514   4.227   8.179  0.0851  0.4473 -0.1082
   34loPI   C4A  538  15.679   4.219   7.667  0.0997  0.0866  0.0267
   34loPI   C5A  539  15.521   3.813   7.379 -0.0150 -0.0506 -0.0042
   34loPI   C6A  540  15.243   3.491   7.506  0.0945 -0.0129  0.0450
   34loPI   C1B  541  15.416   4.926   9.253 -0.0036  0.2104  0.0183
   34loPI   C2B  542  15.664   5.256   8.968  0.2463 -0.0963 -0.0503
   34loPI   C3B  543  16.089   5.258   8.833 -0.0108 -0.2259 -0.0958
   34loPI   C4B  544  16.341   4.991   8.610 -0.2195 -0.1413 -0.0580
   35loPI    C1  545   0.694  12.506  10.497 -0.0273 -0.1783  0.0411
   35loPI    C2  546   0.313  12.385  10.515  0.0041 -0.2616  0.1647
   35loPI    C3  547   0.566  12.295  10.811  0.0659 -0.0182  0.1887
   35loPI   PO4  548   0.688  12.427  10.219 -0.1161  0.1052  0.0614
   35loPI   GL1  549   0.542  12.628   9.852 -0.0662 -0.1789  0.2965
   35loPI   GL2  550   0.541  12.866  10.014 -0.1301 -0.4229  0.0322
   35loPI   C1A  551   0.415  12.829   9.435 -0.0656  0.0130  0.4417
   35loPI   C2A  552   0.253  12.914   8.999  0.1210  0.0475  0.2472
   35loPI   C3A  553   0.242  12.946   8.569 -0.1521  0.2167  0.0305
   35loPI   C4A  554   0.533  12.962   8.106 -0.1824 -0.3506 -0.2927
   35loPI   C5A  555   0.949  13.090   8.012  0.0034 -0.0612  0.0317
   35loPI   C6A  556   1.183  13.547   7.947 -0.1947  0.4024 -0.1946
   35loPI   C1B  557   0.826  13.072   9.711  0.1221 -0.4167  0.0895
   35loPI   C2B  558   0.795  13.330   9.426 -0.2182  0.2984  0.2754
   35loPI   C3B  559   0.699  13.135   9.065  0.1379 -0.0423 -0.1492
   35loPI   C4B  560   0.722  13.125   8.536  0.2845  0.0156  0.1834
   36loPI    C1  561  16.382  15.152  10.671  0.0507 -0.1354  0.0548
   36loPI    C2  562  16.353  15.097  11.066  0.2380  0.1419  0.1110
   36loPI    C3  563  16.203  15.428  10.899 -0.0950 -0.1055 -0.0943
   36loPI   PO4  564  16.291  14.974  10.542  0.1761 -0.2745 -0.0262
   36loPI   GL1  565  16.276  14.870  10.144 -0.2290 -0.1564 -0.0127
   36loPI   GL2  566  15.887  15.003  10.030 -0.1684  0.0729 -0.1334
   36loPI   C1A  567  16.290  14.915   9.698  0.1868  0.0306  0.2597
   36loPI   C2A  568  16.371  14.944   9.341 -0.3275  0.1533  0.2433
   36loPI   C3A  569  16.444  14.790   8.906 -0.2766 -0.1771 -0.2761
   36loPI   C4A  570  16.258  14.378   8.639 -0.2408 -0.1423  0.0852
   36loPI   C5A  571  16.132  14.121   8.294 -0.1237  0.3036  0.1663
   36loPI   C6A  572  15.961  13.698   8.325  0.0950 -0.0665  0.1056
   36loPI   C1B  573  15.761  15.009   9.634 -0.2759 -0.1976  0.1940
   36loPI   C2B  574  15.869  14.848   9.176 -0.0089  0.0836 -0.0101
   36loPI   C3B  575  15.961  14.819   8.730 -0.2743  0.5378  0.2787
   36loPI   C4B  576  15.923  14.712   8.400  0.0239 -0.1384 -0.1493
   37loPI    C1  577   9.626   3.268  10.339  0.0532 -0.2925  0.0088
   37loPI    C2  578   9.423   3.503  10.590 -0.1032 -0.1621 -0.2352
   37loPI    C3  579   9.702   3.253  10.731  0.0540  0.1553  0.0302
   37loPI   PO4  580   9.620   3.410  10.078  0.1472  0.2752 -0.1712
   37loPI   GL1  581   9.704   3.581   9.673  0.2224 -0.2943 -0.1215
   37loPI   GL2  582   9.739   3.899   9.541  0.2890  0.5084 -0.0645
   37loPI   C1A  583  10.008   3.473   9.431 -0.2611  0.1248 -0.0538
   37loPI   C2A  584   9.914   3.136   9.323  0.0242  0.2624  0.1828
   37loPI   C3A  585   9.924   2.771   9.097  0.2552  0.1003 -0.0592
   37loPI   C4A  586  10.064   2.733   8.604 -0.0136 -0.0166 -0.0376
   37loPI   C5A  587  10.185   2.735   8.162  0.1514  0.2428  0.1230
   37loPI   C6A  588  10.086   3.023   7.782 -0.0068 -0.2654 -0.1311
   37loPI   C1B  589   9.824   3.843   9.147  0.1725  0.2781 -0.1516
   37loPI   C2B  590   9.942   3.550   8.768 -0.0105  0.0155  0.0673
   37loPI   C3B  591   9.880   3.547   8.426 -0.0723  0.1424  0.0818
   37loPI   C4B  592   9.830   3.297   8.114 -0.1710 -0.2826  0.3486
   38loPI    C1  593   2.205  11.593  10.156 -0.2159 -0.2171  0.0394
   38loPI    C2  594   2.023  11.889  10.354  0.0645  0.0827 -0.1401
   38loPI    C3  595   2.138  11.559  10.549 -0.1928  0.1166  0.0750
   38loPI   PO4  596   2.123  11.605   9.933  0.3912  0.0297 -0.1028
   38loPI   GL1  597   2.312  11.709   9.524 -0.2582  0.2683 -0.1988
   38loPI   GL2  598   1.934  11.833   9.554 -0.1793  0.1041  0.4462
   38loPI   C1A  599   2.443  11.674   9.085 -0.0599  0.0706 -0.1449
   38loPI   C2A  600   2.557  11.755   8.619 -0.0222 -0.2307  0.1313
   38loPI   C3A  601   2.449  12.029   8.296 -0.3013  0.1431  0.1849
   38loPI   C4A  602   2.510  12.237   7.994  0.0254  0.0890 -0.2480
   38loPI   C5A  603   2.147  12.399   7.739 -0.0637  0.1433  0.0761
   38loPI   C6A  604   2.093  12.354   7.358 -0.2616 -0.0191 -0.1183
   38loPI   C1B  605   2.006  11.876   9.096  0.1147  0.0988  0.2954
   38loPI   C2B  606   2.132  11.848   8.700 -0.0602  0.0807 -0.1015
   38loPI   C3B  607   2.080  11.679   8.360  0.0830 -0.0016  0.1897
   38loPI   C4B  608   1.980  11.220   8.248 -0.1994  0.1090 -0.0099
   39loPI    C1  609  11.675   0.792  10.359 -0.0065 -0.4007  0.4598
   39loPI    C2  610  11.523   1.132  10.505  0.2136 -0.1723  0.1702
   39loPI    C3  611  11.371   0.779  10.618 -0.1899  0.0293  0.2743
   39loPI   PO4  612  11.714   0.869  10.045 -0.0169  0.1308  0.1946
   39loPI   GL1  613  11.825   0.816   9.599  0.0158  0.1676  0.0397
   39loPI   GL2  614  11.892   0.499   9.392 -0.1945  0.1761  0.3980
   39loPI   C1A  615  11.551   0.844   9.303 -0.0195 -0.0459  0.2273
   39loPI   C2A  616  11.483   0.909   8.926  0.0801  0.1936  0.0034
   39loPI   C3A  617  11.297   0.782   8.555  0.1132  0.2054 -0.0653
   39loPI   C4A  618  11.270   0.764   8.103 -0.0424  0.0225  0.2847
   39loPI   C5A  619  11.539   0.478   7.755 -0.1736  0.0077 -0.0807
   39loPI   C6A  620  11.325   0.309   7.477  0.0820  0.1240 -0.3815
   39loPI   C1B  621  11.725   0.483   8.979 -0.2498 -0.0107 -0.0095
   39loPI   C2B  622  11.627   0.432   8.604 -0.1684 -0.0310 -0.0172
   39loPI   C3B  623  11.606   0.280   8.244  0.3905 -0.4184 -0.0945
   39loPI   C4B  624  11.577  -0.071   7.914 -0.0706 -0.2002 -0.2105
   40loPI    C1  625   0.575   0.679  10.274 -0.1168 -0.2704 -0.1068
   40loPI    C2  626   0.359   0.662  10.610 -0.1033  0.1940 -0.0692
   40loPI    C3  627   0.718   0.486  10.595 -0.1199  0.1386  0.1474
   40loPI   PO4  628   0.577   1.017  10.218  0.0246 -0.0876  0.1097
   40loPI   GL1  629   0.899   1.300   9.928 -0.1258 -0.0010 -0.0591
   40loPI   GL2  630   1.226   1.170   9.959 -0.3481  0.0204 -0.2641
   40loPI   C1A  631   0.718   1.373   9.516  0.0934 -0.1867  0.1591
   40loPI   C2A  632   0.370   1.520   9.189 -0.1852  0.2537  0.1314
   40loPI   C3A  633   0.084   1.529   8.796  0.2278 -0.3750  0.0696
   40loPI   C4A  634   0.301   1.651   8.379 -0.0713 -0.1171 -0.3851
   40loPI   C5A  635   0.107   1.976   8.027 -0.1224  0.1135 -0.2557
   40loPI   C6A  636   0.008   2.156   7.698  0.1771  0.3243  0.1363
   40loPI   C1B  637   1.204   1.172   9.451 -0.0989  0.0402 -0.1719
   40loPI   C2B  638   1.225   1.259   9.006 -0.1373  0.0168  0.2302
   40loPI   C3B  639   1.141   1.199   8.626  0.5030  0.2915 -0.1008
   40loPI   C4B  640   0.988   1.433   8.333  0.0772  0.2078  0.0866
   41loPI    C1  641   2.602   5.834   9.908  0.2331 -0.0194  0.0993
   41loPI    C2  642   2.678   5.584  10.211 -0.0553 -0.0558  0.1442
   41loPI    C3  643   2.945   5.864  10.112  0.2098 -0.2906  0.1824
   41loPI   PO4  644   2.480   5.732   9.741 -0.1683  0.1269  0.0120
   41loPI   GL1  645   2.420   5.699   9.361  0.2524 -0.2931 -0.0418
   41loPI   GL2  646   2.750   5.762   9.304 -0.0656 -0.3884 -0.0380
   41loPI   C1A  647   2.384   5.723   8.951  0.3014 -0.3436  0.0817
   41loPI   C2A  648   2.106   5.764   8.538  0.2380  0.1618  0.0402
   41loPI   C3A  649   1.694   5.921   8.279 -0.3971 -0.0361 -0.0705
   41loPI   C4A  650   1.304   6.019   7.985 -0.1074 -0.1698  0.1379
   41loPI   C5A  651   1.227   6.406   7.769 -0.1567  0.0270  0.0377
   41loPI   C6A  652   1.523   6.637   7.475  0.2065  0.1746 -0.1022
   41loPI   C1B  653   2.902   5.733   8.810  0.2146 -0.1974  0.2576
   41loPI   C2B  654   2.907   5.629   8.356 -0.0601  0.2139 -0.1064
   41loPI   C3B  655   2.939   5.648   7.937  0.2475  0.1098 -0.2063
   41loPI   C4B  656   2.537   5.688   7.709  0.1760 -0.1338  0.4344
   42loPI    C1  657   4.038   6.819   9.965  0.0131 -0.3145  0.0987
   42loPI    C2  658   4.213   6.780   9.608 -0.0694 -0.0236  0.0235
   42loPI    C3  659   4.070   6.458   9.797 -0.1395 -0.1639 -0.2634
   42loPI   PO4  660   3.948   7.108   9.888 -0.3004 -0.0804  0.0795
   42loPI   GL1  661   4.118   7.273   9.500  0.3484 -0.0356  0.0402
   42loPI   GL2  662   4.079   7.591   9.435 -0.0488 -0.0615 -0.4002
   42loPI   C1A  663   3.916   6.989   9.158 -0.2024  0.1619  0.0560
   42loPI   C2A  664   4.109   6.903   8.818 -0.2402  0.1186  0.0273
   42loPI   C3A  665   4.096   7.051   8.364 -0.0053 -0.2375 -0.1351
   42loPI   C4A  666   3.984   7.350   8.304 -0.1388 -0.1047 -0.0475
   42loPI   C5A  667   3.819   7.606   7.961 -0.2559 -0.1318  0.2389
   42loPI   C6A  668   3.943   7.736   7.599  0.0113  0.0429  0.1152
   42loPI   C1B  669   3.702   7.442   9.232 -0.0804 -0.1106 -0.0353
   42loPI   C2B  670   3.397   7.013   9.131 -0.1555  0.0526  0.2864
   42loPI   C3B  671   3.170   6.840   8.718 -0.2185 -0.1729 -0.2609
   42loPI   C4B  672   3.309   6.537   8.351 -0.1894  0.1631 -0.0017
   43loPI    C1  673  12.991   3.075  10.220 -0.0205 -0.1348 -0.2054
   43loPI    C2  674  13.229   2.871  10.469  0.0135  0.0900 -0.0512
   43loPI    C3  675  12.840   2.783  10.448  0.0556 -0.0892 -0.0956
   43loPI   PO4  676  13.010   3.059   9.986  0.4434  0.2069  0.0362
   43loPI   GL1  677  13.082   3.272   9.632 -0.2459  0.0726 -0.0319
   43loPI   GL2  678  13.405   3.030   9.627  0.2204 -0.1324 -0.0924
   43loPI   C1A  679  12.921   3.218   9.285  0.2352  0.0580  0.2007
   43loPI   C2A  680  12.759   3.471   8.939 -0.2433  0.2153 -0.0644
   43loPI   C3A  681  12.693   3.389   8.592 -0.2588 -0.3230  0.0242
   43loPI   C4A  682  12.717   3.387   8.163  0.2574  0.1621  0.4912
   43loPI   C5A  683  12.756   3.195   7.862 -0.2117 -0.0284  0.0797
   43loPI   C6A  684  12.498   3.100   7.591  0.3924 -0.1404  0.2351
   43loPI   C1B  685  13.423   3.129   9.159  0.0320 -0.2414  0.0521
   43loPI   C2B  686  13.569   3.085   8.685 -0.0987 -0.0097 -0.1308
   43loPI   C3B  687  13.578   3.207   8.280 -0.0593  0.1645  0.1056
   43loPI   C4B  688  13.995   3.390   8.158 -0.0927  0.1972  0.0770
   44loPI    C1  689   0.759  10.357  10.421  0.0110 -0.0483  0.0875
   44loPI    C2  690   0.518  10.398  10.737  0.0431  0.2861  0.0715
   44loPI    C3  691   0.913  10.440  10.781  0.0796 -0.0198  0.0519
   44loPI   PO4  692   0.462  10.481  10.266  0.1820 -0.1942  0.3590
   44loPI   GL1  693   0.409  10.662   9.869 -0.2404 -0.1474  0.2276
   44loPI   GL2  694   0.804  10.683   9.896 -0.3087  0.0830 -0.1572
   44loPI   C1A  695   0.077  10.915   9.580  0.3146 -0.2674  0.0459
   44loPI   C2A  696  -0.035  11.001   9.116 -0.0889 -0.0161  0.2710
   44loPI   C3A  697  -0.083  11.063   8.730  0.0257  0.0268  0.0521
   44loPI   C4A  698  -0.056  11.151   8.425  0.0432  0.1224  0.1199
   44loPI   C5A  699   0.056  11.068   8.057 -0.2078  0.0777  0.0333
   44loPI   C6A  700   0.002  10.740   7.789 -0.0781  0.0235 -0.1575
   44loPI   C1B  701   0.840  10.535   9.475 -0.2039 -0.1902  0.2217
   44loPI   C2B  702   0.792  10.526   8.987  0.0422 -0.0150  0.1941
   44loPI   C3B  703   0.745  10.525   8.507  0.1908 -0.4111  0.1611
   44loPI   C4B  704   0.920  10.566   8.109  0.0577 -0.2023  0.3285
   45loPI    C1  705   0.851   7.891  10.428  0.0573 -0.0897 -0.0825
   45loPI    C2  706   0.966   7.541  10.582 -0.2343 -0.0749  0.1787
   45loPI    C3  707   0.884   7.848  10.824  0.0652  0.1922 -0.0504
   45loPI   PO4  708   0.947   7.723  10.116  0.0512  0.0726  0.5390
   45loPI   GL1  709   0.646   7.639   9.808 -0.4332 -0.0776 -0.1754
   45loPI   GL2  710   0.978   7.585   9.507 -0.0309 -0.1193 -0.1357
   45loPI   C1A  711   0.485   7.486   9.323 -0.4198 -0.1379  0.0507
   45loPI   C2A  712   0.554   7.420   8.845  0.1992  0.0466 -0.0577
   45loPI   C3A  713   0.325   7.553   8.434  0.0525 -0.2664 -0.0284
   45loPI   C4A  714   0.080   7.355   8.183  0.3515  0.0709 -0.1676
   45loPI   C5A  715  -0.257   7.191   7.976 -0.4003  0.0100  0.0597
   45loPI   C6A  716  -0.414   7.090   7.540 -0.0581 -0.1674  0.0138
   45loPI   C1B  717   0.986   7.608   9.059  0.2872 -0.2675  0.0119
   45loPI   C2B  718   0.926   7.646   8.601  0.1680  0.2065 -0.0009
   45loPI   C3B  719   0.881   7.798   8.185 -0.0201 -0.0293  0.0278
   45loPI   C4B  720   0.550   7.830   7.921 -0.0008 -0.1789  0.1340
   46loPI    C1  721   8.951  12.589  10.193 -0.2311 -0.1696  0.2570
   46loPI    C2  722   8.947  12.201  10.293  0.0327 -0.1958  0.1737
   46loPI    C3  723   9.286  12.411  10.320 -0.0890  0.0085  0.1355
   46loPI   PO4  724   8.742  12.525  10.008 -0.1111  0.0760  0.0614
   46loPI   GL1  725   8.746  12.651   9.544  0.0838 -0.0965  0.0037
   46loPI   GL2  726   8.417  12.676   9.338 -0.0351  0.5623 -0.0021
   46loPI   C1A  727   8.858  13.038   9.357 -0.2354 -0.0836 -0.1981
   46loPI   C2A  728   8.918  13.347   9.095 -0.3337  0.0812 -0.1704
   46loPI   C3A  729   8.641  13.556   8.622  0.4878  0.1561  0.0603
   46loPI   C4A  730   8.540  13.658   8.130  0.2122  0.2987  0.1237
   46loPI   C5A  731   8.395  13.537   7.678 -0.0734  0.1856 -0.0060
   46loPI   C6A  732   8.214  13.448   7.292  0.0491  0.1056 -0.0889
   46loPI   C1B  733   8.473  12.546   9.027 -0.5116  0.0572  0.1870
   46loPI   C2B  734   8.596  12.291   8.662  0.3592  0.0895 -0.3063
   46loPI   C3B  735   8.765  12.169   8.225  0.0596 -0.0488 -0.3099
   46loPI   C4B  736   8.606  11.958   7.895 -0.0026 -0.1347  0.0801
   47loPI    C1  737  13.533   9.101  10.797  0.1715  0.0303 -0.0426
   47loPI    C2  738  13.507   9.335  11.120  0.2461  0.0419 -0.0449
   47loPI    C3  739  13.277   9.009  11.091  0.2201  0.0554  0.0076
   47loPI   PO4  740  13.550   9.317  10.617 -0.1411 -0.2215  0.0627
   47loPI   GL1  741  13.652   9.426  10.230 -0.1296 -0.1286 -0.0169
   47loPI   GL2  742  13.548   9.634  10.153  0.1883 -0.1207  0.0836
   47loPI   C1A  743  13.910   9.348   9.855  0.0108 -0.0431 -0.0001
   47loPI   C2A  744  13.855   9.241   9.383  0.0186  0.0370  0.0675
   47loPI   C3A  745  13.897   9.102   8.980 -0.0304  0.0369 -0.1334
   47loPI   C4A  746  13.978   9.063   8.465 -0.2959  0.0654 -0.1861
   47loPI   C5A  747  14.232   8.915   8.194 -0.1914 -0.2904  0.1396
   47loPI   C6A  748  14.517   9.062   7.921 -0.1975  0.1172 -0.1089
   47loPI   C1B  749  13.439   9.539   9.761 -0.1259 -0.1295  0.0489
   47loPI   C2B  750  13.421   9.426   9.379 -0.0573 -0.2315  0.0567
   47loPI   C3B  751  13.546   9.580   8.912  0.1162  0.2284  0.2102
   47loPI   C4B  752  13.490   9.629   8.501 -0.0323 -0.1316  0.0414
   48loPI    C1  753   6.272  16.945   9.535 -0.0680  0.2322  0.0372
   48loPI    C2  754   6.062  16.768   9.827  0.1030 -0.0513 -0.0080
   48loPI    C3  755   6.383  16.990   9.917  0.0628 -0.0080  0.0290
   48loPI   PO4  756   6.236  16.624   9.352 -0.1084 -0.2112  0.1487
   48loPI   GL1  757   6.133  16.562   8.940  0.1360 -0.2842  0.0819
   48loPI   GL2  758   5.805  16.525   9.064  0.0899 -0.1306  0.1689
   48loPI   C1A  759   6.257  16.633   8.512  0.3444 -0.2546  0.1185
   48loPI   C2A  760   6.357  16.490   8.087  0.0254 -0.0856 -0.0505
   48loPI   C3A  761   6.271  16.265   7.795 -0.1177 -0.0313 -0.1798
   48loPI   C4A  762   6.370  15.948   7.602 -0.2393 -0.2789  0.1487
   48loPI   C5A  763   6.845  15.887   7.242  0.1136 -0.2032 -0.1697
   48loPI   C6A  764   7.110  16.107   6.900 -0.3932  0.0934  0.0385
   48loPI   C1B  765   5.771  16.256   8.711  0.0764 -0.2671 -0.0952
   48loPI   C2B  766   5.900  15.917   8.624 -0.0749 -0.1899 -0.2831
   48loPI   C3B  767   6.147  15.510   8.623  0.2329 -0.2743  0.0702
   48loPI   C4B  768   6.112  15.114   8.630  0.2094  0.6447 -0.0774
   49loPI    C1  769   0.824  14.270  10.058  0.1418 -0.0806 -0.1708
   49loPI    C2  770   0.496  14.106  10.219  0.2420 -0.1245 -0.0096
   49loPI    C3  771   0.828  14.148  10.439  0.3059  0.0351 -0.1346
   49loPI   PO4  772   0.758  14.528   9.954  0.0425  0.1676 -0.0706
   49loPI   GL1  773   0.967  14.873   9.579 -0.1351 -0.1030  0.0216
   49loPI   GL2  774   0.868  15.047   9.474  0.2114  0.1073 -0.0995
   49loPI   C1A  775   1.181  14.725   9.195  0.1108  0.3856 -0.0697
   49loPI   C2A  776   1.007  14.749   8.835 -0.1206 -0.0297  0.1865
   49loPI   C3A  777   0.775  14.647   8.372  0.3896  0.3586 -0.1359
   49loPI   C4A  778   0.476  14.813   8.040 -0.1679 -0.4565  0.1661
   49loPI   C5A  779   0.272  15.168   7.813  0.3591  0.0745 -0.2796
   49loPI   C6A  780   0.013  15.241   7.487 -0.2616  0.1996  0.1934
   49loPI   C1B  781   0.722  15.032   9.061 -0.2317  0.0219  0.1567
   49loPI   C2B  782   0.446  14.805   8.733 -0.3493  0.0530 -0.1813
   49loPI   C3B  783   0.136  14.868   8.427 -0.1864 -0.4622 -0.2270
   49loPI   C4B  784  -0.008  14.879   8.084  0.0321  0.0638 -0.1279
   50loPI    C1  785   8.824   1.432  10.077  0.0049 -0.1249 -0.1986
   50loPI    C2  786   9.114   1.678   9.951 -0.0432 -0.0854 -0.2327
   50loPI    C3  787   8.944   1.735  10.309 -0.0776 -0.0488 -0.2547
   50loPI   PO4  788   8.905   1.169   9.918 -0.0273 -0.2058  0.3271
   50loPI   GL1  789   9.218   1.263   9.615 -0.1583 -0.2155 -0.1037
   50loPI   GL2  790   9.404   1.455   9.578  0.1489 -0.1412  0.1178
   50loPI   C1A  791   9.249   0.891   9.221  0.2764  0.0731  0.2600
   50loPI   C2A  792   9.614   0.820   8.957 -0.0838  0.1413  0.0474
   50loPI   C3A  793   9.762   0.763   8.541 -0.2581 -0.0063  0.0072
   50loPI   C4A  794   9.922   0.779   8.091 -0.0047  0.1068 -0.0381
   50loPI   C5A  795   9.825   0.601   7.680  0.3714  0.2002  0.3671
   50loPI   C6A  796   9.772   0.588   7.240  0.0128 -0.0911 -0.1209
   50loPI   C1B  797   9.281   1.384   9.135  0.1522 -0.1652 -0.0728
   50loPI   C2B  798   9.273   1.108   8.726  0.2100  0.5448 -0.0147
   50loPI   C3B  799   9.278   0.726   8.345  0.0797  0.0007 -0.4415
   50loPI   C4B  800   9.500   0.573   8.016 -0.0138  0.0898  0.1277
   51loPI    C1  801   0.126   9.741  10.197 -0.0892  0.2734  0.1315
   51loPI    C2  802   0.076   9.738  10.594  0.0536  0.0393  0.1497
   51loPI    C3  803   0.267  10.043  10.419 -0.0560  0.1690  0.2537
   51loPI   PO4  804  -0.081   9.520  10.153  0.4343 -0.0538  0.3569
   51loPI   GL1  805  -0.164   9.531   9.791  0.0985 -0.0544  0.0245
   51loPI   GL2  806  -0.336   9.497   9.554 -0.1341 -0.3027  0.3741
   51loPI   C1A  807  -0.082   9.915   9.498  0.0343  0.2038  0.0352
   51loPI   C2A  808   0.022   9.998   9.130  0.3569  0.0417 -0.1618
   51loPI   C3A  809   0.354  10.148   8.947 -0.0138 -0.2009 -0.2367
   51loPI   C4A  810   0.332  10.168   8.486 -0.0514  0.0927 -0.3183
   51loPI   C5A  811   0.396  10.072   8.198  0.0765 -0.0405  0.1972
   51loPI   C6A  812   0.421  10.452   8.012  0.0545 -0.2302  0.0845
   51loPI   C1B  813  -0.432   9.600   9.172  0.2150  0.0462 -0.0970
   51loPI   C2B  814  -0.772   9.668   8.923  0.0858  0.5009  0.1018
   51loPI   C3B  815  -0.836   9.891   8.544  0.4200  0.1277  0.2635
   51loPI   C4B  816  -0.668  10.266   8.585  0.1654  0.1855  0.0506
   52loPI    C1  817   1.138  17.867  10.161  0.1008 -0.2205 -0.0310
   52loPI    C2  818   1.378  17.626  10.372 -0.0975 -0.2966  0.1112
   52loPI    C3  819   1.041  17.766  10.536  0.0290  0.1037  0.0404
   52loPI   PO4  820   1.130  17.694   9.913  0.0705 -0.0554  0.1859
   52loPI   GL1  821   1.002  17.747   9.504 -0.0468  0.4454  0.0203
   52loPI   GL2  822   0.814  17.616   9.287  0.0393  0.1165  0.0493
   52loPI   C1A  823   1.226  17.737   9.074  0.1250 -0.0406 -0.3121
   52loPI   C2A  824   1.319  17.884   8.605  0.1887  0.2212 -0.2906
   52loPI   C3A  825   1.484  17.847   8.167  0.1927 -0.7298 -0.1647
   52loPI   C4A  826   1.896  17.962   8.015 -0.0179  0.0499 -0.2810
   52loPI   C5A  827   2.145  17.682   7.861 -0.0627  0.0233 -0.0489
   52loPI   C6A  828   2.534  17.557   7.847 -0.2407  0.0581 -0.1711
   52loPI   C1B  829   0.581  17.670   8.890  0.0694 -0.1735 -0.1185
   52loPI   C2B  830   0.324  17.801   8.550  0.0507 -0.2091 -0.0651
   52loPI   C3B  831   0.345  17.829   8.128  0.0463  0.1109  0.1385
   52loPI   C4B  832   0.449  17.839   7.709  0.0720 -0.1724 -0.3112
   53loPI    C1  833   8.793   8.656  10.283 -0.0723  0.0364 -0.1534
   53loPI    C2  834   8.916   8.283  10.207  0.0377  0.0887 -0.2358
   53loPI    C3  835   8.527   8.358  10.267  0.0379 -0.0698 -0.0273
   53loPI   PO4  836   8.869   8.746  10.024 -0.0739 -0.2104  0.1287
   53loPI   GL1  837   9.086   8.379   9.761 -0.2131  0.0203  0.1304
   53loPI   GL2  838   8.825   8.539   9.588 -0.1854  0.2026  0.1180
   53loPI   C1A  839   9.271   8.184   9.382 -0.0258 -0.1453 -0.0303
   53loPI   C2A  840   9.336   8.289   9.020 -0.1205  0.0963  0.0670
   53loPI   C3A  841   9.402   8.192   8.615 -0.0352  0.0178 -0.0501
   53loPI   C4A  842   9.526   8.010   8.240  0.0133 -0.0375 -0.0537
   53loPI   C5A  843   9.761   8.008   7.700 -0.1889 -0.3931 -0.0287
   53loPI   C6A  844  10.312   8.025   7.747 -0.1069  0.1453 -0.1195
   53loPI   C1B  845   8.606   8.348   9.231  0.1855 -0.0516 -0.0665
   53loPI   C2B  846   8.855   8.354   8.856  0.0688  0.1303 -0.4104
   53loPI   C3B  847   8.831   8.494   8.446 -0.2466  0.0729  0.0558
   53loPI   C4B  848   9.231   8.668   8.264  0.0863  0.0894  0.0117
   54loPI    C1  849   7.981   7.098  10.356 -0.0418  0.0611 -0.1383
   54loPI    C2  850   8.236   7.168  10.656 -0.1505  0.1039 -0.0549
   54loPI    C3  851   8.062   6.810  10.621 -0.0763  0.0733 -0.1143
   54loPI   PO4  852   8.216   7.209  10.121  0.0281  0.0639 -0.1037
   54loPI   GL1  853   8.595   6.933   9.897  0.1355 -0.1506 -0.1758
   54loPI   GL2  854   8.609   6.557   9.738 -0.0144 -0.1870  0.0264
   54loPI   C1A  855   8.558   6.942   9.456  0.0458 -0.0214  0.1542
   54loPI   C2A  856   8.671   6.848   9.046  0.0108  0.0849  0.2681
   54loPI   C3A  857   8.681   7.011   8.676 -0.0642 -0.2876 -0.2125
   54loPI   C4A  858   8.624   7.165   8.251 -0.1338 -0.0069 -0.2629
   54loPI   C5A  859   8.359   7.307   7.924 -0.0429  0.1048 -0.0392
   54loPI   C6A  860   8.074   7.431   7.593  0.1207 -0.0705 -0.1169
   54loPI   C1B  861   8.542   6.357   9.324 -0.1055 -0.2112 -0.0626
   54loPI   C2B  862   8.823   6.319   8.966  0.0010 -0.0126 -0.3269
   54loPI   C3B  863   8.864   6.465   8.616  0.0463 -0.0343  0.1046
   54loPI   C4B  864   8.985   6.706   8.303 -0.1149 -0.1846 -0.0453
   55loPI    C1  865  14.363  11.710  10.593  0.0425  0.1020 -0.2775
   55loPI    C2  866  13.986  11.639  10.704  0.1669  0.0309  0.1148
   55loPI    C3  867  14.241  11.811  10.960  0.4015  0.0800 -0.1478
   55loPI   PO4  868  14.440  11.713  10.444  0.1077  0.4814  0.0025
   55loPI   GL1  869  14.491  11.533  10.113  0.1612 -0.0021  0.0766
   55loPI   GL2  870  14.194  11.437  10.018 -0.2280 -0.0509  0.2467
   55loPI   C1A  871  14.594  11.641   9.722  0.4122  0.2619  0.0940
   55loPI   C2A  872  14.565  11.700   9.255 -0.2543 -0.1079  0.0911
   55loPI   C3A  873  14.532  11.593   8.741 -0.0414  0.3664  0.3800
   55loPI   C4A  874  14.595  11.490   8.292 -0.1068 -0.0841 -0.2019
   55loPI   C5A  875  14.334  11.652   7.923  0.2372 -0.1962  0.1721
   55loPI   C6A  876  13.968  11.580   7.853  0.4873 -0.2550 -0.3364
   55loPI   C1B  877  14.096  11.375   9.628  0.0926  0.0500  0.0369
   55loPI   C2B  878  14.124  11.390   9.181  0.0805  0.2249 -0.1340
   55loPI   C3B  879  14.053  11.339   8.792 -0.0355  0.0713 -0.0413
   55loPI   C4B  880  14.007  11.297   8.322 -0.4731 -0.4405 -0.0079
   56loPI    C1  881   6.762   8.239  10.313  0.2648 -0.0181 -0.0044
   56loPI    C2  882   6.712   8.625  10.406  0.1982  0.0134 -0.1674
   56loPI    C3  883   6.627   8.341  10.676  0.0038  0.1026 -0.1331
   56loPI   PO4  884   6.737   8.326  10.015  0.0685 -0.1441 -0.0551
   56loPI   GL1  885   6.833   8.528   9.613  0.0373 -0.0106  0.2109
   56loPI   GL2  886   6.531   8.655   9.573  0.2160 -0.2155 -0.1999
   56loPI   C1A  887   6.798   8.433   9.081  0.2700 -0.0899  0.1531
   56loPI   C2A  888   6.953   8.440   8.570 -0.5271  0.3189  0.0389
   56loPI   C3A  889   7.155   8.610   8.349 -0.0651  0.0853  0.2959
   56loPI   C4A  890   7.143   8.461   7.891  0.1196  0.1556  0.1216
   56loPI   C5A  891   7.065   8.182   7.590  0.0242  0.1047 -0.0098
   56loPI   C6A  892   7.159   7.902   7.315 -0.2311  0.3969  0.2013
   56loPI   C1B  893   6.675   8.918   9.202 -0.0989  0.1470  0.1500
   56loPI   C2B  894   6.483   8.763   8.745  0.0373  0.3358  0.3682
   56loPI   C3B  895   6.348   8.561   8.430 -0.1270  0.2546 -0.2529
   56loPI   C4B  896   6.146   8.187   8.249  0.1032  0.3347  0.0432
   57loPI    C1  897  10.649   8.730  10.679  0.0703  0.1066 -0.0154
   57loPI    C2  898  10.263   8.628  10.704  0.0611  0.1105 -0.1355
   57loPI    C3  899  10.464   8.734  11.033 -0.0009 -0.0336 -0.0505
   57loPI   PO4  900  10.723   8.562  10.467  0.0120 -0.0585  0.0346
   57loPI   GL1  901  10.780   8.392  10.063  0.0372 -0.0821  0.2007
   57loPI   GL2  902  10.984   8.450   9.916  0.1588  0.1981 -0.2659
   57loPI   C1A  903  10.680   8.300   9.582 -0.3248  0.1361  0.1143
   57loPI   C2A  904  10.556   8.251   9.218  0.2894  0.0113  0.1265
   57loPI   C3A  905  10.345   8.344   8.957  0.0246  0.0509  0.3636
   57loPI   C4A  906  10.237   8.451   8.565  0.0723 -0.2847 -0.1035
   57loPI   C5A  907  10.406   8.460   8.218  0.1706  0.2551  0.5014
   57loPI   C6A  908  10.482   8.679   7.874 -0.0290  0.0446  0.0142
   57loPI   C1B  909  10.972   8.802   9.618 -0.0397  0.2565 -0.0591
   57loPI   C2B  910  11.003   9.154   9.390  0.1288  0.1091  0.1250
   57loPI   C3B  911  10.907   9.382   8.983  0.1300 -0.2480 -0.1405
   57loPI   C4B  912  10.854   9.224   8.602  0.0773 -0.0080 -0.0048
   58loPI    C1  913   6.831   2.398  10.267  0.2020 -0.1047 -0.3052
   58loPI    C2  914   6.494   2.245  10.419  0.2098  0.0205 -0.1586
   58loPI    C3  915   6.840   2.197  10.613  0.1864  0.3578 -0.0278
   58loPI   PO4  916   6.799   2.420   9.893  0.2505 -0.5188 -0.0529
   58loPI   GL1  917   6.672   2.510   9.445  0.2870  0.0716  0.0375
   58loPI   GL2  918   6.493   2.658   9.256  0.0581  0.2896 -0.0320
   58loPI   C1A  919   6.799   2.538   8.913  0.1580 -0.0777  0.2511
   58loPI   C2A  920   6.702   2.375   8.420  0.0233 -0.0804 -0.1197
   58loPI   C3A  921   6.482   2.484   7.977 -0.2730 -0.1875  0.1327
   58loPI   C4A  922   6.392   2.277   7.466  0.0438  0.0616  0.1763
   58loPI   C5A  923   5.954   2.069   7.400 -0.1503 -0.2215 -0.4473
   58loPI   C6A  924   5.944   1.683   7.216 -0.3307  0.2358 -0.1232
   58loPI   C1B  925   6.364   2.843   8.912 -0.0510  0.2683  0.0266
   58loPI   C2B  926   6.450   2.815   8.442 -0.3179 -0.4231  0.1378
   58loPI   C3B  927   6.411   3.082   8.021  0.0525  0.1592  0.1257
   58loPI   C4B  928   6.537   3.199   7.527  0.2734  0.0274  0.1424
   59loPI    C1  929   4.781   9.296   9.757 -0.0127  0.0456 -0.0839
   59loPI    C2  930   4.382   9.308   9.728 -0.0124 -0.0457 -0.1295
   59loPI    C3  931   4.554   9.176  10.064 -0.0203  0.0419 -0.0909
   59loPI   PO4  932   4.836   9.178   9.506  0.0823  0.1546  0.1593
   59loPI   GL1  933   4.586   8.865   9.199  0.0971 -0.0690 -0.0992
   59loPI   GL2  934   4.719   8.601   9.113  0.2023  0.0600 -0.0879
   59loPI   C1A  935   4.894   9.004   8.704 -0.0297  0.4336  0.0351
   59loPI   C2A  936   5.022   8.817   8.349 -0.0670  0.1158  0.2123
   59loPI   C3A  937   5.194   8.745   8.000  0.2432 -0.1487 -0.0442
   59loPI   C4A  938   5.206   8.612   7.642  0.0584  0.2367  0.5535
   59loPI   C5A  939   5.509   8.652   7.327 -0.2818 -0.1124  0.0049
   59loPI   C6A  940   5.813   8.397   7.134 -0.2095 -0.2246  0.0151
   59loPI   C1B  941   4.939   8.159   8.979  0.0103 -0.1926  0.2109
   59loPI   C2B  942   5.065   7.903   8.611 -0.2724 -0.1690 -0.1906
   59loPI   C3B  943   5.294   7.727   8.314  0.1465 -0.0519 -0.0353
   59loPI   C4B  944   5.384   7.361   8.094  0.2546  0.1322  0.0469
   60loPI    C1  945   8.688  15.791  10.482  0.0433  0.2172 -0.1203
   60loPI    C2  946   8.409  16.006  10.672 -0.1742 -0.0566 -0.1240
   60loPI    C3  947   8.740  15.892  10.866 -0.1640  0.0870 -0.0561
   60loPI   PO4  948   8.560  15.812  10.199 -0.4709 -0.2932  0.3053
   60loPI   GL1  949   8.642  15.820   9.906 -0.0215 -0.0152  0.2667
   60loPI   GL2  950   8.525  15.610   9.621 -0.4474  0.1359 -0.3025
   60loPI   C1A  951   8.755  15.949   9.349 -0.2576 -0.0356 -0.1341
   60loPI   C2A  952   8.987  16.192   9.004  0.2462  0.0657  0.1064
   60loPI   C3A  953   9.051  16.154   8.566  0.0502 -0.0677  0.1133
   60loPI   C4A  954   8.886  16.234   8.109  0.2134 -0.1829 -0.1058
   60loPI   C5A  955   8.502  16.510   7.936 -0.1287  0.2200 -0.0833
   60loPI   C6A  956   8.145  16.434   7.833  0.0607 -0.0431 -0.3010
   60loPI   C1B  957   8.158  15.458   9.448  0.2583 -0.1756 -0.1358
   60loPI   C2B  958   8.103  15.384   9.064  0.1735  0.0446 -0.1847
   60loPI   C3B  959   8.046  15.485   8.674  0.1462  0.2265  0.2703
   60loPI   C4B  960   8.004  15.383   8.226  0.3221 -0.0558  0.0918
   61loPI    C1  961  18.500  17.807  10.240  0.1816  0.0771  0.1912
   61loPI    C2  962  18.711  18.147  10.235  0.3685 -0.0405 -0.0467
   61loPI    C3  963  18.870  17.815  10.391  0.2019 -0.0309  0.1475
   61loPI   PO4  964  18.394  17.747  10.044 -0.1210  0.0435  0.1478
   61loPI   GL1  965  18.305  17.726   9.564 -0.1057  0.0223 -0.2022
   61loPI   GL2  966  18.183  17.362   9.511 -0.0974  0.2412  0.0365
   61loPI   C1A  967  18.341  17.790   9.062 -0.0466  0.1388  0.1269
   61loPI   C2A  968  18.713  17.561   8.843  0.2603 -0.0143 -0.1558
   61loPI   C3A  969  19.004  17.195   8.764 -0.1864  0.2571 -0.2798
   61loPI   C4A  970  19.163  16.863   8.607 -0.0018 -0.1961  0.1928
   61loPI   C5A  971  19.203  16.673   8.202  0.2025 -0.0718 -0.1356
   61loPI   C6A  972  19.069  16.496   7.864  0.1068  0.1956  0.1315
   61loPI   C1B  973  18.001  17.236   9.104  0.0026 -0.2990  0.2572
   61loPI   C2B  974  18.121  17.259   8.707 -0.1690  0.0075 -0.1952
   61loPI   C3B  975  18.176  17.545   8.360  0.1617 -0.0892  0.1105
   61loPI   C4B  976  18.155  17.648   8.001  0.2623  0.2427  0.3375
   62loPI    C1  977  16.322   4.554  10.077 -0.0711 -0.1232 -0.0422
   62loPI    C2  978  16.251   4.334  10.404 -0.0614 -0.2328 -0.1132
   62loPI    C3  979  16.623   4.366  10.262 -0.0087  0.1031  0.0898
   62loPI   PO4  980  16.167   4.827  10.022  0.3460  0.2112 -0.1302
   62loPI   GL1  981  16.188   4.957   9.672  0.2102  0.0169 -0.1006
   62loPI   GL2  982  16.412   4.715   9.534  0.0673  0.1630 -0.0791
   62loPI   C1A  983  16.003   4.880   9.335  0.1376 -0.2273  0.1941
   62loPI   C2A  984  15.856   4.735   8.985  0.0287 -0.1914 -0.1189
   62loPI   C3A  985  15.581   4.916   8.623 -0.0559  0.3759 -0.0293
   62loPI   C4A  986  15.426   4.830   8.190  0.0060 -0.2918  0.1004
   62loPI   C5A  987  15.389   5.044   7.869 -0.3661 -0.1940 -0.1005
   62loPI   C6A  988  15.147   5.168   7.433 -0.1908  0.1708  0.2194
   62loPI   C1B  989  16.466   4.862   9.077  0.2923  0.1905  0.1822
   62loPI   C2B  990  16.782   4.864   8.682 -0.0819 -0.0671  0.0134
   62loPI   C3B  991  16.938   4.784   8.256 -0.1814 -0.2162 -0.3726
   62loPI   C4B  992  16.982   4.538   7.946  0.3445 -0.2676  0.1396
   63loPI    C1  993  18.542  12.552  10.737 -0.0397  0.1610 -0.0772
   63loPI    C2  994  18.351  12.892  10.648 -0.1296  0.1167 -0.0538
   63loPI    C3  995  18.682  12.902  10.871  0.0416  0.2187 -0.3082
   63loPI   PO4  996  18.487  12.480  10.406  0.3952 -0.0573  0.1229
   63loPI   GL1  997  18.674  12.588   9.984  0.0878  0.0160  0.1986
   63loPI   GL2  998  18.799  12.261  10.055  0.1514  0.0396  0.3634
   63loPI   C1A  999  18.322  12.736   9.752 -0.1326  0.1508  0.1098
   63loPI   C2A 1000  18.180  12.798   9.311  0.1207 -0.1976  0.1047
   63loPI   C3A 1001  18.027  12.602   8.881 -0.1862  0.0416  0.1132
   63loPI   C4A 1002  17.807  12.792   8.517  0.2308 -0.0796  0.0358
   63loPI   C5A 1003  17.628  12.935   8.194 -0.3840 -0.0423  0.0367
   63loPI   C6A 1004  17.581  13.144   7.910 -0.0496 -0.0891 -0.1570
   63loPI   C1B 1005  18.955  12.380   9.532 -0.3726  0.1756  0.1654
   63loPI   C2B 1006  18.944  12.431   9.100  0.2288  0.1026  0.1121
   63loPI   C3B 1007  18.875  12.478   8.712 -0.0052  0.3628  0.1732
   63loPI   C4B 1008  18.969  12.532   8.304  0.1839 -0.1805 -0.0892
   64loPI    C1 1009   6.455   5.391  10.270  0.0757  0.0375 -0.0218
   64loPI    C2 1010   6.157   5.471  10.524  0.1721  0.1704  0.0502
   64loPI    C3 1011   6.462   5.241  10.640  0.1142  0.0607 -0.0132
   64loPI   PO4 1012   6.294   5.426  10.068 -0.3619  0.4713 -0.1554
   64loPI   GL1 1013   6.039   5.538   9.745 -0.0359 -0.0667 -0.4920
   64loPI   GL2 1014   5.943   5.813   9.647 -0.0761 -0.2825  0.2186
   64loPI   C1A 1015   6.146   5.356   9.295 -0.1002  0.2924 -0.0911
   64loPI   C2A 1016   6.224   5.439   8.907  0.0783 -0.5313  0.1714
   64loPI   C3A 1017   6.494   5.342   8.540 -0.1365 -0.0874 -0.1050
   64loPI   C4A 1018   6.592   5.353   8.153  0.1950  0.0809  0.0638
   64loPI   C5A 1019   6.439   5.607   7.901  0.1655 -0.2170  0.0740
   64loPI   C6A 1020   6.047   5.733   7.763  0.0980 -0.2572  0.0769
   64loPI   C1B 1021   5.891   5.837   9.207 -0.0656 -0.0403  0.1014
   64loPI   C2B 1022   5.884   6.215   9.020 -0.3598 -0.3747  0.3020
   64loPI   C3B 1023   5.852   6.617   8.905  0.0923  0.0583  0.3427
   64loPI   C4B 1024   5.893   6.875   8.560  0.1312  0.0344  0.2652
   65loPI    C1 1025  12.542   4.499  10.361  0.1028  0.4091 -0.1424
   65loPI    C2 1026  12.265   4.720  10.548 -0.0650 -0.0203  0.1329
   65loPI    C3 1027  12.621   4.659  10.719  0.0339  0.1482 -0.0085
   65loPI   PO4 1028  12.452   4.531  10.075 -0.0702  0.0232 -0.0571
   65loPI   GL1 1029  12.357   4.236   9.705 -0.1350  0.0623  0.2636
   65loPI   GL2 1030  12.217   4.566   9.653 -0.2380  0.2458 -0.0189
   65loPI   C1A 1031  12.365   4.186   9.307  0.0449  0.2369  0.4011
   65loPI   C2A 1032  12.392   4.112   8.874  0.0840 -0.0415  0.0496
   65loPI   C3A 1033  12.500   4.405   8.590 -0.1463 -0.2833  0.1051
   65loPI   C4A 1034  12.338   4.443   8.271  0.0499 -0.0456  0.0424
   65loPI   C5A 1035  12.104   4.518   7.974  0.0178  0.3236  0.2579
   65loPI   C6A 1036  12.042   4.864   7.966 -0.1908  0.3127  0.0597
   65loPI   C1B 1037  12.412   4.901   9.420 -0.2402 -0.0825 -0.1484
   65loPI   C2B 1038  12.573   5.128   9.146 -0.2711 -0.2225 -0.2234
   65loPI   C3B 1039  12.784   5.358   8.727 -0.0459 -0.0221  0.1385
   65loPI   C4B 1040  12.968   5.748   8.606  0.3092  0.3788  0.4217
   66loPI    C1 1041   8.433   6.391  10.542 -0.0696  0.0723 -0.0574
   66loPI    C2 1042   8.143   6.348  10.813  0.0227 -0.0109  0.0289
   66loPI    C3 1043   8.466   6.567  10.900  0.0561 -0.0442 -0.0109
   66loPI   PO4 1044   8.308   6.189  10.341 -0.2093 -0.0599  0.2112
   66loPI   GL1 1045   8.451   6.149   9.910 -0.1399  0.3106  0.2666
   66loPI   GL2 1046   8.480   5.952   9.846 -0.4364 -0.1563 -0.0640
   66loPI   C1A 1047   8.136   6.203   9.595  0.4631  0.1806  0.1083
   66loPI   C2A 1048   8.050   6.174   9.109  0.1160 -0.2648  0.0181
   66loPI   C3A 1049   8.036   6.087   8.658 -0.0721  0.0404 -0.0137
   66loPI   C4A 1050   7.713   6.109   8.360 -0.2150 -0.2725  0.1019
   66loPI   C5A 1051   7.764   6.127   7.921 -0.3109 -0.2078 -0.2486
   66loPI   C6A 1052   7.647   6.377   7.684  0.1807 -0.1574 -0.0266
   66loPI   C1B 1053   8.436   5.894   9.334  0.1728 -0.0080 -0.2232
   66loPI   C2B 1054   8.452   5.978   8.922  0.0486 -0.1166 -0.1551
   66loPI   C3B 1055   8.316   5.698   8.548  0.0558 -0.2006 -0.1046
   66loPI   C4B 1056   8.403   5.439   8.174  0.0177  0.0300 -0.1575
   67loPI    C1 1057   8.466  13.945   9.965 -0.2493 -0.0052  0.0896
   67loPI    C2 1058   8.687  13.859  10.288 -0.0197  0.1898 -0.0128
   67loPI    C3 1059   8.585  14.238  10.210  0.2619  0.1962 -0.3781
   67loPI   PO4 1060   8.579  13.840   9.821 -0.0680 -0.0740  0.0605
   67loPI   GL1 1061   8.762  13.556   9.632 -0.2511  0.0339 -0.2330
   67loPI   GL2 1062   8.906  13.871   9.399  0.0271 -0.0150  0.0825
   67loPI   C1A 1063   8.495  13.606   9.223 -0.0027 -0.1238  0.0448
   67loPI   C2A 1064   8.292  13.860   8.777 -0.0958 -0.0317 -0.4609
   67loPI   C3A 1065   8.157  13.927   8.396 -0.0048  0.0716  0.1051
   67loPI   C4A 1066   8.205  13.960   7.905 -0.2022 -0.3394  0.1882
   67loPI   C5A 1067   8.554  14.022   7.631 -0.1022  0.3674  0.1066
   67loPI   C6A 1068   8.539  14.087   7.203 -0.0759  0.0058  0.0852
   67loPI   C1B 1069   8.892  13.895   8.909 -0.2059  0.0021  0.0548
   67loPI   C2B 1070   9.003  14.000   8.462  0.3170  0.0431  0.0109
   67loPI   C3B 1071   9.068  13.999   8.039 -0.1549  0.0748 -0.0543
   67loPI   C4B 1072   9.080  13.790   7.584 -0.1674 -0.3842  0.1190
   68loPI    C1 1073   2.330  13.932  10.097 -0.0454 -0.0392  0.1667
   68loPI    C2 1074   2.565  14.047  10.400  0.1396 -0.1149  0.0534
   68loPI    C3 1075   2.237  14.258  10.310  0.2605  0.0953  0.0992
   68loPI   PO4 1076   2.450  13.975   9.834  0.2641 -0.5168  0.1140
   68loPI   GL1 1077   2.573  13.685   9.512  0.0605 -0.2954  0.2606
   68loPI   GL2 1078   2.798  13.786   9.408  0.3532 -0.0303 -0.0836
   68loPI   C1A 1079   2.269  13.761   9.106  0.2622  0.1168 -0.0293
   68loPI   C2A 1080   2.218  13.659   8.597  0.2657  0.1997 -0.1951
   68loPI   C3A 1081   2.046  13.689   8.287 -0.2528  0.1315 -0.0431
   68loPI   C4A 1082   2.151  13.849   7.930  0.0955  0.0565 -0.1455
   68loPI   C5A 1083   2.091  14.065   7.495  0.3473 -0.0762 -0.0846
   68loPI   C6A 1084   1.654  14.055   7.257 -0.0203 -0.1805 -0.1914
   68loPI   C1B 1085   2.883  13.974   9.080 -0.2308 -0.1759  0.1058
   68loPI   C2B 1086   2.793  14.038   8.654 -0.1046  0.1009 -0.4272
   68loPI   C3B 1087   2.587  13.980   8.304  0.3151 -0.4067  0.1836
   68loPI   C4B 1088   2.438  14.206   7.866  0.2267  0.2331  0.0528
   69loPI    C1 1089  17.455   0.902  10.697  0.0452  0.5208 -0.1263
   69loPI    C2 1090  17.707   0.740  10.961  0.0824 -0.0594 -0.4992
   69loPI    C3 1091  17.439   1.011  11.082  0.2659 -0.1198  0.0776
   69loPI   PO4 1092  17.539   1.025  10.556 -0.2326  0.0341 -0.3320
   69loPI   GL1 1093  17.748   1.155  10.226 -0.2209  0.1154 -0.0901
   69loPI   GL2 1094  17.608   0.865  10.072  0.0055  0.2281  0.1296
   69loPI   C1A 1095  17.955   1.155   9.791 -0.1508  0.1469  0.4520
   69loPI   C2A 1096  18.084   1.216   9.303 -0.3072  0.0705 -0.1013
   69loPI   C3A 1097  17.961   1.367   8.861 -0.0271  0.0405  0.1707
   69loPI   C4A 1098  18.093   1.368   8.501  0.2581  0.2293  0.0308
   69loPI   C5A 1099  18.006   1.602   8.129 -0.0472  0.0210 -0.1850
   69loPI   C6A 1100  17.686   1.557   7.759  0.1482 -0.6581 -0.3520
   69loPI   C1B 1101  17.640   0.703   9.681 -0.1705  0.1205 -0.2701
   69loPI   C2B 1102  17.431   0.439   9.338  0.1169  0.2216 -0.0759
   69loPI   C3B 1103  17.492   0.062   8.973  0.1506 -0.3562 -0.1234
   69loPI   C4B 1104  17.506  -0.321   9.155  0.0317  0.3905 -0.1098
   70loPI    C1 1105  14.773  17.643  10.487 -0.2269  0.0537 -0.0431
   70loPI    C2 1106  14.892  17.977  10.672  0.0324  0.0479 -0.1938
   70loPI    C3 1107  14.511  17.858  10.699  0.0306  0.1303  0.2036
   70loPI   PO4 1108  14.832  17.653  10.141 -0.2528 -0.1779  0.2091
   70loPI   GL1 1109  14.833  17.864   9.717 -0.0989 -0.1892  0.0336
   70loPI   GL2 1110  14.499  17.866   9.709 -0.4561 -0.1131  0.0843
   70loPI   C1A 1111  15.147  17.730   9.350 -0.0962 -0.1691 -0.2121
   70loPI   C2A 1112  15.399  17.592   8.980 -0.2515 -0.2278  0.3801
   70loPI   C3A 1113  15.378  17.674   8.584  0.0837 -0.2356  0.1111
   70loPI   C4A 1114  15.086  17.889   8.401 -0.1462  0.0421 -0.3327
   70loPI   C5A 1115  15.001  18.253   8.458  0.1154  0.0522  0.0707
   70loPI   C6A 1116  15.216  18.531   8.706 -0.2415 -0.1290 -0.0959
   70loPI   C1B 1117  14.661  17.902   9.252 -0.0918  0.1265 -0.1274
   70loPI   C2B 1118  14.449  17.877   8.806  0.0215 -0.1791  0.1238
   70loPI   C3B 1119  14.232  17.870   8.497  0.1156  0.3992 -0.2614
   70loPI   C4B 1120  14.128  17.861   8.026  0.1684  0.0251  0.0105
   71loPI    C1 1121  16.846   7.829  10.825  0.0329  0.0202 -0.4062
   71loPI    C2 1122  16.584   7.529  10.865 -0.1020  0.1752 -0.0927
   71loPI    C3 1123  16.876   7.577  11.134 -0.0473  0.2928 -0.1723
   71loPI   PO4 1124  16.974   7.796  10.491 -0.0812  0.0346  0.2224
   71loPI   GL1 1125  16.832   7.973  10.107  0.4717 -0.1429 -0.1034
   71loPI   GL2 1126  16.968   8.273  10.050 -0.2761 -0.0226 -0.2162
   71loPI   C1A 1127  16.581   7.776   9.876  0.1728  0.0867  0.1031
   71loPI   C2A 1128  16.540   7.823   9.367 -0.1304  0.0777 -0.2010
   71loPI   C3A 1129  16.530   7.986   8.850 -0.3522 -0.2755 -0.1100
   71loPI   C4A 1130  16.631   7.791   8.575  0.0529  0.0844  0.1955
   71loPI   C5A 1131  16.523   7.839   8.310 -0.1366 -0.0833 -0.1664
   71loPI   C6A 1132  16.719   8.143   8.069  0.0302 -0.1248  0.2841
   71loPI   C1B 1133  16.911   8.088   9.650 -0.1032 -0.0568 -0.0902
   71loPI   C2B 1134  16.936   8.173   9.268  0.1252 -0.1443  0.0632
   71loPI   C3B 1135  16.729   8.435   8.935 -0.1616  0.0447 -0.1995
   71loPI   C4B 1136  16.474   8.437   8.559  0.1155  0.1862 -0.5203
   72loPI    C1 1137   4.230  15.674   9.793 -0.0754 -0.2453  0.3204
   72loPI    C2 1138   4.590  15.586   9.945  0.1370 -0.1757 -0.1239
   72loPI    C3 1139   4.280  15.341  10.008  0.2674 -0.2556  0.2312
   72loPI   PO4 1140   4.230  15.749   9.635  0.0056  0.3307 -0.3209
   72loPI   GL1 1141   4.233  15.929   9.274 -0.0131 -0.0024  0.0661
   72loPI   GL2 1142   3.976  15.867   9.158  0.2307  0.1278 -0.1756
   72loPI   C1A 1143   4.429  15.783   8.852  0.2198 -0.0870 -0.4689
   72loPI   C2A 1144   4.271  15.610   8.459  0.1235 -0.2889  0.0960
   72loPI   C3A 1145   4.159  15.556   8.037  0.0860  0.0209  0.0731
   72loPI   C4A 1146   4.024  15.612   7.702  0.4560 -0.0120  0.3068
   72loPI   C5A 1147   3.722  15.676   7.438  0.1598  0.0432  0.1494
   72loPI   C6A 1148   3.510  15.584   7.065  0.0364  0.0866 -0.0831
   72loPI   C1B 1149   3.895  15.804   8.802  0.0711 -0.0146 -0.1376
   72loPI   C2B 1150   3.709  15.763   8.429  0.1342 -0.0718 -0.2831
   72loPI   C3B 1151   3.686  15.841   7.991 -0.2098  0.5014 -0.0171
   72loPI   C4B 1152   3.543  16.210   7.734  0.2238  0.2299 -0.1926
   73loPI    C1 1153  11.594  13.445  10.411 -0.0823  0.0924 -0.3855
   73loPI    C2 1154  11.394  13.732  10.604  0.1667  0.2560 -0.3656
   73loPI    C3 1155  11.222  13.377  10.540 -0.0410  0.3133 -0.1411
   73loPI   PO4 1156  11.778  13.592  10.298  0.0452  0.2291 -0.1706
   73loPI   GL1 1157  11.738  13.809   9.875  0.0143 -0.2214 -0.1424
   73loPI   GL2 1158  11.881  14.120   9.928 -0.2993 -0.2316  0.2418
   73loPI   C1A 1159  11.587  13.739   9.440  0.2449 -0.0077  0.0035
   73loPI   C2A 1160  11.620  13.890   9.125 -0.0272  0.0386 -0.0237
   73loPI   C3A 1161  11.634  13.943   8.753  0.3161  0.0335  0.2169
   73loPI   C4A 1162  11.729  13.954   8.364 -0.4387 -0.2097 -0.0735
   73loPI   C5A 1163  11.948  13.904   7.964  0.0973 -0.2309  0.0090
   73loPI   C6A 1164  12.246  14.023   7.723 -0.3695 -0.1633 -0.0139
   73loPI   C1B 1165  11.820  14.241   9.577 -0.0449 -0.0619  0.0745
   73loPI   C2B 1166  11.977  14.206   9.064  0.0354 -0.2356 -0.0125
   73loPI   C3B 1167  12.255  14.217   8.742  0.1278 -0.0399  0.1317
   73loPI   C4B 1168  12.233  14.210   8.222 -0.3818 -0.0281 -0.1460
   74loPI    C1 1169  16.671  13.307  11.031 -0.2257  0.2446  0.2868
   74loPI    C2 1170  17.027  13.217  11.189 -0.0822 -0.1311 -0.2229
   74loPI    C3 1171  16.695  13.177  11.408  0.1630 -0.0098  0.1808
   74loPI   PO4 1172  16.611  13.082  10.877  0.0681 -0.3447  0.4090
   74loPI   GL1 1173  16.625  12.836  10.475 -0.0821  0.2939  0.1308
   74loPI   GL2 1174  16.263  12.882  10.364  0.0486 -0.0511 -0.2970
   74loPI   C1A 1175  16.657  12.711  10.037 -0.1684 -0.0312 -0.0712
   74loPI   C2A 1176  16.518  12.737   9.565  0.3241  0.1726 -0.0156
   74loPI   C3A 1177  16.457  12.436   9.255 -0.1964  0.0152 -0.0898
   74loPI   C4A 1178  16.635  11.965   8.959 -0.1328  0.0891 -0.3045
   74loPI   C5A 1179  16.644  11.650   8.687  0.0126 -0.0504 -0.1351
   74loPI   C6A 1180  16.336  11.845   8.427  0.1931 -0.0450  0.1234
   74loPI   C1B 1181  16.165  12.528   9.956 -0.1808  0.1221  0.1701
   74loPI   C2B 1182  16.524  12.181   9.758 -0.1234 -0.1412 -0.0346
   74loPI   C3B 1183  16.844  11.965   9.420 -0.0617 -0.0709 -0.2472
   74loPI   C4B 1184  17.162  11.749   9.310  0.2212  0.1225 -0.2395
   75loPI    C1 1185  12.197   1.306   9.905  0.0032  0.0961  0.1185
   75loPI    C2 1186  12.391   1.248  10.250  0.2805 -0.0303 -0.0545
   75loPI    C3 1187  12.193   0.946  10.079  0.2145  0.0100 -0.0497
   75loPI   PO4 1188  12.462   1.425   9.771 -0.0394 -0.0860  0.0020
   75loPI   GL1 1189  12.594   1.435   9.297  0.0393  0.1388  0.2322
   75loPI   GL2 1190  12.539   1.824   9.472 -0.1832 -0.1002  0.1657
   75loPI   C1A 1191  12.424   1.469   8.893  0.1139  0.2639 -0.1705
   75loPI   C2A 1192  12.373   1.826   8.601  0.0962 -0.2766  0.2742
   75loPI   C3A 1193  12.264   1.901   8.215  0.1768 -0.0863  0.1514
   75loPI   C4A 1194  12.542   1.718   7.932 -0.0843 -0.1071 -0.3204
   75loPI   C5A 1195  12.598   1.471   7.477  0.2482 -0.3558  0.0537
   75loPI   C6A 1196  12.615   1.336   7.020  0.1742  0.2487  0.0178
   75loPI   C1B 1197  12.397   2.056   9.076  0.1553  0.0937  0.1398
   75loPI   C2B 1198  12.285   2.318   8.720  0.0262 -0.1280 -0.2676
   75loPI   C3B 1199  12.320   2.403   8.267  0.2009  0.2325 -0.2393
   75loPI   C4B 1200  12.011   2.659   8.106  0.2022 -0.1931  0.0880
   76loPI    C1 1201   0.523  17.127  10.046 -0.1234  0.3279 -0.2638
   76loPI    C2 1202   0.413  17.414  10.302 -0.0744 -0.0073  0.1438
   76loPI    C3 1203   0.285  17.038  10.355  0.1591 -0.1354 -0.1692
   76loPI   PO4 1204   0.384  17.171   9.867  0.1750  0.3138 -0.2769
   76loPI   GL1 1205   0.381  17.257   9.505  0.3073  0.2262  0.1402
   76loPI   GL2 1206   0.350  17.376   9.239 -0.1257  0.1268 -0.2011
   76loPI   C1A 1207   0.375  16.881   9.282 -0.1628 -0.0555  0.1957
   76loPI   C2A 1208   0.085  16.728   8.991  0.1636  0.1405 -0.0376
   76loPI   C3A 1209  -0.070  16.599   8.541  0.1656 -0.1124  0.0082
   76loPI   C4A 1210   0.056  16.314   8.281  0.1080 -0.0358 -0.0805
   76loPI   C5A 1211   0.023  15.941   8.080 -0.1065  0.1142  0.2465
   76loPI   C6A 1212   0.026  15.674   7.707  0.3655  0.1808  0.2182
   76loPI   C1B 1213  -0.067  17.242   9.300  0.2175  0.1262 -0.3914
   76loPI   C2B 1214  -0.309  17.037   9.050 -0.1910  0.1324  0.2075
   76loPI   C3B 1215  -0.255  17.069   8.510 -0.1254 -0.0204 -0.2445
   76loPI   C4B 1216  -0.187  16.906   8.133  0.1544 -0.1734  0.3391
   77loPI    C1 1217   4.970   7.391   9.993  0.0452 -0.1496  0.1224
   77loPI    C2 1218   4.912   7.775  10.088 -0.0536 -0.1261 -0.0281
   77loPI    C3 1219   4.770   7.486  10.325 -0.1456 -0.0692 -0.0134
   77loPI   PO4 1220   4.929   7.443   9.621 -0.0184 -0.0751 -0.0805
   77loPI   GL1 1221   4.592   7.412   9.294  0.0870  0.2089 -0.4058
   77loPI   GL2 1222   4.517   7.032   9.215  0.0016 -0.1368  0.2715
   77loPI   C1A 1223   4.199   7.397   9.000 -0.1609  0.2001  0.2948
   77loPI   C2A 1224   3.754   7.420   8.727  0.4160  0.0396  0.3281
   77loPI   C3A 1225   3.233   7.442   8.665  0.1527 -0.0229  0.0307
   77loPI   C4A 1226   2.902   7.419   8.372 -0.0873 -0.3240 -0.0671
   77loPI   C5A 1227   3.005   7.543   7.986 -0.2125  0.1986 -0.0974
   77loPI   C6A 1228   3.018   7.413   7.626 -0.1462 -0.0366  0.1615
   77loPI   C1B 1229   4.529   7.149   8.738 -0.1434  0.0036  0.1323
   77loPI   C2B 1230   4.520   7.380   8.447 -0.0230  0.1319  0.0753
   77loPI   C3B 1231   4.371   7.541   8.037  0.0736 -0.2394 -0.0402
   77loPI   C4B 1232   4.127   7.216   7.748  0.1360  0.0108  0.2465
   78loPI    C1 1233   6.112  18.668   9.505 -0.0782  0.0228  0.0253
   78loPI    C2 1234   6.418  18.915   9.434  0.1073 -0.1912  0.0701
   78loPI    C3 1235   6.163  18.994   9.731  0.1204 -0.0137  0.0353
   78loPI   PO4 1236   6.220  18.397   9.488  0.0294 -0.0283 -0.0091
   78loPI   GL1 1237   6.186  18.058   9.276  0.1625  0.1831 -0.1610
   78loPI   GL2 1238   6.073  17.753   9.199 -0.3949 -0.1203  0.1904
   78loPI   C1A 1239   6.122  18.069   8.800  0.0078 -0.1510  0.0637
   78loPI   C2A 1240   6.060  18.107   8.355  0.2248  0.2775  0.1378
   78loPI   C3A 1241   6.084  18.129   7.951 -0.4796  0.0931 -0.1535
   78loPI   C4A 1242   5.991  18.419   7.576 -0.0032 -0.3943 -0.0457
   78loPI   C5A 1243   5.753  18.579   7.355  0.1824 -0.1305  0.1222
   78loPI   C6A 1244   5.543  18.475   6.992  0.0573  0.1587 -0.2425
   78loPI   C1B 1245   5.959  17.606   8.814 -0.1273 -0.0382 -0.1417
   78loPI   C2B 1246   5.907  17.600   8.400 -0.0023  0.1301 -0.2465
   78loPI   C3B 1247   5.653  17.908   8.083  0.0947 -0.0025  0.0010
   78loPI   C4B 1248   5.237  18.151   8.169  0.0239  0.0578  0.2166
   79loPI    C1 1249   1.666   5.742   9.977 -0.2010  0.2164 -0.2115
   79loPI    C2 1250   1.711   6.075  10.194 -0.0154  0.0970 -0.0632
   79loPI    C3 1251   1.580   5.739  10.367 -0.1943  0.0888 -0.2105
   79loPI   PO4 1252   1.718   5.937   9.724  0.0773  0.1649 -0.4037
   79loPI   GL1 1253   1.791   5.852   9.227 -0.2485 -0.0407 -0.1127
   79loPI   GL2 1254   2.060   6.079   9.263 -0.2876  0.0237  0.2019
   79loPI   C1A 1255   1.615   5.916   8.808 -0.0539  0.3837 -0.2225
   79loPI   C2A 1256   1.270   5.767   8.496  0.1546  0.0665 -0.0545
   79loPI   C3A 1257   1.049   5.720   8.193  0.3325 -0.1325  0.3638
   79loPI   C4A 1258   1.080   5.590   7.802 -0.1414  0.1299 -0.0537
   79loPI   C5A 1259   0.895   5.557   7.357  0.1036 -0.0029 -0.1107
   79loPI   C6A 1260   0.953   5.356   7.037  0.1004  0.1671  0.1534
   79loPI   C1B 1261   2.119   6.200   8.812  0.3751  0.1184 -0.0466
   79loPI   C2B 1262   2.033   6.334   8.340 -0.0905 -0.1126  0.3836
   79loPI   C3B 1263   1.672   6.419   8.031 -0.0509  0.0978 -0.0084
   79loPI   C4B 1264   1.698   6.170   7.670 -0.0503 -0.1502  0.0089
   80loPI    C1 1265   3.682  17.428   9.623  0.0825 -0.0974 -0.0100
   80loPI    C2 1266   3.991  17.468   9.874  0.0462  0.0692  0.0093
   80loPI    C3 1267   3.625  17.396  10.018  0.0408  0.0747 -0.0016
   80loPI   PO4 1268   3.846  17.250   9.346  0.1315 -0.0681 -0.2674
   80loPI   GL1 1269   3.688  17.123   9.029 -0.4415  0.0300 -0.3321
   80loPI   GL2 1270   3.716  16.795   8.984 -0.2237  0.1306 -0.1121
   80loPI   C1A 1271   3.758  17.355   8.714  0.0168 -0.4114 -0.3354
   80loPI   C2A 1272   3.691  17.756   8.602  0.1385 -0.1537 -0.3134
   80loPI   C3A 1273   3.828  18.183   8.433 -0.1801  0.0151 -0.1590
   80loPI   C4A 1274   3.701  18.459   7.988 -0.1301  0.0507  0.0816
   80loPI   C5A 1275   3.453  18.422   7.551  0.4849  0.1805 -0.3591
   80loPI   C6A 1276   2.985  18.374   7.350 -0.0316  0.1111  0.0424
   80loPI   C1B 1277   3.452  16.934   8.637  0.0006  0.1400 -0.0189
   80loPI   C2B 1278   3.156  16.927   8.337  0.0491  0.1526  0.1391
   80loPI   C3B 1279   3.064  16.739   7.882  0.0120 -0.0449  0.2212
   80loPI   C4B 1280   2.829  16.690   7.572  0.1047  0.1887  0.2337
   81loPI    C1 1281  14.292   7.998  10.810  0.0803  0.1400 -0.0182
   81loPI    C2 1282  14.028   7.900  10.527  0.2868 -0.2126 -0.0957
   81loPI    C3 1283  13.960   7.798  10.907  0.1795 -0.0533 -0.0712
   81loPI   PO4 1284  14.452   8.210  10.684 -0.4383 -0.1732 -0.0944
   81loPI   GL1 1285  14.520   8.515  10.378 -0.1135 -0.1033  0.0976
   81loPI   GL2 1286  14.821   8.538  10.437  0.1733  0.2519  0.2933
   81loPI   C1A 1287  14.341   8.409  10.012 -0.4428  0.4191  0.0666
   81loPI   C2A 1288  14.208   8.391   9.574  0.1481  0.1062 -0.3553
   81loPI   C3A 1289  14.438   8.405   9.255  0.1109  0.3894  0.0941
   81loPI   C4A 1290  14.711   8.339   8.937 -0.1032  0.0631 -0.2737
   81loPI   C5A 1291  14.797   8.360   8.550  0.0713 -0.2679 -0.2092
   81loPI   C6A 1292  14.694   8.721   8.210 -0.0965  0.1065  0.1104
   81loPI   C1B 1293  14.840   8.415  10.004  0.1965 -0.0339  0.2567
   81loPI   C2B 1294  14.775   8.383   9.627 -0.0916  0.1203  0.0344
   81loPI   C3B 1295  14.961   8.668   9.346 -0.2035  0.0662 -0.4338
   81loPI   C4B 1296  15.233   8.742   9.020  0.1741  0.0297 -0.1760
   82loPI    C1 1297   9.115   2.517  10.384  0.2580 -0.0864 -0.0408
   82loPI    C2 1298   9.404   2.355  10.609  0.1939  0.0458  0.1387
   82loPI    C3 1299   9.039   2.191  10.603  0.1885  0.0573  0.1517
   82loPI   PO4 1300   9.222   2.591  10.100 -0.1409 -0.4580 -0.1523
   82loPI   GL1 1301   9.085   2.389   9.739 -0.0409 -0.3107 -0.1650
   82loPI   GL2 1302   9.323   2.252   9.734  0.2020  0.4086 -0.0035
   82loPI   C1A 1303   8.959   2.369   9.295 -0.1759  0.1577 -0.2013
   82loPI   C2A 1304   9.088   2.301   8.823  0.2839  0.0467  0.3228
   82loPI   C3A 1305   9.203   2.008   8.384 -0.2727 -0.3594  0.0557
   82loPI   C4A 1306   9.257   1.585   8.141  0.2978  0.0078 -0.3190
   82loPI   C5A 1307   8.920   1.365   7.849  0.0595  0.4263 -0.1835
   82loPI   C6A 1308   8.518   1.380   7.548 -0.1927  0.0902 -0.0983
   82loPI   C1B 1309   9.206   1.899   9.434 -0.1661  0.1199 -0.0177
   82loPI   C2B 1310   9.313   1.886   8.948 -0.0980 -0.1805  0.1980
   82loPI   C3B 1311   9.193   1.602   8.627 -0.1548 -0.0502  0.2038
   82loPI   C4B 1312   9.007   1.228   8.330  0.3718  0.4381  0.1801
   83loPI    C1 1313  10.185  12.238  10.651  0.2974  0.0048 -0.1104
   83loPI    C2 1314  10.376  12.548  10.819  0.3074 -0.0498 -0.0201
   83loPI    C3 1315  10.304  12.217  11.032  0.1437 -0.0439 -0.0645
   83loPI   PO4 1316  10.242  12.308  10.414  0.0517  0.1093  0.1174
   83loPI   GL1 1317  10.100  12.367  10.003  0.3688  0.1263 -0.3520
   83loPI   GL2 1318  10.333  12.596   9.964 -0.0883  0.0394 -0.1819
   83loPI   C1A 1319   9.987  12.382   9.632 -0.0280  0.0625  0.5690
   83loPI   C2A 1320   9.948  12.362   9.213 -0.0550 -0.0114  0.1992
   83loPI   C3A 1321   9.986  12.339   8.773 -0.1394  0.3257 -0.0419
   83loPI   C4A 1322   9.724  12.353   8.388 -0.0851 -0.2354 -0.0884
   83loPI   C5A 1323   9.465  12.227   8.113  0.2087  0.1558  0.3401
   83loPI   C6A 1324   9.091  12.214   7.848 -0.2912  0.2127  0.1618
   83loPI   C1B 1325  10.542  12.555   9.526 -0.0255 -0.3022  0.0347
   83loPI   C2B 1326  10.442  12.397   9.167 -0.0224  0.0622  0.2177
   83loPI   C3B 1327  10.481  12.389   8.684  0.2253  0.1519  0.2274
   83loPI   C4B 1328  10.638  12.330   8.274 -0.0147  0.0819  0.0579
   84loPI    C1 1329  10.421  13.857  10.558 -0.0413 -0.2111 -0.3716
   84loPI    C2 1330  10.549  14.118  10.283  0.0856 -0.0640 -0.1749
   84loPI    C3 1331  10.733  14.094  10.637 -0.3510  0.0636  0.0691
   84loPI   PO4 1332  10.359  13.658  10.372  0.1413  0.0777  0.2309
   84loPI   GL1 1333  10.465  13.551   9.940  0.1844 -0.0002  0.0358
   84loPI   GL2 1334  10.370  13.874   9.812  0.0127  0.1537 -0.0059
   84loPI   C1A 1335  10.361  13.340   9.541  0.0631 -0.2190  0.0374
   84loPI   C2A 1336  10.267  13.314   9.098 -0.2850  0.0822 -0.1082
   84loPI   C3A 1337  10.348  13.378   8.659  0.1008 -0.0101 -0.1033
   84loPI   C4A 1338  10.081  13.223   8.300  0.2505 -0.0701  0.0955
   84loPI   C5A 1339  10.089  13.180   7.750  0.0481 -0.0614  0.0443
   84loPI   C6A 1340  10.106  12.783   7.550 -0.2284  0.0722  0.0652
   84loPI   C1B 1341  10.552  13.831   9.457 -0.0148  0.1431 -0.1112
   84loPI   C2B 1342  10.611  13.798   9.066 -0.0098 -0.2281 -0.0353
   84loPI   C3B 1343  10.736  13.695   8.694  0.1854 -0.0275 -0.2738
   84loPI   C4B 1344  10.947  13.632   8.310  0.5149 -0.1038 -0.2859
   85loPI    C1 1345  12.976   4.801  10.436  0.1990 -0.1387 -0.1309
   85loPI    C2 1346  13.211   4.703  10.745 -0.0086  0.0343  0.0851
   85loPI    C3 1347  13.157   5.088  10.648  0.0850 -0.0203 -0.1925
   85loPI   PO4 1348  13.011   4.574  10.255 -0.0933  0.1729  0.0646
   85loPI   GL1 1349  12.932   4.786   9.935  0.1285 -0.0326  0.0556
   85loPI   GL2 1350  12.810   4.543   9.686 -0.6427  0.0221 -0.0678
   85loPI   C1A 1351  13.308   4.859   9.724 -0.0398 -0.1458  0.0258
   85loPI   C2A 1352  13.533   5.045   9.332  0.3713  0.0317 -0.2466
   85loPI   C3A 1353  13.420   4.898   8.974  0.0108 -0.0304 -0.1973
   85loPI   C4A 1354  13.240   4.704   8.549 -0.0022  0.0963  0.3944
   85loPI   C5A 1355  12.917   4.825   8.341 -0.3744 -0.0148 -0.2092
   85loPI   C6A 1356  12.580   4.791   7.960 -0.2648  0.0472  0.0131
   85loPI   C1B 1357  12.984   4.821   9.333  0.2720 -0.1824 -0.2654
   85loPI   C2B 1358  12.918   4.896   8.931 -0.1628  0.2602  0.1364
   85loPI   C3B 1359  12.616   4.906   8.693 -0.0012  0.2610 -0.0848
   85loPI   C4B 1360  12.179   4.893   8.476  0.0146 -0.2155  0.0911
   86loPI    C1 1361   3.084   9.514   9.879 -0.1501  0.0977 -0.1493
   86loPI    C2 1362   3.100   9.813  10.143 -0.3032 -0.0046 -0.0227
   86loPI    C3 1363   3.087   9.434  10.271 -0.1160 -0.0660 -0.1820
   86loPI   PO4 1364   3.238   9.665   9.641 -0.2511 -0.0560 -0.0839
   86loPI   GL1 1365   3.425   9.319   9.308 -0.1165  0.1259 -0.1735
   86loPI   GL2 1366   3.189   9.389   9.095  0.1202 -0.0039 -0.1269
   86loPI   C1A 1367   3.638   9.282   8.866 -0.0242 -0.0704 -0.2620
   86loPI   C2A 1368   3.875   9.201   8.478 -0.0800 -0.2366 -0.2534
   86loPI   C3A 1369   3.937   9.145   8.089  0.0794  0.2688 -0.4151
   86loPI   C4A 1370   4.269   9.150   7.685  0.0902 -0.1797 -0.0661
   86loPI   C5A 1371   4.109   9.345   7.257 -0.0072  0.1323  0.2977
   86loPI   C6A 1372   4.351   9.716   6.902 -0.3000 -0.0631  0.0719
   86loPI   C1B 1373   3.149   9.401   8.675  0.3703 -0.0061 -0.0326
   86loPI   C2B 1374   3.472   9.452   8.414 -0.1634 -0.3904  0.0985
   86loPI   C3B 1375   3.545   9.420   8.068 -0.0150 -0.1283  0.0422
   86loPI   C4B 1376   3.557   9.736   7.677 -0.0943  0.3035  0.4799
   87loPI    C1 1377  18.705   3.002  10.566  0.0433  0.0371  0.2941
   87loPI    C2 1378  18.957   2.764  10.766  0.2505  0.0546  0.0579
   87loPI    C3 1379  19.098   3.024  10.497 -0.0314 -0.0444 -0.1909
   87loPI   PO4 1380  18.572   2.960  10.413 -0.0745  0.1523 -0.0934
   87loPI   GL1 1381  18.414   2.870  10.004  0.1612  0.1087  0.2061
   87loPI   GL2 1382  18.618   2.582   9.859 -0.1539  0.1326 -0.2265
   87loPI   C1A 1383  18.587   2.943   9.592  0.1402 -0.0755  0.0926
   87loPI   C2A 1384  18.876   2.907   9.223  0.4296 -0.1630 -0.1307
   87loPI   C3A 1385  19.101   2.922   8.769  0.0576 -0.0120  0.0192
   87loPI   C4A 1386  19.425   2.910   8.446 -0.1672 -0.0454  0.2411
   87loPI   C5A 1387  19.777   2.983   8.137 -0.1119  0.2065  0.3459
   87loPI   C6A 1388  19.850   2.966   7.717 -0.2107 -0.2819 -0.2965
   87loPI   C1B 1389  18.824   2.445   9.523 -0.0537 -0.4356 -0.0588
   87loPI   C2B 1390  18.966   2.307   9.258  0.0180  0.2180 -0.0012
   87loPI   C3B 1391  18.895   2.488   8.906 -0.0403  0.2620 -0.2333
   87loPI   C4B 1392  18.908   2.573   8.457  0.1784  0.3076 -0.3089
   88loPI    C1 1393   8.363   8.858  10.184  0.1376 -0.0409  0.0927
   88loPI    C2 1394   8.375   8.620   9.862 -0.2250 -0.0538  0.0847
   88loPI    C3 1395   8.049   8.627  10.094 -0.0870  0.1870  0.2767
   88loPI   PO4 1396   8.350   9.129  10.017 -0.2320  0.2512  0.0742
   88loPI   GL1 1397   8.455   8.964   9.534 -0.4333 -0.2057  0.0675
   88loPI   GL2 1398   8.763   9.031   9.635  0.0598  0.0561 -0.4104
   88loPI   C1A 1399   8.495   8.902   9.152  0.0506 -0.1532 -0.2898
   88loPI   C2A 1400   8.422   8.607   8.771 -0.2816 -0.1798  0.0870
   88loPI   C3A 1401   8.340   8.559   8.263 -0.0587  0.2645  0.0521
   88loPI   C4A 1402   8.426   8.612   7.819 -0.1411 -0.0007  0.2202
   88loPI   C5A 1403   8.657   8.599   7.355 -0.0929  0.1125 -0.1169
   88loPI   C6A 1404   9.030   8.953   7.281  0.3038  0.2493  0.0107
   88loPI   C1B 1405   8.882   9.177   9.267  0.3225  0.1230  0.2110
   88loPI   C2B 1406   9.072   9.381   8.922  0.1239  0.1003  0.0812
   88loPI   C3B 1407   9.204   9.584   8.539 -0.0419  0.0888 -0.0123
   88loPI   C4B 1408   9.199   9.371   8.165  0.5857 -0.1967 -0.1465
   89loPI    C1 1409   9.397   0.235  10.300 -0.0879 -0.2202  0.0948
   89loPI    C2 1410   9.618  -0.090  10.374  0.2252 -0.0318  0.0073
   89loPI    C3 1411   9.348   0.034  10.643  0.0953 -0.3666  0.0367
   89loPI   PO4 1412   9.319   0.304   9.995 -0.2239 -0.0399 -0.1479
   89loPI   GL1 1413   9.363   0.385   9.558  0.1742  0.1294  0.2016
   89loPI   GL2 1414   9.535   0.082   9.514 -0.1063  0.0579 -0.1543
   89loPI   C1A 1415   9.345   0.407   9.190 -0.0042  0.1222 -0.0688
   89loPI   C2A 1416   9.378   0.416   8.735 -0.2150  0.1654  0.2156
   89loPI   C3A 1417   9.378   0.147   8.376  0.3173  0.0255 -0.0074
   89loPI   C4A 1418   9.293  -0.072   7.945 -0.4039  0.1977  0.0168
   89loPI   C5A 1419   9.257  -0.146   7.498 -0.0838  0.0614  0.1107
   89loPI   C6A 1420   8.941   0.078   7.276  0.3762  0.1834 -0.0915
   89loPI   C1B 1421   9.512   0.029   8.968 -0.0566  0.1080 -0.2777
   89loPI   C2B 1422   9.428  -0.336   8.667  0.0417 -0.0728 -0.1849
   89loPI   C3B 1423   9.337  -0.406   8.335  0.2947 -0.1225 -0.2981
   89loPI   C4B 1424   9.063  -0.504   8.049 -0.3416 -0.0712 -0.0462
   90loPI    C1 1425  14.438  14.739  10.965  0.0567  0.1134 -0.0581
   90loPI    C2 1426  14.072  14.638  11.090 -0.0561  0.2071 -0.3065
   90loPI    C3 1427  14.250  14.964  11.238 -0.0021  0.0697 -0.0622
   90loPI   PO4 1428  14.368  14.815  10.678 -0.2209  0.1930  0.2162
   90loPI   GL1 1429  14.558  14.990  10.388  0.6097 -0.0554  0.4250
   90loPI   GL2 1430  14.709  14.775  10.275 -0.1304 -0.1133  0.1992
   90loPI   C1A 1431  14.299  15.253  10.001  0.0949 -0.2466 -0.1436
   90loPI   C2A 1432  14.271  15.015   9.628 -0.2197 -0.2323 -0.3791
   90loPI   C3A 1433  14.181  14.885   9.317  0.0241  0.2431 -0.3724
   90loPI   C4A 1434  14.315  14.868   8.861 -0.0728  0.2476 -0.1309
   90loPI   C5A 1435  14.309  14.690   8.425  0.0276 -0.3325 -0.3296
   90loPI   C6A 1436  14.143  14.308   8.295 -0.3451  0.2121  0.1046
   90loPI   C1B 1437  14.808  14.820   9.857 -0.1324 -0.0995  0.2556
   90loPI   C2B 1438  14.787  14.926   9.362 -0.0880  0.2793 -0.0943
   90loPI   C3B 1439  14.896  14.822   8.968  0.0200 -0.0873 -0.2741
   90loPI   C4B 1440  15.034  14.814   8.553  0.1206 -0.4023  0.0487
   91loPI    C1 1441   6.259   4.450  10.340 -0.1117  0.1117  0.1776
   91loPI    C2 1442   6.363   4.075  10.433 -0.0255  0.0897 -0.0015
   91loPI    C3 1443   6.433   4.372  10.692 -0.1050 -0.0183  0.1461
   91loPI   PO4 1444   6.314   4.488   9.992 -0.2500 -0.0436  0.1717
   91loPI   GL1 1445   6.134   4.360   9.526  0.2405  0.0600  0.2085
   91loPI   GL2 1446   6.328   4.156   9.440  0.1450 -0.3690  0.0402
   91loPI   C1A 1447   5.775   4.406   9.239 -0.1151 -0.1709  0.2646
   91loPI   C2A 1448   5.735   4.601   8.841 -0.1052 -0.1363  0.0701
   91loPI   C3A 1449   5.682   4.715   8.456 -0.2136 -0.3508  0.2323
   91loPI   C4A 1450   5.670   4.933   8.094  0.2942 -0.1418 -0.0398
   91loPI   C5A 1451   5.489   5.047   7.626  0.2348  0.3386 -0.0474
   91loPI   C6A 1452   5.431   5.255   7.264 -0.1821  0.1398 -0.0576
   91loPI   C1B 1453   6.123   4.130   9.054 -0.0093  0.0826  0.1648
   91loPI   C2B 1454   5.927   4.162   8.636  0.1376 -0.3984  0.0755
   91loPI   C3B 1455   5.769   4.176   8.207 -0.0147 -0.1216 -0.2426
   91loPI   C4B 1456   5.594   4.460   7.834 -0.1373 -0.0190  0.0029
   92loPI    C1 1457   5.397   4.436  10.171 -0.0088  0.0857 -0.0541
   92loPI    C2 1458   5.046   4.453  10.361 -0.0401 -0.0039 -0.1035
   92loPI    C3 1459   5.351   4.249  10.521  0.0261  0.1716 -0.0033
   92loPI   PO4 1460   5.315   4.583   9.945 -0.0741 -0.6707  0.0556
   92loPI   GL1 1461   5.454   4.710   9.609  0.1443 -0.1733  0.0692
   92loPI   GL2 1462   5.237   4.963   9.596  0.2820 -0.0362 -0.3666
   92loPI   C1A 1463   5.290   4.668   9.150  0.1902  0.0826  0.1074
   92loPI   C2A 1464   5.021   4.714   8.812 -0.1387  0.0336 -0.2936
   92loPI   C3A 1465   4.801   4.659   8.494  0.3871 -0.2117 -0.1160
   92loPI   C4A 1466   4.621   4.932   8.163  0.3375  0.0735  0.2491
   92loPI   C5A 1467   4.721   5.108   7.705 -0.0708  0.0599 -0.1837
   92loPI   C6A 1468   4.936   5.248   7.420  0.1641  0.4350 -0.0491
   92loPI   C1B 1469   5.208   5.148   9.253 -0.0979  0.1532  0.0043
   92loPI   C2B 1470   4.910   5.209   8.851 -0.1567 -0.0871 -0.0284
   92loPI   C3B 1471   4.816   5.255   8.493 -0.0235  0.2316  0.2763
   92loPI   C4B 1472   4.722   5.480   8.117  0.1653 -0.0720 -0.0034
   93loPI    C1 1473   3.000   3.471  10.304 -0.0318 -0.0984  0.0719
   93loPI    C2 1474   2.623   3.360  10.230 -0.0461  0.0199 -0.0338
   93loPI    C3 1475   2.782   3.297  10.591 -0.2348  0.1550  0.0744
   93loPI   PO4 1476   3.073   3.661  10.112 -0.2129  0.0295  0.0947
   93loPI   GL1 1477   2.977   3.808   9.762 -0.1827 -0.0626  0.0532
   93loPI   GL2 1478   3.115   3.997   9.552 -0.0148 -0.2582 -0.0362
   93loPI   C1A 1479   2.749   3.782   9.355  0.1170  0.0097  0.1165
   93loPI   C2A 1480   2.842   3.908   8.865  0.2579 -0.1840  0.1237
   93loPI   C3A 1481   3.122   3.841   8.466  0.1213 -0.1159 -0.0873
   93loPI   C4A 1482   3.207   3.669   8.076  0.0799  0.0018  0.0266
   93loPI   C5A 1483   3.350   3.939   7.757 -0.0491  0.0829 -0.0135
   93loPI   C6A 1484   3.478   4.330   7.903  0.0577 -0.0115  0.0452
   93loPI   C1B 1485   3.272   4.030   9.097  0.0482 -0.2633 -0.0626
   93loPI   C2B 1486   3.545   3.865   8.837 -0.1614 -0.0087 -0.1370
   93loPI   C3B 1487   3.726   3.814   8.456  0.1227 -0.1722  0.0781
   93loPI   C4B 1488   3.743   3.922   8.087 -0.0313 -0.3930  0.0808
   94loPI    C1 1489  11.419   3.828  10.277 -0.0724 -0.0025  0.0375
   94loPI    C2 1490  11.476   3.769  10.669 -0.0842  0.0999  0.0552
   94loPI    C3 1491  11.788   3.841  10.430 -0.0502 -0.2038  0.0033
   94loPI   PO4 1492  11.278   3.591  10.139 -0.0176  0.1238  0.0351
   94loPI   GL1 1493  11.262   3.431   9.745 -0.1755  0.0569  0.0067
   94loPI   GL2 1494  10.910   3.461   9.719  0.1278  0.2444 -0.0801
   94loPI   C1A 1495  11.300   3.542   9.391  0.0087  0.3742  0.0411
   94loPI   C2A 1496  11.159   3.463   8.999 -0.1316 -0.0581 -0.0216
   94loPI   C3A 1497  11.287   3.350   8.621  0.0579 -0.0815 -0.1047
   94loPI   C4A 1498  11.282   3.577   8.385 -0.1998  0.1700  0.2091
   94loPI   C5A 1499  11.434   3.836   8.053 -0.0950  0.0337  0.1584
   94loPI   C6A 1500  11.441   4.093   7.649 -0.4110  0.1906  0.0691
   94loPI   C1B 1501  10.589   3.431   9.385 -0.1787  0.3173  0.1735
   94loPI   C2B 1502  10.448   3.596   9.000 -0.1413  0.0800  0.2895
   94loPI   C3B 1503  10.365   3.625   8.615  0.0182 -0.0411 -0.2233
   94loPI   C4B 1504  10.294   3.665   8.135  0.2971  0.0068 -0.0582
   95loPI    C1 1505   9.883   5.879  10.392  0.0222  0.0605  0.0120
   95loPI    C2 1506   9.783   6.137  10.682  0.2434  0.0170  0.1295
   95loPI    C3 1507   9.807   5.745  10.762  0.3577  0.0105  0.0663
   95loPI   PO4 1508   9.941   6.065  10.127  0.1364 -0.4873  0.0986
   95loPI   GL1 1509  10.031   6.428   9.801  0.1281 -0.1367  0.0769
   95loPI   GL2 1510  10.357   6.443   9.841  0.1865 -0.2264 -0.2222
   95loPI   C1A 1511   9.922   6.401   9.378  0.0965  0.1414 -0.1766
   95loPI   C2A 1512   9.773   6.450   8.943  0.1508  0.1045  0.0591
   95loPI   C3A 1513   9.832   6.723   8.645 -0.0814 -0.1564  0.0751
   95loPI   C4A 1514  10.081   7.104   8.514 -0.4423  0.2633 -0.0152
   95loPI   C5A 1515  10.377   7.422   8.436 -0.1135  0.0910  0.0486
   95loPI   C6A 1516  10.851   7.464   8.397  0.0344 -0.0744 -0.0869
   95loPI   C1B 1517  10.364   6.615   9.467  0.0012  0.0988 -0.1584
   95loPI   C2B 1518  10.593   6.442   9.002  0.2456 -0.0495 -0.1511
   95loPI   C3B 1519  10.847   6.444   8.603  0.1870 -0.0553 -0.0204
   95loPI   C4B 1520  11.064   6.514   8.215 -0.2113  0.3993  0.1857
   96loPI    C1 1521   5.727  11.012  10.375  0.0892  0.0019  0.0674
   96loPI    C2 1522   5.932  10.903  10.700  0.0575  0.0464  0.1024
   96loPI    C3 1523   5.871  11.291  10.622 -0.0627  0.0321  0.1233
   96loPI   PO4 1524   5.795  10.823  10.141  0.0422 -0.2158  0.3692
   96loPI   GL1 1525   5.669  10.812   9.649 -0.1203  0.3271  0.0582
   96loPI   GL2 1526   5.687  11.145   9.749 -0.1632 -0.1206 -0.0593
   96loPI   C1A 1527   5.943  10.667   9.390  0.1028  0.1591 -0.1970
   96loPI   C2A 1528   6.104  10.349   9.039  0.1901  0.3248  0.0242
   96loPI   C3A 1529   6.240  10.231   8.649 -0.2011 -0.0016  0.2300
   96loPI   C4A 1530   6.494  10.462   8.274  0.2707  0.0381  0.4273
   96loPI   C5A 1531   6.536  10.598   7.856  0.0519  0.1368  0.0454
   96loPI   C6A 1532   6.360  10.598   7.416 -0.1320  0.0657 -0.3054
   96loPI   C1B 1533   5.697  11.206   9.378  0.1870  0.0059  0.2958
   96loPI   C2B 1534   5.490  11.057   9.033  0.1924  0.2613  0.0881
   96loPI   C3B 1535   5.544  10.883   8.575 -0.1261  0.0020 -0.2812
   96loPI   C4B 1536   5.577  10.887   8.172 -0.0371  0.2063 -0.0981
   97loPI    C1 1537  11.166   5.678  10.727  0.0859  0.0046  0.2477
   97loPI    C2 1538  10.917   5.945  10.891 -0.0244 -0.0027  0.0938
   97loPI    C3 1539  10.772   5.642  10.673  0.1264  0.0801 -0.1254
   97loPI   PO4 1540  11.359   5.915  10.552  0.0400  0.0574  0.1601
   97loPI   GL1 1541  11.458   5.946  10.142 -0.0802 -0.0096 -0.3270
   97loPI   GL2 1542  11.226   6.228  10.143 -0.3610  0.2216  0.3346
   97loPI   C1A 1543  11.410   6.026   9.736 -0.1215 -0.2292 -0.0669
   97loPI   C2A 1544  11.413   6.214   9.373 -0.1450 -0.0362  0.0678
   97loPI   C3A 1545  11.215   6.216   8.968 -0.0929  0.2004 -0.2144
   97loPI   C4A 1546  11.144   6.075   8.548 -0.2961 -0.2061 -0.1903
   97loPI   C5A 1547  10.885   5.886   8.264  0.0041 -0.0923  0.0984
   97loPI   C6A 1548  10.535   5.680   8.190  0.1892  0.1044  0.0135
   97loPI   C1B 1549  11.068   6.514   9.783  0.0339  0.2301 -0.0089
   97loPI   C2B 1550  10.803   6.763   9.630 -0.1228 -0.2835  0.2003
   97loPI   C3B 1551  10.603   6.987   9.267  0.0951  0.2382  0.0039
   97loPI   C4B 1552  10.565   7.248   8.898 -0.0418  0.2457 -0.1887
   98loPI    C1 1553  12.200   5.078  10.118 -0.1876  0.1454  0.2495
   98loPI    C2 1554  12.309   5.172  10.491  0.1426  0.2637  0.1270
   98loPI    C3 1555  12.569   4.992  10.247 -0.1808 -0.1228  0.0582
   98loPI   PO4 1556  11.931   5.316  10.130 -0.2316 -0.0164  0.2050
   98loPI   GL1 1557  11.634   5.315   9.818  0.2920  0.1484 -0.0635
   98loPI   GL2 1558  11.667   5.623   9.842 -0.0120 -0.0011 -0.3966
   98loPI   C1A 1559  11.490   5.321   9.381  0.2396  0.1692 -0.0882
   98loPI   C2A 1560  11.731   5.394   9.081 -0.0845  0.1402 -0.1268
   98loPI   C3A 1561  11.931   5.562   8.655 -0.2253  0.0290  0.2555
   98loPI   C4A 1562  11.989   5.876   8.315 -0.1344  0.1409 -0.0395
   98loPI   C5A 1563  11.861   5.971   7.943  0.0208 -0.2560  0.2097
   98loPI   C6A 1564  12.020   5.734   7.622  0.0000  0.0289  0.2727
   98loPI   C1B 1565  11.682   5.783   9.378  0.0527  0.0614  0.1281
   98loPI   C2B 1566  11.698   5.990   9.045  0.0597 -0.0459 -0.0100
   98loPI   C3B 1567  11.634   6.053   8.659 -0.0084  0.0161  0.1540
   98loPI   C4B 1568  11.611   6.243   8.264  0.1217  0.0707 -0.3187
   99loPI    C1 1569  18.191   2.077  10.457 -0.2527 -0.3260 -0.0787
   99loPI    C2 1570  18.404   1.951  10.771 -0.1682  0.1219  0.0517
   99loPI    C3 1571  18.090   2.192  10.827 -0.3897 -0.1059 -0.1824
   99loPI   PO4 1572  18.234   1.819  10.261 -0.4638  0.3403 -0.2524
   99loPI   GL1 1573  17.918   1.574  10.011  0.3459 -0.1257  0.0562
   99loPI   GL2 1574  17.717   1.690   9.819  0.0482  0.0262  0.0387
   99loPI   C1A 1575  18.113   1.654   9.561  0.1377 -0.1829  0.0581
   99loPI   C2A 1576  18.312   1.664   9.174 -0.1041 -0.0435 -0.2965
   99loPI   C3A 1577  18.374   1.670   8.744 -0.1205  0.1226 -0.2404
   99loPI   C4A 1578  18.474   1.610   8.291  0.3030  0.0791 -0.0010
   99loPI   C5A 1579  18.359   1.265   8.054 -0.0743  0.0375 -0.2936
   99loPI   C6A 1580  18.379   0.823   7.848  0.2109 -0.3727  0.0296
   99loPI   C1B 1581  17.601   1.578   9.380 -0.1221 -0.0399  0.0376
   99loPI   C2B 1582  17.546   1.656   8.854 -0.3499  0.0508 -0.0492
   99loPI   C3B 1583  17.599   1.668   8.538  0.3844 -0.0680 -0.1711
   99loPI   C4B 1584  17.376   1.656   8.181  0.2164  0.0167 -0.0882
  100loPI    C1 1585   7.625   3.995   9.851 -0.0055 -0.1295 -0.0103
  100loPI    C2 1586   7.907   3.853  10.097  0.0549 -0.4272 -0.2460
  100loPI    C3 1587   7.695   4.176  10.202  0.2534 -0.3980  0.0806
  100loPI   PO4 1588   7.751   4.037   9.570  0.2100  0.1151 -0.2298
  100loPI   GL1 1589   7.839   3.808   9.168  0.1780  0.0826 -0.0660
  100loPI   GL2 1590   7.888   3.479   9.211 -0.0707 -0.0328 -0.1460
  100loPI   C1A 1591   7.748   3.904   8.748 -0.1418  0.3277 -0.2991
  100loPI   C2A 1592   7.788   4.024   8.375  0.2765 -0.0817 -0.0392
  100loPI   C3A 1593   8.097   4.243   8.119 -0.0117 -0.0719 -0.0417
  100loPI   C4A 1594   8.209   4.377   7.751  0.0336  0.2476 -0.0101
  100loPI   C5A 1595   8.460   4.168   7.368 -0.0737  0.1247  0.1319
  100loPI   C6A 1596   8.766   3.799   7.309 -0.0952 -0.1646 -0.0258
  100loPI   C1B 1597   8.287   3.455   8.932  0.1662  0.0157 -0.0992
  100loPI   C2B 1598   8.294   3.523   8.521 -0.0503 -0.2180  0.0641
  100loPI   C3B 1599   8.344   3.494   8.009 -0.4728  0.2106  0.2207
  100loPI   C4B 1600   8.231   3.862   7.773  0.0568  0.0242  0.0915
  101loPI    C1 1601  17.050   8.932  10.368 -0.2856 -0.2837 -0.0619
  101loPI    C2 1602  17.094   8.717  10.703  0.1383 -0.0864  0.0171
  101loPI    C3 1603  17.374   8.982  10.598 -0.2362  0.2233 -0.2296
  101loPI   PO4 1604  17.020   8.731  10.187  0.1367  0.0302  0.2411
  101loPI   GL1 1605  16.710   8.732   9.958 -0.2438  0.1441 -0.0235
  101loPI   GL2 1606  16.420   8.799   9.865 -0.0143  0.1570 -0.1114
  101loPI   C1A 1607  16.799   8.534   9.590  0.1734  0.1480  0.0427
  101loPI   C2A 1608  16.910   8.796   9.230  0.0285 -0.1992 -0.1211
  101loPI   C3A 1609  17.089   9.062   8.941  0.4905 -0.1438 -0.0680
  101loPI   C4A 1610  17.276   9.127   8.588 -0.2659 -0.2950 -0.0262
  101loPI   C5A 1611  17.286   9.383   8.183  0.2229  0.1553  0.0508
  101loPI   C6A 1612  17.005   9.548   7.826  0.2578  0.0872  0.3907
  101loPI   C1B 1613  16.289   8.803   9.426 -0.0252  0.0146 -0.0239
  101loPI   C2B 1614  16.354   8.816   9.062  0.3840 -0.3473  0.0836
  101loPI   C3B 1615  16.697   8.910   8.682 -0.1980 -0.0480 -0.3763
  101loPI   C4B 1616  16.819   9.117   8.338 -0.2870  0.0788 -0.3492
  102loPI    C1 1617   3.916   0.890  10.229 -0.2202  0.1344 -0.0346
  102loPI    C2 1618   4.300   0.989  10.287 -0.0947 -0.3023 -0.0838
  102loPI    C3 1619   4.013   1.264  10.332  0.2167  0.0125  0.0185
  102loPI   PO4 1620   3.958   0.703  10.041  0.0480 -0.0252 -0.0817
  102loPI   GL1 1621   4.041   0.718   9.621 -0.3357 -0.0264  0.1048
  102loPI   GL2 1622   3.712   0.743   9.566  0.0634  0.0416  0.3108
  102loPI   C1A 1623   3.822   0.826   9.078  0.1229  0.2452  0.1246
  102loPI   C2A 1624   3.782   0.865   8.663  0.2359  0.2056  0.2477
  102loPI   C3A 1625   3.526   0.687   8.396  0.0419 -0.0411  0.1362
  102loPI   C4A 1626   3.295   0.628   8.021  0.2625  0.0279  0.0513
  102loPI   C5A 1627   2.868   0.648   8.039  0.2612  0.1716 -0.1365
  102loPI   C6A 1628   2.475   0.867   7.892 -0.2703 -0.2814  0.0424
  102loPI   C1B 1629   3.513   0.388   9.286  0.3781 -0.1687  0.0486
  102loPI   C2B 1630   3.612   0.312   8.853 -0.1557  0.0410  0.0069
  102loPI   C3B 1631   3.296   0.228   8.454  0.0188 -0.2483 -0.0264
  102loPI   C4B 1632   2.894   0.108   8.232 -0.1308 -0.1301  0.1215
  103loPI    C1 1633  11.319  15.571  10.328 -0.2283 -0.2284  0.1096
  103loPI    C2 1634  10.989  15.722  10.497  0.0219  0.0138  0.3969
  103loPI    C3 1635  11.304  15.958  10.429  0.0440 -0.1527 -0.1270
  103loPI   PO4 1636  11.251  15.435  10.130  0.0721  0.0929 -0.1049
  103loPI   GL1 1637  11.145  15.483   9.743 -0.0062 -0.2804 -0.0441
  103loPI   GL2 1638  11.496  15.418   9.535 -0.1107 -0.1825  0.1720
  103loPI   C1A 1639  10.992  15.492   9.309  0.0424 -0.1080  0.1913
  103loPI   C2A 1640  11.179  15.524   8.861  0.0995 -0.1841  0.1951
  103loPI   C3A 1641  11.379  15.416   8.537  0.0442  0.0498 -0.1304
  103loPI   C4A 1642  11.783  15.495   8.343  0.5081  0.4167  0.0678
  103loPI   C5A 1643  12.119  15.502   7.947  0.1355 -0.1079 -0.1218
  103loPI   C6A 1644  12.236  15.434   7.562 -0.1212 -0.0315 -0.2982
  103loPI   C1B 1645  11.412  15.800   9.330  0.2373  0.2639 -0.3188
  103loPI   C2B 1646  11.367  16.003   8.984 -0.0613  0.2908  0.2486
  103loPI   C3B 1647  11.229  16.410   8.887 -0.1037 -0.0201  0.3114
  103loPI   C4B 1648  11.301  16.706   8.583  0.2013  0.2381 -0.1334
  104loPI    C1 1649   2.362  16.516  10.044  0.0944 -0.1078 -0.1001
  104loPI    C2 1650   2.463  16.167  10.210  0.0906 -0.0097  0.1125
  104loPI    C3 1651   2.716  16.477  10.227  0.0470  0.0311  0.0238
  104loPI   PO4 1652   2.303  16.423   9.731  0.3287 -0.1884 -0.0600
  104loPI   GL1 1653   2.348  16.482   9.382  0.1499 -0.0848  0.2637
  104loPI   GL2 1654   2.315  16.251   9.225 -0.4083 -0.3499  0.0140
  104loPI   C1A 1655   1.909  16.472   9.097  0.1210 -0.1138  0.0821
  104loPI   C2A 1656   1.765  16.453   8.719 -0.1042  0.1709  0.2250
  104loPI   C3A 1657   1.764  16.571   8.303  0.3684 -0.0219 -0.0546
  104loPI   C4A 1658   1.797  16.713   7.817  0.2682  0.0844  0.1714
  104loPI   C5A 1659   2.115  16.631   7.621  0.2561 -0.1858  0.0001
  104loPI   C6A 1660   2.336  16.724   7.309  0.3746 -0.0908  0.0763
  104loPI   C1B 1661   2.264  16.251   8.786 -0.1871  0.1757 -0.1671
  104loPI   C2B 1662   2.154  16.314   8.369  0.2668 -0.0701 -0.0716
  104loPI   C3B 1663   1.916  16.214   7.944 -0.0000 -0.1390 -0.2893
  104loPI   C4B 1664   1.792  15.858   7.679  0.0339  0.1248  0.1166
  105loPI    C1 1665  12.714   0.937  10.083 -0.1440  0.0593  0.1473
  105loPI    C2 1666  12.591   0.773  10.427 -0.0404 -0.1287  0.0961
  105loPI    C3 1667  12.935   0.978  10.414 -0.1222  0.0126  0.1386
  105loPI   PO4 1668  12.597   0.687   9.901  0.3012 -0.0748 -0.2285
  105loPI   GL1 1669  12.330   0.708   9.528  0.0508 -0.2524  0.1937
  105loPI   GL2 1670  12.344   0.965   9.594 -0.2537  0.1662 -0.2599
  105loPI   C1A 1671  12.289   0.509   9.109 -0.0274  0.4171 -0.2692
  105loPI   C2A 1672  12.098   0.245   8.764 -0.4079  0.0779  0.1445
  105loPI   C3A 1673  12.120   0.387   8.429 -0.1754  0.2564  0.1336
  105loPI   C4A 1674  12.259   0.762   8.103 -0.1496 -0.1061  0.0720
  105loPI   C5A 1675  12.112   0.930   7.801 -0.1216 -0.1564  0.0696
  105loPI   C6A 1676  11.799   0.960   7.619 -0.3348 -0.0558 -0.0093
  105loPI   C1B 1677  12.544   0.982   9.113  0.2415 -0.0302  0.2088
  105loPI   C2B 1678  12.821   1.148   8.794  0.0368  0.2048  0.3043
  105loPI   C3B 1679  12.966   0.900   8.567 -0.0392 -0.1031  0.1493
  105loPI   C4B 1680  12.882   0.692   8.208 -0.0734 -0.3227  0.0883
  106loPI    C1 1681  10.984  15.040  10.307 -0.0199 -0.0027 -0.0649
  106loPI    C2 1682  10.714  15.086  10.598 -0.2240  0.1545 -0.2751
  106loPI    C3 1683  11.068  15.270  10.623 -0.0952 -0.1274  0.0464
  106loPI   PO4 1684  10.847  15.086  10.070  0.1290  0.0228  0.0875
  106loPI   GL1 1685  10.753  15.174   9.772  0.2864 -0.0106  0.1366
  106loPI   GL2 1686  10.650  15.517   9.754  0.0084 -0.0095 -0.4447
  106loPI   C1A 1687  10.608  15.157   9.272  0.0226  0.4062 -0.0939
  106loPI   C2A 1688  10.770  15.160   8.837  0.1837 -0.0949 -0.1114
  106loPI   C3A 1689  10.955  15.141   8.456  0.3288 -0.0373 -0.0368
  106loPI   C4A 1690  10.874  14.774   8.214 -0.0632  0.2135 -0.2818
  106loPI   C5A 1691  10.990  14.476   7.930 -0.2565  0.3139  0.2174
  106loPI   C6A 1692  10.877  14.504   7.436  0.1486 -0.0351 -0.2087
  106loPI   C1B 1693  10.523  15.712   9.309  0.0578 -0.1329 -0.2829
  106loPI   C2B 1694  10.713  15.625   8.932  0.0481  0.0378  0.1207
  106loPI   C3B 1695  10.809  15.588   8.547 -0.0860  0.0009 -0.1186
  106loPI   C4B 1696  11.096  15.520   8.170 -0.0452 -0.0668 -0.1207
  107loPI    C1 1697  15.715   3.257   9.994  0.1084  0.2587  0.0791
  107loPI    C2 1698  16.112   3.311   9.999  0.1353  0.0898 -0.1057
  107loPI    C3 1699  15.901   3.343  10.338  0.3083  0.1646 -0.0040
  107loPI   PO4 1700  15.621   3.401   9.758  0.2042  0.0889  0.0764
  107loPI   GL1 1701  15.388   3.733   9.493 -0.0314 -0.0767 -0.1593
  107loPI   GL2 1702  15.695   3.955   9.495  0.1606  0.0753  0.0836
  107loPI   C1A 1703  15.559   3.624   9.127  0.1683 -0.1759  0.0125
  107loPI   C2A 1704  15.505   3.358   8.747 -0.0711  0.0673 -0.2734
  107loPI   C3A 1705  15.828   3.103   8.582 -0.2388  0.0048 -0.1803
  107loPI   C4A 1706  16.162   3.120   8.280 -0.0956 -0.0090 -0.3704
  107loPI   C5A 1707  16.112   3.206   7.894  0.0531  0.0476  0.4404
  107loPI   C6A 1708  16.426   3.223   7.603  0.4406 -0.0685  0.1245
  107loPI   C1B 1709  15.684   4.264   9.196 -0.2579  0.3822 -0.2155
  107loPI   C2B 1710  15.833   4.243   8.868  0.2024  0.1198 -0.0271
  107loPI   C3B 1711  15.861   4.436   8.517  0.0672  0.1023 -0.3446
  107loPI   C4B 1712  15.973   4.817   8.254 -0.1279 -0.0244 -0.1862
  108loPI    C1 1713  16.097   8.002  10.400  0.0046 -0.2979 -0.1808
  108loPI    C2 1714  16.424   7.972  10.628 -0.1408 -0.1285  0.0548
  108loPI    C3 1715  16.149   7.682  10.634 -0.2027 -0.0679  0.1907
  108loPI   PO4 1716  16.136   8.115  10.280 -0.1240 -0.1562  0.1218
  108loPI   GL1 1717  15.901   8.318   9.991 -0.2044 -0.1364  0.3887
  108loPI   GL2 1718  15.676   8.047  10.025  0.0029  0.0192  0.0531
  108loPI   C1A 1719  16.019   7.895   9.668  0.3193 -0.1295 -0.0568
  108loPI   C2A 1720  16.011   7.743   9.362 -0.0094  0.0084 -0.2696
  108loPI   C3A 1721  15.908   7.619   8.979  0.4554  0.4523 -0.0206
  108loPI   C4A 1722  15.988   7.630   8.510 -0.0691  0.0422 -0.1708
  108loPI   C5A 1723  16.239   7.340   8.247  0.2454 -0.3628  0.1343
  108loPI   C6A 1724  16.162   7.072   8.041  0.0090  0.2155  0.0341
  108loPI   C1B 1725  15.514   7.985   9.689  0.1085  0.1179 -0.4341
  108loPI   C2B 1726  15.540   7.906   9.226  0.0610  0.2469  0.2916
  108loPI   C3B 1727  15.530   7.815   8.733  0.0981  0.2360 -0.0524
  108loPI   C4B 1728  15.495   7.480   8.541 -0.1695  0.0127  0.0503
  109loPI    C1 1729   8.648   8.007  10.698 -0.2130  0.0876  0.0436
  109loPI    C2 1730   8.786   8.382  10.697 -0.2480  0.1006  0.0828
  109loPI    C3 1731   8.858   8.144  11.010 -0.0721  0.0174 -0.0195
  109loPI   PO4 1732   8.715   7.882  10.458  0.2379 -0.1404 -0.0237
  109loPI   GL1 1733   8.821   7.636  10.023 -0.2490  0.3667 -0.4551
  109loPI   GL2 1734   8.583   7.555   9.882 -0.1571  0.0405 -0.0764
  109loPI   C1A 1735   8.893   7.873   9.595  0.0098 -0.1940 -0.0626
  109loPI   C2A 1736   8.937   7.873   9.202  0.0189 -0.0769  0.1201
  109loPI   C3A 1737   9.057   7.880   8.731  0.0164  0.4616  0.1124
  109loPI   C4A 1738   9.068   8.028   8.301 -0.0319 -0.2894 -0.0255
  109loPI   C5A 1739   8.937   8.376   7.915  0.1068  0.2388  0.1965
  109loPI   C6A 1740   9.011   8.698   7.776  0.0662  0.3243 -0.0033
  109loPI   C1B 1741   8.515   7.434   9.487 -0.0195  0.1028  0.3054
  109loPI   C2B 1742   8.519   7.419   9.064  0.0916  0.5208 -0.2534
  109loPI   C3B 1743   8.658   7.532   8.750 -0.3101 -0.0702  0.1131
  109loPI   C4B 1744   8.727   7.661   8.330 -0.2722 -0.2564 -0.2580
  110loPI    C1 1745  17.834  11.658  10.956 -0.1505 -0.1793  0.1099
  110loPI    C2 1746  17.931  11.934  11.229  0.1857 -0.1335 -0.0503
  110loPI    C3 1747  17.897  11.550  11.336 -0.0358 -0.0676  0.1235
  110loPI   PO4 1748  17.742  11.747  10.713 -0.1351 -0.0294  0.0227
  110loPI   GL1 1749  17.702  11.934  10.342  0.2170  0.0989  0.0561
  110loPI   GL2 1750  17.381  11.980  10.136 -0.0287 -0.1486 -0.2350
  110loPI   C1A 1751  17.804  11.962   9.889 -0.0206  0.4515  0.2138
  110loPI   C2A 1752  18.020  11.874   9.513  0.1732 -0.1502  0.1640
  110loPI   C3A 1753  18.202  11.875   9.125 -0.1853  0.0720  0.0925
  110loPI   C4A 1754  18.093  11.772   8.746 -0.1888 -0.1369  0.1158
  110loPI   C5A 1755  18.162  11.706   8.274 -0.0719  0.4494  0.1658
  110loPI   C6A 1756  18.041  11.543   7.971 -0.3928 -0.0898 -0.0102
  110loPI   C1B 1757  17.366  12.117   9.624 -0.0968  0.0998 -0.1883
  110loPI   C2B 1758  17.407  12.163   9.198 -0.2582  0.0498 -0.0270
  110loPI   C3B 1759  17.483  12.470   8.864  0.1408  0.3236 -0.1513
  110loPI   C4B 1760  17.323  12.567   8.346 -0.2657  0.0283  0.0345
  111loPI    C1 1761   6.800   4.801  10.029  0.0971  0.1076  0.0388
  111loPI    C2 1762   6.595   4.831  10.372 -0.0377  0.3580 -0.0615
  111loPI    C3 1763   6.992   4.781  10.380 -0.1137 -0.2991  0.1369
  111loPI   PO4 1764   6.572   4.944   9.879  0.1316  0.1592  0.1595
  111loPI   GL1 1765   6.519   4.985   9.468  0.0596 -0.2918  0.0826
  111loPI   GL2 1766   6.537   4.709   9.285  0.3700 -0.1168  0.3306
  111loPI   C1A 1767   6.597   5.083   9.034 -0.3357 -0.0942 -0.1475
  111loPI   C2A 1768   6.678   4.897   8.545 -0.0507 -0.1051 -0.2136
  111loPI   C3A 1769   6.751   4.808   8.107  0.4940 -0.1278  0.2439
  111loPI   C4A 1770   6.535   5.071   7.737 -0.1968  0.1568 -0.0802
  111loPI   C5A 1771   6.289   5.335   7.504  0.1245  0.0014 -0.2318
  111loPI   C6A 1772   5.893   5.272   7.382 -0.2671  0.0899 -0.0993
  111loPI   C1B 1773   6.353   4.539   8.851  0.2457 -0.1472  0.2845
  111loPI   C2B 1774   6.243   4.546   8.496 -0.1516 -0.2441  0.0975
  111loPI   C3B 1775   6.096   4.534   8.031 -0.0890 -0.0016  0.1004
  111loPI   C4B 1776   5.912   4.809   7.565 -0.2403  0.0004  0.2721
  112loPI    C1 1777  15.136  18.472  10.187  0.0856 -0.3576 -0.3044
  112loPI    C2 1778  15.277  18.166  10.403 -0.2518 -0.1968  0.1593
  112loPI    C3 1779  14.964  18.112  10.160 -0.2246 -0.2509  0.1362
  112loPI   PO4 1780  15.387  18.648  10.120 -0.0093 -0.0063 -0.0852
  112loPI   GL1 1781  15.302  18.842   9.694  0.1859 -0.2066 -0.2353
  112loPI   GL2 1782  15.002  18.765   9.572 -0.6063  0.0255  0.1975
  112loPI   C1A 1783  15.632  19.029   9.388  0.3692  0.0586  0.1605
  112loPI   C2A 1784  15.674  19.063   8.912  0.2274 -0.1443 -0.0410
  112loPI   C3A 1785  15.973  19.080   8.580  0.2081  0.1891 -0.0568
  112loPI   C4A 1786  15.888  18.913   8.123 -0.0047 -0.3357 -0.2846
  112loPI   C5A 1787  15.694  18.625   7.791  0.2350  0.5177  0.0627
  112loPI   C6A 1788  15.351  18.602   7.595 -0.0452  0.1552 -0.2572
  112loPI   C1B 1789  15.209  18.835   9.140 -0.0524 -0.2220  0.1223
  112loPI   C2B 1790  15.216  19.058   8.684 -0.2879  0.0928 -0.0200
  112loPI   C3B 1791  15.274  19.236   8.335  0.3026 -0.1681 -0.1668
  112loPI   C4B 1792  15.096  19.419   8.018  0.1646  0.0544  0.1788
  113loPI    C1 1793  11.758  16.951  10.676  0.1981  0.2258  0.0332
  113loPI    C2 1794  11.398  16.842  10.812  0.2356  0.0577 -0.0003
  113loPI    C3 1795  11.652  17.038  11.052  0.1124  0.2007  0.0149
  113loPI   PO4 1796  11.738  17.038  10.445  0.0997  0.1447 -0.3593
  113loPI   GL1 1797  11.756  17.020  10.007 -0.0969 -0.1723  0.2847
  113loPI   GL2 1798  11.765  16.678  10.049  0.2480 -0.1438 -0.2734
  113loPI   C1A 1799  11.703  17.075   9.559 -0.0951  0.2522 -0.0477
  113loPI   C2A 1800  11.794  16.898   9.104  0.0648  0.1888 -0.0270
  113loPI   C3A 1801  11.751  16.817   8.651 -0.2237  0.0802  0.0589
  113loPI   C4A 1802  11.560  16.837   8.218  0.0167 -0.2195 -0.0780
  113loPI   C5A 1803  11.547  17.197   7.822 -0.0321  0.0293  0.0828
  113loPI   C6A 1804  11.785  17.490   7.697 -0.1754  0.1835  0.1365
  113loPI   C1B 1805  11.617  16.621   9.620 -0.1000 -0.1354  0.0384
  113loPI   C2B 1806  11.745  16.375   9.266  0.0059  0.2941 -0.0710
  113loPI   C3B 1807  11.729  16.405   8.824 -0.2642  0.0770 -0.3507
  113loPI   C4B 1808  11.532  16.350   8.441  0.2266  0.1019 -0.1653
  114loPI    C1 1809  12.400  16.191  10.737  0.0972  0.1162 -0.1066
  114loPI    C2 1810  12.796  16.159  10.784  0.0940  0.1528 -0.0533
  114loPI    C3 1811  12.581  16.373  11.044 -0.0005 -0.1082  0.0877
  114loPI   PO4 1812  12.269  16.210  10.492  0.1046 -0.2470  0.4702
  114loPI   GL1 1813  12.323  16.363  10.081  0.0462 -0.1551 -0.0506
  114loPI   GL2 1814  12.527  16.278   9.886 -0.0021  0.1252  0.0327
  114loPI   C1A 1815  12.143  16.462   9.631  0.4214  0.0723  0.1229
  114loPI   C2A 1816  12.179  16.542   9.239  0.2616  0.3535 -0.0728
  114loPI   C3A 1817  12.229  16.436   8.799 -0.2013 -0.0697 -0.2495
  114loPI   C4A 1818  11.994  16.504   8.351 -0.1613  0.0904  0.0385
  114loPI   C5A 1819  11.916  16.539   8.037 -0.1964 -0.3763 -0.3582
  114loPI   C6A 1820  11.815  16.473   7.707 -0.2159  0.1020  0.3400
  114loPI   C1B 1821  12.738  16.291   9.463 -0.2776  0.1369  0.1247
  114loPI   C2B 1822  12.484  16.074   9.013  0.2414 -0.0833  0.4126
  114loPI   C3B 1823  12.598  16.080   8.568  0.1525 -0.0689  0.3910
  114loPI   C4B 1824  12.511  16.454   8.361  0.0915 -0.2009 -0.1288
  115loPI    C1 1825   6.208   6.673  10.217 -0.2404  0.4053  0.0858
  115loPI    C2 1826   5.876   6.598  10.426 -0.2410  0.2223  0.0207
  115loPI    C3 1827   6.141   6.306  10.361 -0.1590  0.3206 -0.0896
  115loPI   PO4 1828   6.108   6.759   9.952 -0.4280  0.0566 -0.0889
  115loPI   GL1 1829   6.252   6.713   9.472 -0.1243 -0.1400 -0.1137
  115loPI   GL2 1830   6.176   6.282   9.438 -0.2135  0.1556  0.3463
  115loPI   C1A 1831   6.390   6.467   9.040 -0.3246  0.0247  0.1735
  115loPI   C2A 1832   6.235   6.320   8.588  0.0761 -0.0364 -0.2457
  115loPI   C3A 1833   5.760   6.091   8.527  0.1890 -0.4242  0.2397
  115loPI   C4A 1834   5.309   5.993   8.354  0.0234  0.0279 -0.0015
  115loPI   C5A 1835   5.223   5.731   8.084  0.2230  0.2948  0.1803
  115loPI   C6A 1836   5.113   5.341   7.909 -0.1877  0.3377  0.2545
  115loPI   C1B 1837   6.386   5.882   9.219 -0.0998 -0.1635 -0.0096
  115loPI   C2B 1838   6.311   5.879   8.803  0.0502  0.1048  0.2332
  115loPI   C3B 1839   6.140   5.786   8.496  0.3861  0.2446 -0.0284
  115loPI   C4B 1840   6.140   5.578   8.236  0.3515 -0.0467 -0.0396
  116loPI    C1 1841   1.587  15.919  10.264  0.0164  0.0495 -0.1906
  116loPI    C2 1842   1.889  16.062  10.485  0.0252 -0.0298 -0.1510
  116loPI    C3 1843   1.635  15.795  10.642 -0.0450  0.0106 -0.1955
  116loPI   PO4 1844   1.480  16.116  10.154 -0.0888 -0.2939  0.3010
  116loPI   GL1 1845   1.555  16.057   9.688 -0.3920 -0.2014 -0.3565
  116loPI   GL2 1846   1.906  16.153   9.574  0.1286  0.1365 -0.2378
  116loPI   C1A 1847   1.494  16.062   9.250  0.0338 -0.1085  0.0154
  116loPI   C2A 1848   1.497  16.033   8.762 -0.0403 -0.0720  0.0501
  116loPI   C3A 1849   1.582  16.072   8.337  0.0764 -0.1998  0.1095
  116loPI   C4A 1850   1.425  16.255   7.879 -0.1451 -0.1872 -0.6318
  116loPI   C5A 1851   1.488  16.235   7.495 -0.0376 -0.1252  0.4389
  116loPI   C6A 1852   1.682  16.009   7.185  0.1199  0.0269  0.1887
  116loPI   C1B 1853   1.969  15.927   9.215  0.0792  0.0202 -0.0133
  116loPI   C2B 1854   2.017  15.652   8.702  0.0340 -0.2525  0.0100
  116loPI   C3B 1855   2.053  15.831   8.336  0.5135  0.0694  0.0283
  116loPI   C4B 1856   2.242  15.775   7.949 -0.1264  0.0189 -0.1928
  117loPI    C1 1857   1.233  10.583  10.414  0.0931  0.2568 -0.1402
  117loPI    C2 1858   1.254  10.850  10.711  0.2229  0.2808 -0.1705
  117loPI    C3 1859   1.394  10.479  10.765  0.2621  0.2903 -0.2070
  117loPI   PO4 1860   1.259  10.728  10.208  0.1918  0.1280 -0.0477
  117loPI   GL1 1861   1.251  11.035   9.777 -0.0437  0.0470  0.0871
  117loPI   GL2 1862   1.079  11.225   9.657 -0.2306 -0.3498 -0.0042
  117loPI   C1A 1863   1.188  10.882   9.362  0.1257  0.1699  0.1424
  117loPI   C2A 1864   1.249  10.796   8.918  0.2066 -0.3796  0.2843
  117loPI   C3A 1865   1.182  10.725   8.530 -0.4614  0.4574 -0.3617
  117loPI   C4A 1866   1.268  10.955   8.179  0.0948 -0.1553 -0.2043
  117loPI   C5A 1867   1.669  11.101   7.894 -0.2988 -0.1025  0.3570
  117loPI   C6A 1868   2.015  11.341   7.699  0.1772 -0.0928  0.1755
  117loPI   C1B 1869   1.138  11.355   9.257 -0.0667  0.0712  0.0438
  117loPI   C2B 1870   1.156  11.307   8.829 -0.0891  0.1833  0.1253
  117loPI   C3B 1871   1.007  11.306   8.450 -0.2227  0.1652  0.4697
  117loPI   C4B 1872   0.755  11.376   8.112 -0.2040  0.0025  0.2909
  118loPI    C1 1873   0.692   6.660  10.584  0.0759  0.0432  0.1428
  118loPI    C2 1874   0.626   6.378  10.859  0.1250 -0.2102 -0.1008
  118loPI    C3 1875   0.962   6.594  10.871  0.0362 -0.0818  0.1519
  118loPI   PO4 1876   0.681   6.579  10.424  0.0098 -0.1483 -0.2927
  118loPI   GL1 1877   0.577   6.438  10.068 -0.0194 -0.3565 -0.2836
  118loPI   GL2 1878   0.906   6.389   9.845  0.0151 -0.0181 -0.2828
  118loPI   C1A 1879   0.275   6.325   9.855 -0.1880  0.1999  0.0632
  118loPI   C2A 1880  -0.097   6.469   9.514  0.0976 -0.0898 -0.0387
  118loPI   C3A 1881  -0.333   6.362   9.155 -0.2912 -0.0907 -0.1198
  118loPI   C4A 1882  -0.435   6.390   8.754  0.1953 -0.1349 -0.1170
  118loPI   C5A 1883  -0.656   6.337   8.433  0.2611  0.0223 -0.0317
  118loPI   C6A 1884  -0.823   6.281   8.070 -0.0134 -0.3216  0.0024
  118loPI   C1B 1885   0.824   6.485   9.451  0.0592  0.0649 -0.1068
  118loPI   C2B 1886   0.753   6.507   9.046  0.0704  0.0533  0.2790
  118loPI   C3B 1887   0.532   6.268   8.895  0.0876 -0.0219 -0.2853
  118loPI   C4B 1888   0.420   5.986   8.592  0.4000  0.1766  0.1642
  119loPI    C1 1889   3.964   3.560  10.281  0.0036  0.1557 -0.0049
  119loPI    C2 1890   4.343   3.675  10.228  0.0923 -0.1158  0.0297
  119loPI    C3 1891   4.251   3.417  10.519 -0.1368  0.0358  0.0936
  119loPI   PO4 1892   3.864   3.530  10.085  0.1908  0.1455 -0.0152
  119loPI   GL1 1893   3.943   3.558   9.635 -0.0781 -0.0241 -0.0688
  119loPI   GL2 1894   4.180   3.777   9.544  0.0290 -0.0455  0.0278
  119loPI   C1A 1895   3.716   3.595   9.229  0.0707  0.0160  0.3067
  119loPI   C2A 1896   3.757   3.376   8.758 -0.0980 -0.2240  0.2845
  119loPI   C3A 1897   3.680   3.335   8.310  0.0195  0.0320 -0.0068
  119loPI   C4A 1898   3.716   3.409   7.871  0.0361 -0.1981  0.1752
  119loPI   C5A 1899   3.769   3.632   7.520  0.2438 -0.0240  0.2971
  119loPI   C6A 1900   3.892   4.055   7.631 -0.3229  0.1618 -0.0020
  119loPI   C1B 1901   4.076   3.898   9.153  0.3327 -0.2737 -0.2871
  119loPI   C2B 1902   4.221   3.913   8.699  0.0008  0.0978  0.2445
  119loPI   C3B 1903   4.350   4.067   8.320 -0.0295 -0.1484 -0.0066
  119loPI   C4B 1904   4.362   4.137   7.915  0.0585 -0.0441  0.0952
  120loPI    C1 1905  14.776   7.113  11.161  0.1997 -0.0337  0.1048
  120loPI    C2 1906  14.692   7.316  11.495  0.0934 -0.0466  0.0863
  120loPI    C3 1907  14.413   7.084  11.327  0.1352 -0.0120 -0.0315
  120loPI   PO4 1908  14.871   7.275  10.947 -0.4860  0.0010  0.0021
  120loPI   GL1 1909  14.812   7.208  10.518  0.3810 -0.0156 -0.1099
  120loPI   GL2 1910  14.592   7.447  10.391  0.0646  0.1595 -0.1361
  120loPI   C1A 1911  14.963   7.191  10.149 -0.3387  0.0691  0.0939
  120loPI   C2A 1912  14.913   6.979   9.719  0.0039  0.0101 -0.3923
  120loPI   C3A 1913  14.923   7.063   9.249 -0.1289 -0.0704  0.0686
  120loPI   C4A 1914  14.662   7.174   8.836 -0.4461 -0.2109 -0.0490
  120loPI   C5A 1915  14.793   7.418   8.334 -0.3436 -0.0927  0.0448
  120loPI   C6A 1916  15.150   7.655   8.257 -0.0706  0.2730 -0.3004
  120loPI   C1B 1917  14.780   7.591  10.056 -0.1601 -0.1455  0.1931
  120loPI   C2B 1918  14.616   7.382   9.829  0.0178  0.0931  0.0079
  120loPI   C3B 1919  14.529   7.282   9.426  0.4118 -0.1001 -0.3881
  120loPI   C4B 1920  14.323   7.538   9.156 -0.4279  0.2010 -0.0060
  121loPI    C1 1921  14.744   1.157  10.532  0.2650 -0.1431 -0.2169
  121loPI    C2 1922  14.438   0.972  10.353  0.1499  0.0316 -0.2024
  121loPI    C3 1923  14.626   0.796  10.658 -0.2514  0.1271  0.1096
  121loPI   PO4 1924  14.773   1.373  10.309  0.1118 -0.0723  0.1247
  121loPI   GL1 1925  14.812   1.336   9.914  0.1245  0.2385  0.0313
  121loPI   GL2 1926  14.854   1.505   9.522 -0.0057 -0.1848  0.2550
  121loPI   C1A 1927  14.801   1.002   9.462  0.0332  0.1646 -0.3058
  121loPI   C2A 1928  14.887   1.057   9.020 -0.3865 -0.2470  0.0290
  121loPI   C3A 1929  14.691   1.076   8.645 -0.1609  0.2034  0.1537
  121loPI   C4A 1930  14.792   1.016   8.201  0.3053 -0.0994  0.0054
  121loPI   C5A 1931  14.906   1.077   7.872  0.1748  0.1019  0.0552
  121loPI   C6A 1932  14.919   1.143   7.466 -0.0325  0.2051 -0.0656
  121loPI   C1B 1933  14.980   1.565   9.105 -0.1159  0.0969  0.4136
  121loPI   C2B 1934  14.981   1.616   8.669  0.0287 -0.2564 -0.2232
  121loPI   C3B 1935  14.814   1.549   8.328  0.0042  0.3055  0.1301
  121loPI   C4B 1936  14.760   1.591   7.874 -0.2893 -0.2887  0.1990
  122loPI    C1 1937   4.097  14.936   9.725 -0.1831  0.0269  0.0696
  122loPI    C2 1938   4.009  14.616   9.949 -0.0341  0.0518  0.1659
  122loPI    C3 1939   4.389  14.735   9.911 -0.0841  0.1922  0.0954
  122loPI   PO4 1940   3.895  14.913   9.585  0.3936  0.0385 -0.0744
  122loPI   GL1 1941   3.737  14.886   9.137 -0.3141  0.1079  0.0731
  122loPI   GL2 1942   3.583  15.065   8.960  0.4993  0.1910 -0.1489
  122loPI   C1A 1943   4.081  14.808   8.793  0.1363 -0.0285  0.0461
  122loPI   C2A 1944   4.394  14.725   8.506  0.2142 -0.2314  0.4118
  122loPI   C3A 1945   4.377  14.632   8.085  0.1255 -0.2138  0.4547
  122loPI   C4A 1946   4.543  14.664   7.693 -0.0312 -0.0826 -0.0315
  122loPI   C5A 1947   4.659  14.684   7.290  0.0492  0.0709 -0.0030
  122loPI   C6A 1948   5.043  14.630   7.116  0.2653  0.4550  0.0530
  122loPI   C1B 1949   3.537  14.779   8.672  0.0834  0.0965  0.4258
  122loPI   C2B 1950   3.316  14.806   8.309  0.0916 -0.3540  0.1009
  122loPI   C3B 1951   3.306  14.807   7.931 -0.1509 -0.3741 -0.0989
  122loPI   C4B 1952   3.572  14.620   7.637  0.3099  0.0017 -0.0068
  123loPI    C1 1953   7.795  10.036  10.566 -0.1982 -0.1068  0.2033
  123loPI    C2 1954   8.177  10.133  10.638 -0.1617 -0.1879  0.1222
  123loPI    C3 1955   7.899  10.189  10.921 -0.1109 -0.0167  0.1394
  123loPI   PO4 1956   7.849  10.029  10.288  0.0145  0.1382  0.0557
  123loPI   GL1 1957   7.689   9.805   9.875 -0.0682 -0.1288  0.1305
  123loPI   GL2 1958   7.500   9.984   9.577  0.0407 -0.1561 -0.2138
  123loPI   C1A 1959   7.976   9.908   9.527 -0.3286  0.0793 -0.2543
  123loPI   C2A 1960   8.085   9.925   9.126 -0.0280 -0.2606 -0.1084
  123loPI   C3A 1961   8.168   9.894   8.801 -0.0058  0.0301  0.4081
  123loPI   C4A 1962   8.289   9.767   8.359  0.0691 -0.0381  0.0629
  123loPI   C5A 1963   8.393   9.823   7.892  0.2273  0.0621 -0.0591
  123loPI   C6A 1964   8.474   9.781   7.467 -0.1945 -0.0293 -0.1111
  123loPI   C1B 1965   7.610  10.117   9.199  0.1075 -0.0164  0.2529
  123loPI   C2B 1966   7.755  10.229   8.757  0.0016  0.0546 -0.1213
  123loPI   C3B 1967   7.876  10.228   8.434  0.1549  0.2202 -0.1943
  123loPI   C4B 1968   7.713  10.294   8.019 -0.1453  0.1311 -0.0623
  124loPI    C1 1969  13.458   7.923  11.029  0.0113  0.1671 -0.0212
  124loPI    C2 1970  13.681   8.071  11.326 -0.1399 -0.2043  0.2851
  124loPI    C3 1971  13.284   8.047  11.367 -0.2416  0.3700 -0.2218
  124loPI   PO4 1972  13.499   8.017  10.768  0.0320  0.0919  0.1433
  124loPI   GL1 1973  13.331   8.123  10.343  0.1705 -0.1205 -0.0082
  124loPI   GL2 1974  13.632   8.284  10.321 -0.1690  0.0832  0.0693
  124loPI   C1A 1975  13.268   7.878  10.014  0.0497 -0.2367  0.0639
  124loPI   C2A 1976  13.408   7.923   9.618  0.0858  0.0967  0.0492
  124loPI   C3A 1977  13.388   7.859   9.206 -0.0523 -0.0622 -0.0089
  124loPI   C4A 1978  13.496   7.915   8.802  0.3365 -0.1363  0.2663
  124loPI   C5A 1979  13.561   7.817   8.396  0.0253 -0.0714 -0.1927
  124loPI   C6A 1980  13.580   7.914   7.953 -0.1065 -0.2194 -0.1440
  124loPI   C1B 1981  13.850   8.069  10.067  0.2741 -0.2353  0.0725
  124loPI   C2B 1982  13.923   7.753   9.683  0.0400  0.5339  0.0316
  124loPI   C3B 1983  13.881   7.703   9.227 -0.3162  0.0489  0.0781
  124loPI   C4B 1984  13.890   7.616   8.756  0.2942  0.1467 -0.2998
  125loPI    C1 1985  11.183  10.003  10.377  0.0998 -0.0027 -0.0198
  125loPI    C2 1986  11.190   9.821  10.734 -0.1762 -0.1392 -0.0813
  125loPI    C3 1987  11.524   9.985  10.586 -0.0492 -0.1211  0.2182
  125loPI   PO4 1988  10.968   9.902  10.285  0.0652 -0.0677 -0.0459
  125loPI   GL1 1989  10.845  10.211   9.888  0.1365  0.0307  0.0950
  125loPI   GL2 1990  10.687   9.885   9.869  0.2644  0.2215  0.2482
  125loPI   C1A 1991  11.081  10.129   9.529  0.3816 -0.1290 -0.0674
  125loPI   C2A 1992  10.971  10.082   9.113  0.1260 -0.2543 -0.2354
  125loPI   C3A 1993  10.828  10.152   8.740 -0.2480 -0.2179  0.1564
  125loPI   C4A 1994  10.614   9.951   8.432  0.3728  0.0143 -0.1562
  125loPI   C5A 1995  10.611   9.521   8.202 -0.0765  0.1658 -0.0509
  125loPI   C6A 1996  10.510   9.109   8.249 -0.0805  0.0612 -0.2606
  125loPI   C1B 1997  10.518  10.121   9.467 -0.0018 -0.0208  0.1032
  125loPI   C2B 1998  10.495  10.393   9.062 -0.0034 -0.2561  0.0092
  125loPI   C3B 1999  10.618  10.564   8.661  0.1180  0.1470  0.0040
  125loPI   C4B 2000  10.593  10.715   8.269 -0.1967  0.0069  0.2002
  126loPI    C1 2001   4.780  11.249  10.419 -0.1006  0.2009  0.1664
  126loPI    C2 2002   5.065  11.342  10.684 -0.0710 -0.1029  0.2445
  126loPI    C3 2003   4.868  10.996  10.716 -0.2626 -0.0156  0.0321
  126loPI   PO4 2004   4.829  11.325  10.195  0.3559  0.1236 -0.1314
  126loPI   GL1 2005   4.944  11.559   9.825  0.3794 -0.2748  0.1110
  126loPI   GL2 2006   5.041  11.933   9.574 -0.0556  0.0993 -0.4329
  126loPI   C1A 2007   5.064  11.353   9.440  0.0990  0.0794  0.1725
  126loPI   C2A 2008   4.975  11.246   9.077  0.2160  0.2695 -0.1605
  126loPI   C3A 2009   4.659  11.389   8.791 -0.0474 -0.1390 -0.0030
  126loPI   C4A 2010   4.575  11.543   8.408  0.1053 -0.2399  0.0529
  126loPI   C5A 2011   4.759  11.592   7.948  0.0619  0.1795 -0.1958
  126loPI   C6A 2012   4.508  11.623   7.603  0.2863  0.2379 -0.0062
  126loPI   C1B 2013   5.096  11.832   9.159  0.1680 -0.1127 -0.1706
  126loPI   C2B 2014   4.995  11.792   8.719 -0.0007  0.1762 -0.0278
  126loPI   C3B 2015   4.902  11.936   8.277 -0.1655 -0.2715 -0.1618
  126loPI   C4B 2016   4.933  11.997   7.789  0.1613  0.0991  0.0860
  127loPI    C1 2017   3.599   2.787  10.401  0.1033 -0.0501  0.0011
  127loPI    C2 2018   3.881   3.067  10.449  0.2379 -0.1975  0.0802
  127loPI    C3 2019   3.714   2.895  10.769  0.0344 -0.0882  0.0339
  127loPI   PO4 2020   3.644   2.682  10.086  0.2111 -0.1484  0.2252
  127loPI   GL1 2021   3.616   2.541   9.559  0.1593 -0.0830  0.3186
  127loPI   GL2 2022   3.688   2.832   9.511 -0.1653  0.0972 -0.1108
  127loPI   C1A 2023   3.327   2.496   9.192 -0.0946 -0.0650  0.2357
  127loPI   C2A 2024   3.211   2.347   8.698  0.0182 -0.1393  0.0585
  127loPI   C3A 2025   3.233   2.180   8.337 -0.0852 -0.0028 -0.0670
  127loPI   C4A 2026   3.219   1.917   7.902 -0.1273  0.3367 -0.1615
  127loPI   C5A 2027   3.447   1.527   7.851 -0.0025 -0.1045  0.0567
  127loPI   C6A 2028   3.777   1.277   7.509  0.2709  0.2313 -0.0425
  127loPI   C1B 2029   3.738   2.767   9.041  0.0183 -0.0175 -0.1327
  127loPI   C2B 2030   3.958   2.762   8.713 -0.0180  0.0099 -0.1742
  127loPI   C3B 2031   4.080   2.900   8.368 -0.2141 -0.0030 -0.0999
  127loPI   C4B 2032   4.088   3.116   7.853  0.0663 -0.2257 -0.2004
  128loPI    C1 2033   4.323   9.857   9.904  0.3076  0.1687 -0.1125
  128loPI    C2 2034   4.713   9.795   9.838  0.2728 -0.1632 -0.0239
  128loPI    C3 2035   4.545   9.667  10.178  0.1010  0.0459 -0.0281
  128loPI   PO4 2036   4.235   9.788   9.680  0.2767 -0.1058  0.0633
  128loPI   GL1 2037   4.637   9.615   9.398  0.1181  0.1874 -0.1118
  128loPI   GL2 2038   4.358   9.508   9.293 -0.0085 -0.0861  0.1205
  128loPI   C1A 2039   4.942   9.683   9.071  0.2480  0.1082 -0.4631
  128loPI   C2A 2040   5.085   9.522   8.662 -0.2294 -0.1519 -0.0722
  128loPI   C3A 2041   4.863   9.317   8.344  0.2603 -0.0913 -0.0437
  128loPI   C4A 2042   5.139   9.255   8.049  0.1230  0.0618 -0.1945
  128loPI   C5A 2043   5.210   9.424   7.570  0.1622 -0.1631  0.0236
  128loPI   C6A 2044   5.033   9.586   7.199  0.3013  0.1380  0.1593
  128loPI   C1B 2045   4.533   9.446   8.917  0.3540  0.0547 -0.2722
  128loPI   C2B 2046   4.384   9.127   8.505  0.0256 -0.0716  0.2409
  128loPI   C3B 2047   4.569   8.900   8.076 -0.1781 -0.1193 -0.2554
  128loPI   C4B 2048   4.523   8.701   7.638  0.3809  0.1419 -0.0738
  129loPI    C1 2049   7.200   8.805  10.297 -0.0547  0.0715 -0.2618
  129loPI    C2 2050   7.204   8.450  10.482 -0.2218  0.2505  0.0945
  129loPI    C3 2051   7.394   8.763  10.644 -0.1734  0.3546 -0.1587
  129loPI   PO4 2052   7.230   8.660  10.013  0.4731  0.0485  0.3044
  129loPI   GL1 2053   7.292   8.768   9.661  0.2381  0.0855  0.2563
  129loPI   GL2 2054   7.101   8.976   9.461  0.0991  0.0894 -0.0504
  129loPI   C1A 2055   7.589   8.965   9.311 -0.1261  0.0476 -0.1351
  129loPI   C2A 2056   7.626   9.046   8.967 -0.2995 -0.0555 -0.0551
  129loPI   C3A 2057   7.487   8.879   8.606  0.0722 -0.2923 -0.2500
  129loPI   C4A 2058   7.452   8.864   8.121  0.3499  0.0939 -0.1002
  129loPI   C5A 2059   7.118   8.988   7.904 -0.1638 -0.2231 -0.2880
  129loPI   C6A 2060   6.917   9.233   7.569 -0.4269  0.0611 -0.3778
  129loPI   C1B 2061   7.134   8.808   9.142 -0.1590  0.1220 -0.0798
  129loPI   C2B 2062   7.019   8.863   8.809 -0.1005 -0.2792 -0.0711
  129loPI   C3B 2063   6.951   9.241   8.533 -0.1123  0.0242 -0.2164
  129loPI   C4B 2064   6.857   9.428   8.097  0.0778  0.0867  0.0164
  130loPI    C1 2065  11.529   0.327  10.252  0.0353 -0.3001 -0.0978
  130loPI    C2 2066  11.472  -0.006  10.466 -0.1504 -0.1130  0.1493
  130loPI    C3 2067  11.187   0.274  10.452  0.0371  0.0743  0.0109
  130loPI   PO4 2068  11.528   0.374  10.012  0.0479 -0.2154 -0.1177
  130loPI   GL1 2069  11.386   0.494   9.666 -0.2926  0.1952 -0.0815
  130loPI   GL2 2070  11.230   0.751   9.698 -0.1767 -0.1775  0.2598
  130loPI   C1A 2071  11.386   0.324   9.347 -0.1523  0.1441  0.1430
  130loPI   C2A 2072  11.239   0.318   8.893 -0.1087 -0.2768  0.1329
  130loPI   C3A 2073  11.136   0.302   8.435 -0.1843 -0.2818  0.2314
  130loPI   C4A 2074  11.080   0.318   8.004 -0.1316  0.1453  0.1593
  130loPI   C5A 2075  11.004   0.590   7.700  0.1176  0.0482  0.0552
  130loPI   C6A 2076  11.242   0.998   7.671  0.1675 -0.0274  0.1889
  130loPI   C1B 2077  11.050   0.655   9.325 -0.1482  0.3070  0.1971
  130loPI   C2B 2078  10.868   0.709   8.897 -0.0268  0.3111  0.4921
  130loPI   C3B 2079  10.838   0.712   8.365  0.0898 -0.1533  0.1625
  130loPI   C4B 2080  10.802   0.882   7.984  0.1629  0.2768  0.1370
  131loPI    C1 2081  18.363   3.517  10.471 -0.0942  0.0415 -0.2748
  131loPI    C2 2082  18.223   3.248  10.733  0.1604  0.0218 -0.1559
  131loPI    C3 2083  18.192   3.639  10.811  0.3653  0.0135 -0.0254
  131loPI   PO4 2084  18.396   3.436  10.236  0.1177 -0.0273  0.3670
  131loPI   GL1 2085  18.782   3.261   9.952  0.0479  0.2110  0.5347
  131loPI   GL2 2086  18.916   2.959   9.917 -0.1306  0.0694 -0.0758
  131loPI   C1A 2087  18.706   3.403   9.551  0.2314 -0.2515 -0.1732
  131loPI   C2A 2088  18.738   3.374   9.133  0.2022 -0.2264 -0.1136
  131loPI   C3A 2089  18.744   3.360   8.682 -0.2140  0.2199 -0.0063
  131loPI   C4A 2090  18.842   3.571   8.267 -0.0340 -0.1180  0.0419
  131loPI   C5A 2091  18.920   3.416   7.856 -0.1090 -0.1736  0.0259
  131loPI   C6A 2092  18.996   3.112   7.464 -0.1886 -0.1385 -0.1273
  131loPI   C1B 2093  19.197   3.230   9.600  0.1996 -0.2038 -0.1667
  131loPI   C2B 2094  19.344   3.130   9.217  0.1148  0.0369  0.0577
  131loPI   C3B 2095  19.590   3.042   8.860 -0.0581  0.0474 -0.0035
  131loPI   C4B 2096  19.985   2.873   8.615 -0.4865  0.1456  0.0370
  132loPI    C1 2097  17.007   6.253  10.456  0.0558  0.1528  0.0779
  132loPI    C2 2098  17.202   6.397  10.774  0.0856 -0.0428  0.1492
  132loPI    C3 2099  17.187   6.002  10.711 -0.0288 -0.0116 -0.0228
  132loPI   PO4 2100  17.219   6.442  10.266 -0.0499 -0.1816  0.2124
  132loPI   GL1 2101  17.080   6.448   9.888 -0.2527  0.0181  0.0070
  132loPI   GL2 2102  17.182   6.184   9.691  0.1248  0.2363  0.1556
  132loPI   C1A 2103  17.206   6.652   9.511 -0.0526 -0.4134  0.0889
  132loPI   C2A 2104  17.185   6.491   9.023 -0.1232 -0.1661  0.1604
  132loPI   C3A 2105  17.119   6.296   8.624  0.0156  0.3620 -0.0971
  132loPI   C4A 2106  16.826   6.219   8.361  0.0819  0.0879  0.0158
  132loPI   C5A 2107  16.979   6.007   7.946 -0.1382  0.2106  0.0625
  132loPI   C6A 2108  17.301   5.662   7.881  0.0825 -0.1511 -0.0474
  132loPI   C1B 2109  16.984   6.088   9.333  0.2181  0.1373 -0.1178
  132loPI   C2B 2110  16.700   6.031   8.858  0.1125 -0.2463 -0.1111
  132loPI   C3B 2111  16.348   5.797   8.559 -0.3271 -0.0151  0.1173
  132loPI   C4B 2112  16.263   5.469   8.311 -0.0060  0.1116 -0.3084
  133loPI    C1 2113   7.238   4.464  10.034 -0.0319 -0.0476  0.0228
  133loPI    C2 2114   7.316   4.854   9.993  0.0898 -0.1014 -0.2816
  133loPI    C3 2115   7.483   4.648  10.292  0.0406  0.0740 -0.1311
  133loPI   PO4 2116   7.243   4.356   9.777  0.1396 -0.2328 -0.1374
  133loPI   GL1 2117   7.433   4.454   9.416  0.0158 -0.1903  0.2030
  133loPI   GL2 2118   7.150   4.430   9.287 -0.1329  0.1841  0.0535
  133loPI   C1A 2119   7.605   4.346   8.938  0.1247  0.1722  0.0896
  133loPI   C2A 2120   7.643   4.549   8.386  0.0223 -0.0590 -0.1261
  133loPI   C3A 2121   7.595   4.555   7.942 -0.0967 -0.2384 -0.0726
  133loPI   C4A 2122   7.259   4.719   7.700 -0.0714  0.1405 -0.1914
  133loPI   C5A 2123   7.011   5.076   7.454  0.0942  0.4806  0.2441
  133loPI   C6A 2124   6.825   5.462   7.555  0.2253  0.2677  0.1412
  133loPI   C1B 2125   7.212   4.532   8.863 -0.1356 -0.1353 -0.5080
  133loPI   C2B 2126   7.093   4.663   8.521  0.0016 -0.3776  0.0618
  133loPI   C3B 2127   7.136   4.454   8.124  0.1304 -0.1663 -0.0320
  133loPI   C4B 2128   6.949   4.355   7.734  0.1573 -0.0420 -0.0845
  134loPI    C1 2129   9.462   6.380  10.072  0.0877 -0.0110  0.0068
  134loPI    C2 2130   9.436   6.050  10.297 -0.2224 -0.0434 -0.0720
  134loPI    C3 2131   9.311   6.402  10.442 -0.1876 -0.0181 -0.1030
  134loPI   PO4 2132   9.420   6.209   9.829 -0.0799 -0.2258  0.1047
  134loPI   GL1 2133   9.184   6.029   9.587 -0.2776  0.5117  0.2128
  134loPI   GL2 2134   8.870   6.063   9.554 -0.0522 -0.1873  0.1096
  134loPI   C1A 2135   9.339   6.288   9.234  0.1877 -0.0553  0.2468
  134loPI   C2A 2136   9.316   6.226   8.738  0.3282  0.1161 -0.2231
  134loPI   C3A 2137   9.001   6.009   8.581 -0.2425 -0.1714 -0.0121
  134loPI   C4A 2138   8.589   6.095   8.389  0.1767  0.1110 -0.4130
  134loPI   C5A 2139   8.187   6.299   8.158 -0.1724 -0.0154  0.0678
  134loPI   C6A 2140   8.119   6.361   7.668 -0.3037  0.0913  0.0533
  134loPI   C1B 2141   8.895   5.882   9.141  0.0711  0.1315 -0.0885
  134loPI   C2B 2142   9.211   5.630   8.810  0.2504  0.0606  0.0527
  134loPI   C3B 2143   9.302   5.692   8.396  0.2212 -0.2402  0.0580
  134loPI   C4B 2144   9.377   5.873   7.905  0.1970  0.2011  0.1864
  135loPI    C1 2145   6.290  11.953  10.063  0.2221 -0.2380 -0.2737
  135loPI    C2 2146   6.425  11.578  10.091  0.0665 -0.2718  0.0722
  135loPI    C3 2147   6.551  11.856  10.350  0.0011 -0.1403 -0.0356
  135loPI   PO4 2148   6.263  11.990   9.858 -0.2628  0.2389  0.1494
  135loPI   GL1 2149   6.308  12.008   9.404  0.1704  0.0407 -0.1448
  135loPI   GL2 2150   6.489  11.678   9.523  0.1338 -0.0509  0.3441
  135loPI   C1A 2151   6.320  12.217   8.925  0.1998 -0.2049 -0.0225
  135loPI   C2A 2152   6.252  12.308   8.485  0.1965 -0.0339 -0.0577
  135loPI   C3A 2153   6.191  12.485   8.138 -0.0071  0.0569 -0.1031
  135loPI   C4A 2154   5.958  12.473   7.702  0.0645 -0.0284 -0.1123
  135loPI   C5A 2155   5.507  12.676   7.568 -0.1654 -0.1035  0.0100
  135loPI   C6A 2156   5.302  12.974   7.384 -0.1840  0.0684  0.0165
  135loPI   C1B 2157   6.541  11.631   9.035 -0.0353 -0.2420  0.3209
  135loPI   C2B 2158   6.541  11.543   8.688  0.0132  0.1285 -0.0207
  135loPI   C3B 2159   6.664  11.236   8.443 -0.2474 -0.1551  0.1192
  135loPI   C4B 2160   6.719  11.051   7.987 -0.0993 -0.3012  0.3033
  136loPI    C1 2161   6.053   8.014  10.343 -0.0204 -0.1314 -0.0485
  136loPI    C2 2162   5.812   7.962  10.658 -0.0826  0.1451 -0.0479
  136loPI    C3 2163   6.148   8.175  10.696  0.0823 -0.1040 -0.0884
  136loPI   PO4 2164   5.902   8.111  10.098 -0.1033 -0.2777 -0.1368
  136loPI   GL1 2165   6.245   8.352   9.793  0.1025  0.0641  0.3506
  136loPI   GL2 2166   5.969   8.561   9.548  0.0351  0.2735  0.0845
  136loPI   C1A 2167   6.373   8.227   9.332 -0.0329  0.1227  0.1023
  136loPI   C2A 2168   6.413   8.210   8.918 -0.1833  0.1054  0.0218
  136loPI   C3A 2169   6.651   7.997   8.492  0.3085 -0.2883 -0.2518
  136loPI   C4A 2170   6.591   7.947   8.063 -0.3072  0.1596 -0.0737
  136loPI   C5A 2171   6.498   8.085   7.670 -0.0442 -0.1190 -0.3740
  136loPI   C6A 2172   6.269   8.439   7.380 -0.0255 -0.0310  0.3994
  136loPI   C1B 2173   5.762   8.278   9.154  0.0512  0.1343 -0.1280
  136loPI   C2B 2174   6.005   7.972   8.934 -0.0199  0.0051  0.2556
  136loPI   C3B 2175   6.206   7.853   8.574  0.0870 -0.2054 -0.2283
  136loPI   C4B 2176   6.215   7.714   8.119  0.1669  0.2991  0.1146
  137loPI    C1 2177   1.911   9.467   9.739 -0.0421 -0.3141 -0.0211
  137loPI    C2 2178   1.933   9.723  10.045 -0.0354 -0.0614 -0.2296
  137loPI    C3 2179   1.669   9.422  10.054  0.0359 -0.1182  0.0677
  137loPI   PO4 2180   1.901   9.570   9.567 -0.1961 -0.0367  0.2829
  137loPI   GL1 2181   1.601   9.564   9.247 -0.0471 -0.0297  0.3094
  137loPI   GL2 2182   1.252   9.606   9.287  0.0634  0.3018 -0.2790
  137loPI   C1A 2183   1.451   9.802   8.891 -0.1713  0.1848  0.0958
  137loPI   C2A 2184   1.455   9.705   8.431  0.0009 -0.0787  0.0574
  137loPI   C3A 2185   1.574   9.801   8.007 -0.1325  0.0021 -0.0276
  137loPI   C4A 2186   1.571   9.933   7.557  0.1529 -0.0664 -0.2943
  137loPI   C5A 2187   1.255  10.170   7.484 -0.3496  0.0374 -0.3162
  137loPI   C6A 2188   1.107  10.589   7.606 -0.1182 -0.2036  0.2684
  137loPI   C1B 2189   0.961   9.479   9.012  0.1805 -0.0460 -0.1409
  137loPI   C2B 2190   0.743   9.429   8.625 -0.0174  0.0448  0.0399
  137loPI   C3B 2191   0.684   9.589   8.272 -0.0640 -0.0159 -0.2000
  137loPI   C4B 2192   0.646   9.764   7.958  0.1750  0.0619 -0.1093
  138loPI    C1 2193   1.185   1.565  10.371 -0.1302  0.3490 -0.1325
  138loPI    C2 2194   1.533   1.724  10.489 -0.0251  0.2098 -0.2519
  138loPI    C3 2195   1.212   1.749  10.726  0.0106  0.5258 -0.2331
  138loPI   PO4 2196   1.113   1.634  10.177 -0.4970 -0.1161 -0.0544
  138loPI   GL1 2197   1.142   1.663   9.712  0.1358  0.0093  0.0864
  138loPI   GL2 2198   1.341   1.828   9.548 -0.0913  0.2492 -0.0025
  138loPI   C1A 2199   0.910   1.687   9.247 -0.1842 -0.0988 -0.1163
  138loPI   C2A 2200   0.716   1.541   8.847 -0.3132  0.2171 -0.0322
  138loPI   C3A 2201   0.468   1.273   8.679  0.0380  0.1095 -0.0937
  138loPI   C4A 2202   0.121   1.203   8.464  0.0680  0.2812  0.0393
  138loPI   C5A 2203   0.079   1.362   8.027  0.2613  0.2459  0.0831
  138loPI   C6A 2204   0.188   1.604   7.680 -0.2030  0.1726  0.2643
  138loPI   C1B 2205   1.367   1.685   9.128  0.4238  0.0465 -0.0172
  138loPI   C2B 2206   1.366   1.647   8.712  0.1244 -0.0886  0.0607
  138loPI   C3B 2207   1.441   1.824   8.250  0.0733 -0.2284  0.2543
  138loPI   C4B 2208   1.470   2.004   7.832  0.0037 -0.0016  0.2457
  139loPI    C1 2209  13.014  15.145  10.555  0.3760  0.0135  0.0496
  139loPI    C2 2210  12.991  15.129  10.954 -0.2150 -0.2907  0.0140
  139loPI    C3 2211  12.674  15.246  10.740  0.2476  0.3493 -0.3550
  139loPI   PO4 2212  13.073  14.933  10.495 -0.4848  0.0582 -0.1892
  139loPI   GL1 2213  12.961  14.653  10.058 -0.1337 -0.0002 -0.1283
  139loPI   GL2 2214  12.909  14.950  10.009  0.1019  0.0773  0.1423
  139loPI   C1A 2215  13.158  14.425   9.660  0.1636  0.2523 -0.2584
  139loPI   C2A 2216  13.552  14.527   9.358  0.1373  0.0767 -0.0741
  139loPI   C3A 2217  13.847  14.656   9.047  0.1479 -0.2216 -0.3964
  139loPI   C4A 2218  13.817  14.656   8.629 -0.0579 -0.2282 -0.2361
  139loPI   C5A 2219  13.681  14.577   8.116 -0.0369  0.2144 -0.2079
  139loPI   C6A 2220  13.569  14.985   7.876  0.0396  0.1396  0.0254
  139loPI   C1B 2221  12.937  15.137   9.625 -0.1579  0.2829  0.0090
  139loPI   C2B 2222  12.932  15.282   9.231 -0.0782  0.0131  0.3962
  139loPI   C3B 2223  12.980  15.044   8.911 -0.1097  0.1858  0.3068
  139loPI   C4B 2224  13.115  14.938   8.601  0.1293  0.1656 -0.1487
  140loPI    C1 2225   5.043  13.503  10.075 -0.1153  0.0104  0.3391
  140loPI    C2 2226   5.013  13.138  10.236 -0.1939 -0.0899  0.1027
  140loPI    C3 2227   5.313  13.380  10.343 -0.0083 -0.3107  0.0906
  140loPI   PO4 2228   5.141  13.471   9.840 -0.0232  0.3787 -0.1118
  140loPI   GL1 2229   5.092  13.687   9.396 -0.2821 -0.2052 -0.1891
  140loPI   GL2 2230   4.843  13.541   9.406  0.1926 -0.2149 -0.0694
  140loPI   C1A 2231   5.218  13.615   9.076  0.0335  0.2259  0.0257
  140loPI   C2A 2232   5.269  13.600   8.714  0.0653 -0.4199 -0.3720
  140loPI   C3A 2233   5.438  13.582   8.296 -0.0334  0.1707 -0.0136
  140loPI   C4A 2234   5.468  13.696   7.859 -0.2437  0.1956  0.0805
  140loPI   C5A 2235   5.728  13.528   7.540  0.0363  0.1483 -0.0721
  140loPI   C6A 2236   6.109  13.670   7.251 -0.1372  0.0985 -0.0537
  140loPI   C1B 2237   4.702  13.632   9.000  0.0693 -0.0783  0.1680
  140loPI   C2B 2238   4.620  13.782   8.645 -0.0733 -0.2152 -0.2828
  140loPI   C3B 2239   4.530  13.961   8.211  0.2235 -0.3126 -0.2445
  140loPI   C4B 2240   4.462  14.183   7.781 -0.0699  0.1151 -0.2793
  141loPI    C1 2241  15.001  15.328  10.854  0.1585  0.0443 -0.2175
  141loPI    C2 2242  14.608  15.265  10.814  0.1990 -0.0919 -0.4158
  141loPI    C3 2243  14.740  15.559  11.051 -0.0215 -0.0516 -0.3404
  141loPI   PO4 2244  15.028  15.245  10.546 -0.2674 -0.1255 -0.0829
  141loPI   GL1 2245  14.869  15.287  10.076 -0.0315  0.3001 -0.3576
  141loPI   GL2 2246  15.155  15.517  10.072  0.0076 -0.0033  0.2234
  141loPI   C1A 2247  14.700  15.318   9.710 -0.3220  0.5584  0.1634
  141loPI   C2A 2248  14.751  15.428   9.362 -0.1239  0.0320  0.2242
  141loPI   C3A 2249  14.698  15.277   8.923 -0.0358  0.0527  0.0624
  141loPI   C4A 2250  14.616  15.132   8.469 -0.0123 -0.2225  0.0130
  141loPI   C5A 2251  14.655  14.934   8.045  0.1089 -0.2319  0.0877
  141loPI   C6A 2252  15.139  14.738   7.998 -0.1936 -0.2454 -0.2959
  141loPI   C1B 2253  15.142  15.660   9.689  0.0039  0.0484  0.2397
  141loPI   C2B 2254  15.219  15.751   9.191 -0.3668 -0.1187  0.1732
  141loPI   C3B 2255  15.228  15.815   8.813  0.0374 -0.2142  0.0327
  141loPI   C4B 2256  15.170  16.160   8.471  0.1000  0.0245 -0.2095
  142loPI    C1 2257   5.351   6.228  10.128  0.0595 -0.0602  0.2516
  142loPI    C2 2258   5.134   5.893  10.155  0.1718 -0.1556 -0.0007
  142loPI    C3 2259   5.021   6.221  10.354 -0.1991 -0.2058 -0.1208
  142loPI   PO4 2260   5.456   6.229   9.863 -0.0870 -0.2059  0.1001
  142loPI   GL1 2261   5.679   6.244   9.500  0.3194 -0.2132 -0.0478
  142loPI   GL2 2262   5.729   6.603   9.552 -0.1742  0.2705 -0.1107
  142loPI   C1A 2263   5.450   6.118   9.228 -0.2126 -0.1284  0.0474
  142loPI   C2A 2264   5.389   6.163   8.813 -0.0641 -0.0223  0.2836
  142loPI   C3A 2265   5.522   6.513   8.575 -0.1066 -0.1325  0.2539
  142loPI   C4A 2266   5.721   6.568   8.203  0.2119  0.3594 -0.0727
  142loPI   C5A 2267   5.922   6.520   7.884  0.2963 -0.2201  0.1559
  142loPI   C6A 2268   5.895   6.652   7.486 -0.2147 -0.2556 -0.1614
  142loPI   C1B 2269   5.501   6.878   9.252 -0.0956  0.1612 -0.1523
  142loPI   C2B 2270   5.461   6.961   8.823  0.0062 -0.2548 -0.1331
  142loPI   C3B 2271   5.378   6.934   8.356  0.1254  0.2690 -0.1274
  142loPI   C4B 2272   5.549   6.893   7.876  0.1590  0.0158 -0.0271
  143loPI    C1 2273   7.429   0.839  10.157  0.0831  0.1029 -0.0018
  143loPI    C2 2274   7.625   0.658  10.455  0.1444  0.0448 -0.0768
  143loPI    C3 2275   7.242   0.567  10.383  0.1600 -0.0174 -0.0819
  143loPI   PO4 2276   7.463   0.748   9.915  0.1395  0.1825  0.3192
  143loPI   GL1 2277   7.230   0.733   9.460 -0.1146  0.0626 -0.0451
  143loPI   GL2 2278   7.442   0.438   9.394  0.0245 -0.1515 -0.0446
  143loPI   C1A 2279   7.003   0.866   9.088 -0.2313  0.2129 -0.3004
  143loPI   C2A 2280   7.028   1.027   8.644  0.0951 -0.1026 -0.1458
  143loPI   C3A 2281   6.898   1.215   8.249  0.1375 -0.1373 -0.0942
  143loPI   C4A 2282   6.822   1.280   7.744  0.0686 -0.3079  0.0332
  143loPI   C5A 2283   6.796   1.345   7.279  0.1365 -0.0226 -0.0281
  143loPI   C6A 2284   6.691   1.630   6.938  0.2474 -0.0104 -0.0005
  143loPI   C1B 2285   7.431   0.496   8.994 -0.0160  0.0493 -0.1005
  143loPI   C2B 2286   7.419   0.677   8.562 -0.1496 -0.2646  0.3311
  143loPI   C3B 2287   7.293   0.835   8.186  0.1844  0.1007 -0.2112
  143loPI   C4B 2288   7.128   0.952   7.905  0.1396  0.2599 -0.0140
  144loPI    C1 2289  16.279  16.197  10.191  0.0267  0.1197 -0.1227
  144loPI    C2 2290  16.634  16.094  10.342 -0.0653  0.1145  0.0939
  144loPI    C3 2291  16.376  16.304  10.564 -0.2301  0.0481 -0.0334
  144loPI   PO4 2292  16.238  15.956  10.053 -0.1527  0.1760  0.3041
  144loPI   GL1 2293  16.244  15.687   9.759 -0.0929 -0.1109 -0.0438
  144loPI   GL2 2294  16.023  15.452   9.764 -0.0469  0.2871 -0.2205
  144loPI   C1A 2295  16.558  15.950   9.483  0.0124 -0.1453 -0.1307
  144loPI   C2A 2296  16.509  16.040   9.052 -0.1149 -0.0072  0.2432
  144loPI   C3A 2297  16.458  16.086   8.659 -0.1333 -0.0602 -0.0731
  144loPI   C4A 2298  16.275  16.053   8.249 -0.3812  0.1746 -0.1416
  144loPI   C5A 2299  16.236  16.115   7.889  0.0088 -0.1737  0.2432
  144loPI   C6A 2300  16.009  16.251   7.503 -0.2997 -0.0009  0.2433
  144loPI   C1B 2301  16.017  15.341   9.322 -0.2334  0.0741  0.1206
  144loPI   C2B 2302  16.125  15.257   8.912  0.0851  0.2920 -0.0447
  144loPI   C3B 2303  16.254  15.174   8.565 -0.1972  0.2296  0.2108
  144loPI   C4B 2304  16.433  14.875   8.356  0.0898 -0.2815  0.2797
  145loPI    C1 2305   6.907  13.050  10.270  0.1232  0.2423 -0.2270
  145loPI    C2 2306   6.633  13.341  10.266 -0.1231  0.0249  0.1662
  145loPI    C3 2307   6.624  13.061  10.552  0.4699 -0.0296  0.1450
  145loPI   PO4 2308   6.911  12.997  10.021 -0.2806  0.0696  0.1079
  145loPI   GL1 2309   7.119  12.768   9.659  0.0013  0.1122  0.1299
  145loPI   GL2 2310   7.422  12.701   9.441  0.0865 -0.1451 -0.0900
  145loPI   C1A 2311   6.948  12.843   9.297  0.3146  0.0182 -0.1162
  145loPI   C2A 2312   6.712  13.044   8.896  0.1187 -0.2966  0.1356
  145loPI   C3A 2313   6.649  13.282   8.639 -0.3025  0.0239 -0.0352
  145loPI   C4A 2314   6.578  13.218   8.244  0.1784  0.0612  0.1939
  145loPI   C5A 2315   6.831  13.213   7.875 -0.1140  0.0143 -0.1329
  145loPI   C6A 2316   6.829  12.778   7.587 -0.0087 -0.0169 -0.1410
  145loPI   C1B 2317   7.391  12.777   8.995  0.1508 -0.0006  0.1397
  145loPI   C2B 2318   7.448  12.739   8.616  0.4994  0.1902 -0.1740
  145loPI   C3B 2319   7.718  12.852   8.335  0.1789  0.1775  0.3070
  145loPI   C4B 2320   8.012  12.695   8.065 -0.0781 -0.1311 -0.0526
  146loPI    C1 2321   8.821  13.371  10.216 -0.1624  0.1605  0.2589
  146loPI    C2 2322   8.742  13.008  10.366  0.1177  0.0533  0.1533
  146loPI    C3 2323   8.807  13.316  10.612 -0.1310  0.0355  0.2435
  146loPI   PO4 2324   9.028  13.401  10.021  0.2361 -0.2272  0.1316
  146loPI   GL1 2325   9.277  13.119   9.796 -0.1579 -0.1625  0.2857
  146loPI   GL2 2326   9.181  12.808   9.795  0.0972  0.0671 -0.0240
  146loPI   C1A 2327   9.337  13.132   9.393 -0.3326 -0.3158  0.0749
  146loPI   C2A 2328   9.326  13.065   8.914  0.3511 -0.0553  0.4204
  146loPI   C3A 2329   9.101  13.303   8.617  0.0548 -0.0441 -0.1754
  146loPI   C4A 2330   9.019  13.494   8.198  0.1081 -0.1361  0.0531
  146loPI   C5A 2331   8.820  13.301   7.788  0.0208 -0.3013 -0.0937
  146loPI   C6A 2332   8.684  13.170   7.438  0.2128  0.5591 -0.0093
  146loPI   C1B 2333   9.143  12.541   9.358 -0.0691  0.0449  0.0571
  146loPI   C2B 2334   8.947  12.699   8.909 -0.1946 -0.0203 -0.0843
  146loPI   C3B 2335   8.970  12.636   8.474 -0.2433 -0.2953  0.2302
  146loPI   C4B 2336   9.153  12.618   8.134 -0.1092 -0.2548  0.1100
  147loPI    C1 2337   5.724  13.052  10.298 -0.0433 -0.1969  0.2389
  147loPI    C2 2338   6.057  13.272  10.332 -0.1196 -0.0394 -0.0034
  147loPI    C3 2339   5.850  13.169  10.659  0.0059  0.1115  0.1251
  147loPI   PO4 2340   5.834  12.898  10.107 -0.2550 -0.2471  0.2647
  147loPI   GL1 2341   5.864  12.825   9.689 -0.2143 -0.3886  0.1611
  147loPI   GL2 2342   6.163  12.877   9.733 -0.0537  0.1533 -0.0305
  147loPI   C1A 2343   5.732  12.944   9.281  0.1520 -0.1632  0.1395
  147loPI   C2A 2344   5.779  12.961   8.838 -0.2398  0.0673  0.0657
  147loPI   C3A 2345   5.886  12.728   8.496  0.0895 -0.0913  0.1872
  147loPI   C4A 2346   5.706  12.484   8.324 -0.0218  0.1836 -0.1198
  147loPI   C5A 2347   5.811  12.130   8.163 -0.0049  0.0782 -0.0336
  147loPI   C6A 2348   5.749  11.905   7.766 -0.0387 -0.2043 -0.2861
  147loPI   C1B 2349   6.422  12.845   9.301  0.0803  0.0219 -0.1841
  147loPI   C2B 2350   6.262  12.722   8.895 -0.1108  0.1212  0.0017
  147loPI   C3B 2351   6.438  12.756   8.551 -0.0976  0.0422 -0.1319
  147loPI   C4B 2352   6.664  12.685   8.168 -0.2842  0.0001  0.3856
  148loPI    C1 2353   1.747   5.215   9.841 -0.2321  0.1337  0.1039
  148loPI    C2 2354   1.577   5.039  10.158  0.1410  0.0031  0.2372
  148loPI    C3 2355   1.836   5.339  10.211  0.1719  0.0104  0.0526
  148loPI   PO4 2356   1.769   5.024   9.660  0.0456  0.0774  0.3266
  148loPI   GL1 2357   1.646   4.799   9.301 -0.2082 -0.1972 -0.0657
  148loPI   GL2 2358   1.317   4.806   9.188  0.0062 -0.0630 -0.0594
  148loPI   C1A 2359   1.823   4.743   8.968 -0.5572 -0.0085 -0.1732
  148loPI   C2A 2360   1.927   4.739   8.603  0.2010  0.0343 -0.0571
  148loPI   C3A 2361   2.111   4.497   8.295 -0.0146 -0.2241 -0.0061
  148loPI   C4A 2362   2.446   4.314   8.075 -0.2824 -0.2162 -0.0363
  148loPI   C5A 2363   2.558   4.045   7.753 -0.1677 -0.2681  0.1621
  148loPI   C6A 2364   2.875   3.719   7.740  0.0383 -0.0231 -0.2681
  148loPI   C1B 2365   1.347   4.894   8.729  0.2056  0.0423 -0.0037
  148loPI   C2B 2366   1.318   4.903   8.276  0.0067  0.1814 -0.0294
  148loPI   C3B 2367   1.072   5.057   8.010 -0.1433 -0.0514 -0.0302
  148loPI   C4B 2368   0.611   4.953   7.855  0.1191 -0.0463  0.4879
  149loPI    C1 2369   7.425   5.674  10.346 -0.3825 -0.0660  0.0530
  149loPI    C2 2370   7.770   5.560  10.178 -0.2416  0.4034  0.0069
  149loPI    C3 2371   7.671   5.427  10.542 -0.0976  0.1302 -0.0505
  149loPI   PO4 2372   7.282   5.734  10.106  0.1445 -0.0839  0.0542
  149loPI   GL1 2373   7.168   5.711   9.733  0.2377 -0.1743 -0.2025
  149loPI   GL2 2374   7.326   5.558   9.444  0.0459 -0.1518  0.4450
  149loPI   C1A 2375   7.279   6.058   9.466 -0.0908  0.1300  0.0119
  149loPI   C2A 2376   7.314   6.393   9.198  0.4998 -0.1675 -0.0682
  149loPI   C3A 2377   6.917   6.534   8.950 -0.2421  0.0462  0.0969
  149loPI   C4A 2378   6.762   6.202   8.737 -0.1021 -0.0209 -0.3004
  149loPI   C5A 2379   6.991   6.119   8.332  0.0194  0.2527  0.1433
  149loPI   C6A 2380   7.316   6.283   8.120 -0.1147 -0.4482  0.1472
  149loPI   C1B 2381   7.483   5.394   8.987 -0.1707  0.3588 -0.1127
  149loPI   C2B 2382   7.485   5.048   8.619  0.2000 -0.0046 -0.2319
  149loPI   C3B 2383   7.422   4.952   8.188  0.0530 -0.0659 -0.0190
  149loPI   C4B 2384   7.519   5.085   7.721 -0.3586  0.1281  0.1599
  150loPI    C1 2385  16.912  14.543  10.549  0.0094 -0.1590  0.2545
  150loPI    C2 2386  16.646  14.729  10.782 -0.0431 -0.1620  0.1971
  150loPI    C3 2387  17.025  14.856  10.771 -0.1406  0.1187 -0.0518
  150loPI   PO4 2388  16.741  14.484  10.362 -0.1736 -0.1885 -0.3154
  150loPI   GL1 2389  16.810  14.299   9.951  0.2688  0.2082 -0.0547
  150loPI   GL2 2390  16.667  14.625   9.912 -0.1701 -0.0702 -0.1228
  150loPI   C1A 2391  16.988  14.432   9.578 -0.4197 -0.2910  0.2047
  150loPI   C2A 2392  16.876  14.661   9.198  0.0345 -0.0432  0.5773
  150loPI   C3A 2393  16.856  14.585   8.745  0.3091 -0.0824  0.1261
  150loPI   C4A 2394  16.733  14.316   8.485 -0.3267  0.5410  0.0673
  150loPI   C5A 2395  16.557  13.848   8.396 -0.0879 -0.0605  0.1897
  150loPI   C6A 2396  16.793  13.424   8.255 -0.2406 -0.1446 -0.2009
  150loPI   C1B 2397  16.517  14.459   9.502 -0.2002 -0.1594 -0.1417
  150loPI   C2B 2398  16.568  14.279   9.139 -0.0027 -0.0614 -0.0979
  150loPI   C3B 2399  16.533  13.920   8.895 -0.0565 -0.1403  0.0841
  150loPI   C4B 2400  16.756  13.587   8.805  0.2894  0.0621 -0.0389
  151loPI    C1 2401   7.116  10.498  10.492 -0.0038 -0.0797 -0.1315
  151loPI    C2 2402   6.886  10.737  10.717  0.1071 -0.1372  0.0447
  151loPI    C3 2403   6.965  10.364  10.837 -0.0307 -0.2505 -0.2090
  151loPI   PO4 2404   7.011  10.507  10.248 -0.2148 -0.1253  0.1317
  151loPI   GL1 2405   7.097  10.559   9.761 -0.0137  0.0286 -0.1350
  151loPI   GL2 2406   7.397  10.530   9.540  0.1745  0.0093  0.0881
  151loPI   C1A 2407   7.003  10.337   9.351 -0.1154 -0.1376 -0.0225
  151loPI   C2A 2408   7.137  10.433   8.951 -0.1716 -0.1525  0.1784
  151loPI   C3A 2409   7.326  10.384   8.630  0.1949 -0.0821 -0.1664
  151loPI   C4A 2410   7.257  10.466   8.232  0.0442 -0.0222  0.1227
  151loPI   C5A 2411   6.987  10.425   7.951  0.1769 -0.1112  0.0735
  151loPI   C6A 2412   6.767  10.243   7.604 -0.1896  0.0057  0.1531
  151loPI   C1B 2413   7.596  10.681   9.174  0.1164  0.2534  0.1617
  151loPI   C2B 2414   7.706  10.801   8.916  0.2229 -0.0177  0.0993
  151loPI   C3B 2415   7.749  10.787   8.471 -0.0250  0.3291 -0.1319
  151loPI   C4B 2416   7.747  10.767   8.082 -0.1716 -0.1353  0.4028
  152loPI    C1 2417   6.251   7.539  10.087  0.0621 -0.1287 -0.0023
  152loPI    C2 2418   6.084   7.736   9.781  0.1588  0.1150  0.1002
  152loPI    C3 2419   6.365   7.913  10.005  0.5477 -0.2826 -0.0592
  152loPI   PO4 2420   6.340   7.265   9.952  0.1775 -0.1765  0.0299
  152loPI   GL1 2421   6.459   7.188   9.462  0.0027 -0.2522  0.0495
  152loPI   GL2 2422   6.178   7.298   9.398  0.2635 -0.2292 -0.0244
  152loPI   C1A 2423   6.224   6.964   9.029 -0.0059  0.2525  0.1323
  152loPI   C2A 2424   6.420   6.791   8.632  0.0940  0.1237 -0.0242
  152loPI   C3A 2425   6.251   6.782   8.174  0.0307 -0.1067  0.1026
  152loPI   C4A 2426   6.262   6.929   7.729 -0.1686  0.0702  0.1357
  152loPI   C5A 2427   6.176   6.949   7.282  0.0533  0.0262  0.1650
  152loPI   C6A 2428   5.950   7.062   6.976  0.2347 -0.1202  0.1326
  152loPI   C1B 2429   6.080   7.420   8.931 -0.3150 -0.1431  0.1826
  152loPI   C2B 2430   6.147   7.360   8.477 -0.3449 -0.3136  0.0650
  152loPI   C3B 2431   5.886   7.177   8.142 -0.1822  0.1129  0.0469
  152loPI   C4B 2432   5.826   7.400   7.828 -0.0358  0.1487  0.2319
  153loPI    C1 2433  14.427  10.037  10.769 -0.0853 -0.0141 -0.0338
  153loPI    C2 2434  14.302   9.746  11.013  0.1036 -0.0198  0.0577
  153loPI    C3 2435  14.467  10.077  11.165 -0.2129  0.1870 -0.0393
  153loPI   PO4 2436  14.424   9.962  10.526 -0.0639 -0.2381 -0.0321
  153loPI   GL1 2437  14.633   9.949  10.179  0.0821  0.1318 -0.0712
  153loPI   GL2 2438  14.359   9.811   9.861  0.1000  0.2239  0.1037
  153loPI   C1A 2439  14.652  10.150   9.744 -0.2639 -0.3129 -0.0150
  153loPI   C2A 2440  14.723  10.259   9.330 -0.2561  0.0809 -0.2214
  153loPI   C3A 2441  14.855  10.316   8.908  0.0805  0.0390 -0.0762
  153loPI   C4A 2442  14.989  10.029   8.582 -0.0357  0.0356  0.1412
  153loPI   C5A 2443  15.063   9.803   8.199  0.2169  0.0938 -0.2510
  153loPI   C6A 2444  15.108   9.416   7.991 -0.0462  0.2033  0.0397
  153loPI   C1B 2445  14.443   9.864   9.368  0.1439  0.0575  0.1275
  153loPI   C2B 2446  14.406  10.036   9.060 -0.0081  0.0881  0.0090
  153loPI   C3B 2447  14.237  10.025   8.616 -0.0118 -0.0863  0.2175
  153loPI   C4B 2448  13.984  10.055   8.248  0.0492  0.2247  0.0905
  154loPI    C1 2449  10.932  11.799  10.455 -0.0692  0.0402 -0.1487
  154loPI    C2 2450  11.123  11.468  10.572  0.0605  0.1399 -0.0747
  154loPI    C3 2451  10.964  11.714  10.845 -0.2917 -0.0092 -0.1398
  154loPI   PO4 2452  10.997  11.869  10.228  0.0759  0.0131  0.0604
  154loPI   GL1 2453  10.963  11.836   9.833 -0.0328  0.3608  0.1955
  154loPI   GL2 2454  10.983  12.225   9.654 -0.0112 -0.4262  0.1257
  154loPI   C1A 2455  11.036  11.428   9.484  0.0037  0.0093  0.0948
  154loPI   C2A 2456  11.127  11.470   9.105 -0.1586 -0.2172  0.2062
  154loPI   C3A 2457  11.065  11.486   8.661 -0.0612 -0.2824  0.0414
  154loPI   C4A 2458  11.473  11.461   8.440 -0.1628 -0.1987  0.0470
  154loPI   C5A 2459  11.718  11.285   8.155  0.0054 -0.3065  0.4147
  154loPI   C6A 2460  12.067  11.157   7.854  0.1641 -0.0214 -0.3850
  154loPI   C1B 2461  10.825  12.049   9.208  0.1612  0.2962  0.2126
  154loPI   C2B 2462  10.750  11.889   8.715  0.1374 -0.0728  0.0115
  154loPI   C3B 2463  10.694  11.746   8.309 -0.1741 -0.0994 -0.1453
  154loPI   C4B 2464  10.525  11.927   7.911 -0.2035 -0.0776 -0.1983
  155loPI    C1 2465  16.939  16.530  10.609  0.2148  0.1210  0.1169
  155loPI    C2 2466  17.124  16.196  10.726 -0.0445  0.0369  0.2975
  155loPI    C3 2467  16.752  16.272  10.852  0.0907  0.4997  0.4343
  155loPI   PO4 2468  16.880  16.515  10.353  0.1371 -0.0283  0.1319
  155loPI   GL1 2469  16.750  16.337   9.937  0.0297 -0.2110 -0.1773
  155loPI   GL2 2470  16.962  16.169   9.775 -0.0101 -0.0153  0.0321
  155loPI   C1A 2471  16.674  16.483   9.514  0.3953 -0.1878  0.0884
  155loPI   C2A 2472  16.745  16.539   9.028  0.3445 -0.2362 -0.1900
  155loPI   C3A 2473  16.787  16.537   8.574  0.1112 -0.1112 -0.0615
  155loPI   C4A 2474  16.734  16.484   8.102  0.2918 -0.0196  0.3854
  155loPI   C5A 2475  16.660  16.317   7.688  0.1197 -0.3001 -0.0485
  155loPI   C6A 2476  16.589  16.248   7.300  0.0463 -0.1992  0.1688
  155loPI   C1B 2477  16.998  16.135   9.279 -0.0313 -0.2298 -0.2158
  155loPI   C2B 2478  16.934  16.126   8.817  0.2761 -0.0825 -0.1913
  155loPI   C3B 2479  16.988  16.028   8.402 -0.0028  0.2474  0.0212
  155loPI   C4B 2480  17.146  15.786   8.053  0.2714  0.0645 -0.1220
  156loPI    C1 2481   4.984   0.762   9.903 -0.0932 -0.0886  0.1360
  156loPI    C2 2482   5.372   0.712   9.988 -0.0551  0.0499  0.0485
  156loPI    C3 2483   5.113   0.805  10.279 -0.0353 -0.1112  0.1188
  156loPI   PO4 2484   4.994   0.899   9.704 -0.1773  0.2721  0.3047
  156loPI   GL1 2485   5.447   0.884   9.492  0.0962  0.0080 -0.2779
  156loPI   GL2 2486   5.209   0.605   9.327  0.0844 -0.1018 -0.0217
  156loPI   C1A 2487   5.553   0.975   9.006 -0.1261  0.1737  0.0018
  156loPI   C2A 2488   5.610   0.942   8.609 -0.3147  0.3578 -0.1365
  156loPI   C3A 2489   5.543   0.857   8.166  0.4497 -0.1875 -0.2006
  156loPI   C4A 2490   5.511   0.954   7.708 -0.1346  0.1741 -0.0961
  156loPI   C5A 2491   5.485   1.071   7.275  0.1460  0.3245 -0.0243
  156loPI   C6A 2492   5.611   1.369   7.072 -0.0176  0.1522  0.0720
  156loPI   C1B 2493   5.107   0.835   8.925 -0.2670  0.0150  0.0873
  156loPI   C2B 2494   5.087   0.797   8.444  0.0509  0.1159 -0.2331
  156loPI   C3B 2495   5.005   0.872   7.968 -0.1151  0.0665 -0.3772
  156loPI   C4B 2496   4.995   0.925   7.495 -0.3862 -0.5278 -0.5679
  157loPI    C1 2497  10.729  13.212  10.371 -0.1627 -0.0958  0.0246
  157loPI    C2 2498  10.676  13.439  10.696 -0.1324  0.1951 -0.1696
  157loPI    C3 2499  10.393  13.180  10.585 -0.0777 -0.0171  0.1713
  157loPI   PO4 2500  10.870  13.269  10.144 -0.0752 -0.2415 -0.1656
  157loPI   GL1 2501  11.115  13.354   9.857  0.3051  0.0421  0.0737
  157loPI   GL2 2502  11.345  13.124   9.894  0.3422  0.0679  0.0656
  157loPI   C1A 2503  10.858  13.349   9.533  0.1847 -0.2333 -0.2573
  157loPI   C2A 2504  10.973  13.437   9.184  0.2066  0.2163  0.1671
  157loPI   C3A 2505  11.278  13.467   8.872 -0.1382  0.0390 -0.1406
  157loPI   C4A 2506  11.470  13.380   8.453 -0.0331 -0.0113 -0.0097
  157loPI   C5A 2507  11.881  13.397   8.154 -0.1258 -0.1759  0.2687
  157loPI   C6A 2508  12.262  13.458   7.898 -0.0658 -0.2046  0.2741
  157loPI   C1B 2509  11.398  13.270   9.425  0.0697  0.1801 -0.0276
  157loPI   C2B 2510  11.364  13.003   9.011  0.0082 -0.2824 -0.4580
  157loPI   C3B 2511  11.443  12.895   8.668 -0.0249 -0.1905 -0.2681
  157loPI   C4B 2512  11.673  12.961   8.216 -0.0480 -0.0007  0.1811
  158loPI    C1 2513   0.768   9.840  10.241  0.0935  0.1398  0.0110
  158loPI    C2 2514   0.689   9.904  10.628 -0.0613 -0.1428  0.0289
  158loPI    C3 2515   1.064   9.938  10.492  0.0077 -0.1233  0.2206
  158loPI   PO4 2516   0.660   9.924  10.113  0.0300  0.1170 -0.1820
  158loPI   GL1 2517   0.568  10.135   9.792 -0.1006 -0.3792  0.0502
  158loPI   GL2 2518   0.288  10.075   9.815 -0.2414  0.0260 -0.2401
  158loPI   C1A 2519   0.336  10.365   9.434  0.0393 -0.0262 -0.3049
  158loPI   C2A 2520   0.312  10.682   9.217  0.1348  0.0575  0.0470
  158loPI   C3A 2521   0.248  10.612   8.799  0.1267 -0.1249  0.0027
  158loPI   C4A 2522   0.127  10.615   8.375  0.3569  0.0998  0.0770
  158loPI   C5A 2523  -0.101  10.276   8.088 -0.2107  0.0119 -0.0664
  158loPI   C6A 2524  -0.403  10.076   8.103 -0.1849  0.1558 -0.0928
  158loPI   C1B 2525   0.410   9.861   9.413 -0.0842 -0.0405 -0.2861
  158loPI   C2B 2526   0.473   9.688   8.981 -0.2030  0.2260  0.1279
  158loPI   C3B 2527   0.313   9.732   8.653 -0.0959  0.1107  0.3038
  158loPI   C4B 2528   0.091   9.635   8.230 -0.0524 -0.0364 -0.3330
  159loPI    C1 2529  11.907   9.408  10.530  0.0030  0.1428  0.0990
  159loPI    C2 2530  12.248   9.343  10.331 -0.1315 -0.3758  0.0210
  159loPI    C3 2531  12.222   9.251  10.719 -0.0760  0.0064  0.1194
  159loPI   PO4 2532  11.889   9.663  10.463  0.1477 -0.1573  0.2653
  159loPI   GL1 2533  11.709   9.970  10.115  0.4424 -0.0479  0.2204
  159loPI   GL2 2534  11.961   9.969   9.962  0.0086 -0.0994  0.3558
  159loPI   C1A 2535  11.559   9.880   9.703 -0.0423  0.2035  0.2288
  159loPI   C2A 2536  11.588   9.863   9.329 -0.0229  0.1299  0.0122
  159loPI   C3A 2537  11.333   9.652   8.974  0.0257  0.5220 -0.1793
  159loPI   C4A 2538  11.036   9.723   8.581 -0.1240  0.0669 -0.2779
  159loPI   C5A 2539  11.114   9.559   8.163 -0.1593  0.1109  0.2701
  159loPI   C6A 2540  10.891   9.164   7.978 -0.0807 -0.1700 -0.1067
  159loPI   C1B 2541  12.066   9.874   9.520  0.3003 -0.3011 -0.2082
  159loPI   C2B 2542  12.301   9.938   9.061 -0.1327  0.1564  0.4226
  159loPI   C3B 2543  12.307  10.064   8.687 -0.1419  0.2572  0.1314
  159loPI   C4B 2544  12.738  10.417   8.430  0.0234  0.0951  0.0175
  160loPI    C1 2545   4.978   2.740   9.825  0.0647  0.1468  0.1125
  160loPI    C2 2546   4.634   2.930   9.752 -0.0696 -0.0916  0.1144
  160loPI    C3 2547   4.761   2.884  10.129 -0.1054 -0.1236  0.1226
  160loPI   PO4 2548   5.117   2.784   9.647  0.1057 -0.2091 -0.0317
  160loPI   GL1 2549   5.079   3.074   9.363  0.1451  0.0321 -0.1852
  160loPI   GL2 2550   4.872   3.330   9.408 -0.3296  0.2285 -0.0037
  160loPI   C1A 2551   5.049   2.958   8.977 -0.0257  0.0817 -0.1430
  160loPI   C2A 2552   5.206   2.911   8.646 -0.1663  0.0389  0.0845
  160loPI   C3A 2553   5.457   2.912   8.383 -0.0944  0.1459  0.1969
  160loPI   C4A 2554   5.448   2.844   8.020 -0.2408 -0.1652 -0.2077
  160loPI   C5A 2555   5.444   2.889   7.596 -0.1666 -0.2657 -0.1526
  160loPI   C6A 2556   5.407   3.160   7.313  0.0327 -0.1426 -0.1511
  160loPI   C1B 2557   4.735   3.347   8.943 -0.2454 -0.1712  0.2764
  160loPI   C2B 2558   4.956   3.360   8.540  0.1172  0.0610 -0.0589
  160loPI   C3B 2559   5.011   3.082   8.144 -0.0711  0.1991 -0.3629
  160loPI   C4B 2560   5.018   3.110   7.747  0.0193 -0.0206  0.1622
  161loPI    C1 2561  15.760   7.166  10.910 -0.1924  0.4585 -0.3433
  161loPI    C2 2562  16.060   7.370  11.079  0.0294 -0.0811 -0.0603
  161loPI    C3 2563  15.683   7.435  11.196  0.1116  0.0555  0.1349
  161loPI   PO4 2564  15.712   7.289  10.663  0.0827  0.0831  0.1241
  161loPI   GL1 2565  15.513   7.298  10.306 -0.0158  0.1830  0.3889
  161loPI   GL2 2566  15.437   6.926  10.198 -0.0885  0.3501  0.4552
  161loPI   C1A 2567  15.278   7.548   9.976  0.5393 -0.0794 -0.0702
  161loPI   C2A 2568  15.072   7.465   9.630  0.1226  0.2175 -0.0941
  161loPI   C3A 2569  14.749   7.708   9.475 -0.0043  0.0305  0.1928
  161loPI   C4A 2570  14.677   7.849   9.101  0.0496  0.1589  0.1480
  161loPI   C5A 2571  14.410   7.725   8.668  0.2273 -0.0607 -0.0744
  161loPI   C6A 2572  14.102   7.781   8.329 -0.1342 -0.0003 -0.1390
  161loPI   C1B 2573  15.375   7.065   9.805 -0.1026  0.0513  0.0063
  161loPI   C2B 2574  15.299   6.824   9.462  0.0432  0.0840 -0.1059
  161loPI   C3B 2575  15.526   6.566   9.122  0.1306 -0.1181 -0.0871
  161loPI   C4B 2576  15.720   6.168   9.018  0.1604 -0.1072 -0.0759
  162loPI    C1 2577  16.085  18.559  10.233  0.2801  0.3093  0.0556
  162loPI    C2 2578  16.270  18.439   9.899 -0.0085 -0.2724  0.0926
  162loPI    C3 2579  16.457  18.414  10.251  0.1155 -0.1300  0.0379
  162loPI   PO4 2580  16.007  18.782  10.237 -0.3889  0.1993 -0.2831
  162loPI   GL1 2581  15.809  18.657   9.819  0.0412  0.1152  0.2697
  162loPI   GL2 2582  15.971  18.814   9.731  0.1703  0.1707 -0.2306
  162loPI   C1A 2583  15.653  18.534   9.449  0.1057  0.4570  0.1519
  162loPI   C2A 2584  15.626  18.539   9.060 -0.2194 -0.0384  0.1484
  162loPI   C3A 2585  15.737  18.613   8.602  0.1957  0.2717  0.1623
  162loPI   C4A 2586  15.462  18.618   8.286 -0.1087 -0.1130  0.1805
  162loPI   C5A 2587  15.316  18.871   8.015 -0.0586  0.2233 -0.2294
  162loPI   C6A 2588  15.007  18.954   7.809  0.1689  0.0833 -0.0176
  162loPI   C1B 2589  16.189  18.480   9.428 -0.0329 -0.2482 -0.0999
  162loPI   C2B 2590  16.508  18.339   9.159 -0.0891  0.3101  0.0508
  162loPI   C3B 2591  16.636  18.377   8.732 -0.0255  0.0326  0.0787
  162loPI   C4B 2592  16.899  18.628   8.536  0.0580  0.0132 -0.1126
  163loPI    C1 2593  18.032  12.480  10.645 -0.0302  0.0093 -0.0323
  163loPI    C2 2594  17.789  12.250  10.865 -0.1007  0.0333 -0.0845
  163loPI    C3 2595  17.770  12.648  10.896 -0.0367  0.0345 -0.0561
  163loPI   PO4 2596  17.921  12.436  10.366  0.1082  0.3343  0.1398
  163loPI   GL1 2597  17.813  12.654  10.057 -0.1089  0.0627  0.0397
  163loPI   GL2 2598  17.645  12.421   9.965  0.2286  0.0798 -0.1308
  163loPI   C1A 2599  17.759  13.007   9.656  0.1988  0.0765  0.2432
  163loPI   C2A 2600  17.584  13.280   9.319 -0.2278 -0.1891  0.0641
  163loPI   C3A 2601  17.189  13.330   8.994  0.1037 -0.0661  0.0112
  163loPI   C4A 2602  17.197  13.597   8.596  0.0875 -0.1010 -0.1160
  163loPI   C5A 2603  17.270  13.558   8.168 -0.0534 -0.1848  0.1020
  163loPI   C6A 2604  17.415  13.652   7.786 -0.0784 -0.2507 -0.2888
  163loPI   C1B 2605  17.990  12.403   9.621  0.1571 -0.4576 -0.1462
  163loPI   C2B 2606  17.880  12.368   9.293  0.2721  0.4490 -0.0483
  163loPI   C3B 2607  17.870  12.154   8.877 -0.2782 -0.1328 -0.0915
  163loPI   C4B 2608  17.947  12.277   8.439  0.4089  0.0002  0.1220
  164loPI    C1 2609  13.000   0.456  10.130  0.0032 -0.0516  0.2659
  164loPI    C2 2610  13.111   0.535  10.506  0.4810 -0.1128  0.1443
  164loPI    C3 2611  13.183   0.175  10.348  0.2641 -0.0937 -0.0017
  164loPI   PO4 2612  13.112   0.575   9.988  0.4157 -0.5786 -0.1157
  164loPI   GL1 2613  13.319   0.589   9.574 -0.1663 -0.0223  0.4183
  164loPI   GL2 2614  13.334   0.818   9.396  0.1206  0.1621  0.1662
  164loPI   C1A 2615  13.293   0.359   9.164  0.2266  0.0396  0.0856
  164loPI   C2A 2616  13.197   0.410   8.698  0.0693  0.3704 -0.0517
  164loPI   C3A 2617  13.337   0.572   8.282 -0.0274 -0.2262 -0.0215
  164loPI   C4A 2618  13.452   0.787   7.901 -0.0370 -0.3786 -0.0968
  164loPI   C5A 2619  13.392   0.676   7.507  0.0201  0.0749  0.0657
  164loPI   C6A 2620  13.105   0.422   7.235 -0.2822  0.1675  0.1740
  164loPI   C1B 2621  13.320   0.839   8.954 -0.0053  0.0920  0.2284
  164loPI   C2B 2622  13.449   1.024   8.473  0.3260 -0.1803  0.3947
  164loPI   C3B 2623  13.827   1.040   8.109 -0.2241 -0.1606 -0.2935
  164loPI   C4B 2624  14.075   0.935   7.799 -0.0850 -0.3802 -0.1759
  165loPI    C1 2625  16.795  11.252  11.026  0.0823 -0.1662  0.0174
  165loPI    C2 2626  16.599  11.564  10.871 -0.1610 -0.2401  0.1702
  165loPI    C3 2627  16.907  11.625  11.118  0.1515 -0.1228 -0.2377
  165loPI   PO4 2628  16.923  11.153  10.773  0.4948  0.1856  0.0492
  165loPI   GL1 2629  16.821  11.153  10.406  0.0405 -0.0029 -0.1222
  165loPI   GL2 2630  16.530  11.014  10.240  0.0226  0.1724 -0.2056
  165loPI   C1A 2631  16.941  11.212   9.992 -0.1223 -0.0762  0.1749
  165loPI   C2A 2632  16.968  10.921   9.723  0.1711  0.1803 -0.3948
  165loPI   C3A 2633  16.849  10.928   9.295  0.0937  0.1412 -0.0351
  165loPI   C4A 2634  17.043  11.027   8.905  0.0135 -0.1075  0.0518
  165loPI   C5A 2635  17.488  10.985   8.819 -0.0741 -0.0125 -0.1051
  165loPI   C6A 2636  17.808  10.770   8.687 -0.0401  0.1368  0.0365
  165loPI   C1B 2637  16.450  11.148   9.812  0.3773 -0.0058 -0.1605
  165loPI   C2B 2638  16.380  11.269   9.345  0.0610 -0.2322  0.0295
  165loPI   C3B 2639  16.519  11.178   8.881  0.0457 -0.0607  0.2673
  165loPI   C4B 2640  16.660  11.113   8.520 -0.1046  0.1371  0.6391
  166loPI    C1 2641   9.596   1.624  10.330 -0.2207  0.1798  0.0317
  166loPI    C2 2642   9.709   1.931  10.559 -0.1584  0.0883  0.1247
  166loPI    C3 2643   9.374   1.731  10.645 -0.2776  0.2222 -0.0227
  166loPI   PO4 2644   9.647   1.750   9.997  0.1208  0.3700 -0.0219
  166loPI   GL1 2645   9.887   1.715   9.573  0.2801  0.3026 -0.1081
  166loPI   GL2 2646   9.762   2.114   9.678  0.1610 -0.3736 -0.1533
  166loPI   C1A 2647   9.771   1.763   9.168  0.1117  0.2446  0.0636
  166loPI   C2A 2648   9.778   1.910   8.698  0.0535 -0.0801 -0.3038
  166loPI   C3A 2649   9.749   1.932   8.291  0.0779 -0.1654 -0.2666
  166loPI   C4A 2650   9.429   1.975   7.905 -0.0177 -0.0599  0.0241
  166loPI   C5A 2651   9.273   2.401   7.711 -0.2315  0.0354 -0.1426
  166loPI   C6A 2652   9.273   2.710   7.497  0.3946 -0.1132  0.5164
  166loPI   C1B 2653   9.936   2.336   9.345  0.1394  0.0283 -0.1729
  166loPI   C2B 2654   9.829   2.335   8.948 -0.4011 -0.1625 -0.1345
  166loPI   C3B 2655   9.631   2.405   8.522  0.3296  0.2985  0.0844
  166loPI   C4B 2656   9.495   2.357   8.160 -0.1660 -0.2099  0.3229
  167loPI    C1 2657   1.683  17.975  10.007  0.2322  0.2168  0.1371
  167loPI    C2 2658   1.392  18.095   9.761  0.0989 -0.1415  0.1153
  167loPI    C3 2659   1.443  18.277  10.113 -0.0528  0.0231  0.0536
  167loPI   PO4 2660   1.685  17.707   9.931  0.1757 -0.1609  0.1468
  167loPI   GL1 2661   1.518  17.577   9.556 -0.0810 -0.1023  0.2863
  167loPI   GL2 2662   1.718  17.883   9.418 -0.2032  0.4195 -0.1747
  167loPI   C1A 2663   1.369  17.238   9.340 -0.1825  0.2019 -0.0390
  167loPI   C2A 2664   1.252  17.245   8.882 -0.2284  0.0058  0.0629
  167loPI   C3A 2665   1.163  16.998   8.571 -0.0718 -0.5748 -0.1789
  167loPI   C4A 2666   0.975  17.066   8.088 -0.0262  0.3804 -0.2839
  167loPI   C5A 2667   1.079  17.240   7.703 -0.1590  0.0334  0.3448
  167loPI   C6A 2668   1.003  17.234   7.298  0.0802  0.2215  0.2321
  167loPI   C1B 2669   1.665  18.022   8.942  0.2331  0.2559  0.0254
  167loPI   C2B 2670   1.810  18.088   8.502 -0.1761  0.2687  0.1951
  167loPI   C3B 2671   2.003  17.700   8.420 -0.0589  0.1601  0.1938
  167loPI   C4B 2672   2.059  17.326   8.329 -0.0203 -0.2097  0.0266
  168loPI    C1 2673  14.315  10.801  10.661  0.0657 -0.1318 -0.1609
  168loPI    C2 2674  14.671  10.767  10.839 -0.0420  0.0681  0.1015
  168loPI    C3 2675  14.391  10.487  10.896 -0.0335  0.0688  0.1465
  168loPI   PO4 2676  14.332  10.752  10.423 -0.0572 -0.1175  0.0663
  168loPI   GL1 2677  14.377  10.940  10.055  0.0368  0.0733  0.0552
  168loPI   GL2 2678  14.036  10.946  10.021 -0.0625 -0.2077 -0.0715
  168loPI   C1A 2679  14.568  11.135   9.781  0.3228 -0.0981  0.1200
  168loPI   C2A 2680  14.540  11.236   9.339 -0.0067  0.1613 -0.1669
  168loPI   C3A 2681  14.499  11.140   8.940 -0.2342  0.1300  0.0589
  168loPI   C4A 2682  14.550  11.020   8.509 -0.0761 -0.1272 -0.0515
  168loPI   C5A 2683  14.962  11.097   8.217  0.0269  0.2647 -0.1338
  168loPI   C6A 2684  15.288  11.439   8.311  0.0805 -0.0906 -0.0929
  168loPI   C1B 2685  14.134  10.848   9.661  0.2264 -0.1244  0.0326
  168loPI   C2B 2686  14.155  10.897   9.261  0.0375 -0.2567 -0.0765
  168loPI   C3B 2687  14.004  10.780   8.896 -0.1597  0.1789  0.2338
  168loPI   C4B 2688  13.928  10.516   8.472 -0.2066  0.2666  0.1961
  169loPI    C1 2689  10.934  17.017  10.172  0.1556 -0.1690 -0.0389
  169loPI    C2 2690  11.241  17.121  10.407 -0.0181  0.0448  0.0973
  169loPI    C3 2691  10.918  16.945  10.565  0.0153 -0.1421 -0.0390
  169loPI   PO4 2692  10.911  17.228   9.962 -0.3066 -0.0996  0.0747
  169loPI   GL1 2693  10.966  17.085   9.541  0.1928  0.1152  0.1757
  169loPI   GL2 2694  10.888  16.773   9.511 -0.2310  0.0653  0.0385
  169loPI   C1A 2695  10.921  17.424   9.246 -0.1181 -0.0950  0.0864
  169loPI   C2A 2696  11.011  17.556   8.876 -0.1389  0.2043  0.0171
  169loPI   C3A 2697  10.911  17.814   8.472  0.3275 -0.2420  0.4944
  169loPI   C4A 2698  10.967  18.010   8.060 -0.0444 -0.2011  0.0952
  169loPI   C5A 2699  10.773  18.242   7.665 -0.1575  0.1691  0.0798
  169loPI   C6A 2700  11.013  18.199   7.218  0.0788  0.0883 -0.2214
  169loPI   C1B 2701  10.830  16.524   9.203  0.0616  0.0776  0.0215
  169loPI   C2B 2702  10.732  16.595   8.796  0.3146  0.2723  0.0681
  169loPI   C3B 2703  10.881  16.460   8.441 -0.4268  0.0018  0.2661
  169loPI   C4B 2704  11.092  16.507   8.087  0.0397 -0.0439  0.0591
  170loPI    C1 2705   1.387  15.443  10.316 -0.1262  0.0687  0.1270
  170loPI    C2 2706   1.281  15.439  10.702  0.0291 -0.3183  0.1704
  170loPI    C3 2707   1.602  15.234  10.580  0.0322 -0.1288 -0.1532
  170loPI   PO4 2708   1.198  15.358  10.091  0.1251  0.0760 -0.0481
  170loPI   GL1 2709   1.191  15.345   9.686 -0.2746  0.0491 -0.1121
  170loPI   GL2 2710   1.200  15.715   9.539 -0.1392  0.3540  0.0596
  170loPI   C1A 2711   1.320  15.239   9.331 -0.4244  0.0698  0.0022
  170loPI   C2A 2712   1.170  15.186   8.969 -0.1059 -0.1298  0.0493
  170loPI   C3A 2713   0.927  15.180   8.611  0.0558  0.0126 -0.0197
  170loPI   C4A 2714   0.901  15.193   8.166  0.0433 -0.1518 -0.1813
  170loPI   C5A 2715   0.803  15.132   7.788  0.0801 -0.0927 -0.1886
  170loPI   C6A 2716   0.581  15.123   7.432  0.1464  0.0969 -0.0643
  170loPI   C1B 2717   1.185  15.707   9.109  0.1617  0.0234 -0.1433
  170loPI   C2B 2718   0.989  15.663   8.684  0.2008  0.1410 -0.2352
  170loPI   C3B 2719   0.752  15.653   8.313  0.0195  0.0458  0.2383
  170loPI   C4B 2720   0.535  15.589   8.028  0.0998  0.2368  0.4069
  171loPI    C1 2721   1.798   2.999  10.487  0.0892 -0.2210  0.2092
  171loPI    C2 2722   1.400   3.003  10.452  0.1127  0.1074 -0.0809
  171loPI    C3 2723   1.590   2.660  10.531 -0.2017 -0.1100 -0.2437
  171loPI   PO4 2724   1.913   3.100  10.228 -0.0316 -0.0830 -0.3388
  171loPI   GL1 2725   1.830   3.184   9.811 -0.1853 -0.1119  0.0164
  171loPI   GL2 2726   1.479   3.093   9.853 -0.0787  0.1441 -0.3519
  171loPI   C1A 2727   2.180   2.892   9.511  0.1156 -0.2555  0.2642
  171loPI   C2A 2728   2.399   2.713   9.114  0.0644  0.1302  0.3552
  171loPI   C3A 2729   2.576   2.773   8.816  0.0880  0.0608  0.1817
  171loPI   C4A 2730   2.599   2.982   8.327  0.0214  0.1224 -0.2596
  171loPI   C5A 2731   2.774   3.055   7.949 -0.1584 -0.1658 -0.1177
  171loPI   C6A 2732   2.711   3.172   7.656 -0.2645  0.0523 -0.2353
  171loPI   C1B 2733   1.304   3.203   9.478  0.0081  0.1345 -0.0323
  171loPI   C2B 2734   1.168   3.204   9.140 -0.0382 -0.0910  0.2213
  171loPI   C3B 2735   1.177   3.349   8.675 -0.2904  0.0121  0.2870
  171loPI   C4B 2736   1.164   3.432   8.276  0.1232  0.0020  0.5841
  172loPI    C1 2737   9.383  17.629  10.245 -0.2848  0.0740 -0.0145
  172loPI    C2 2738   9.057  17.541  10.460 -0.1673  0.0088  0.1391
  172loPI    C3 2739   9.099  17.905  10.300 -0.2526  0.0605  0.2331
  172loPI   PO4 2740   9.393  17.367  10.019  0.2524 -0.0303  0.0647
  172loPI   GL1 2741   9.644  17.079   9.636 -0.1464 -0.0318  0.1499
  172loPI   GL2 2742   9.626  17.448   9.564  0.0613  0.2050 -0.0214
  172loPI   C1A 2743   9.514  17.026   9.198  0.5992  0.0596 -0.0205
  172loPI   C2A 2744   9.513  17.090   8.715  0.0273 -0.0687 -0.1488
  172loPI   C3A 2745   9.566  17.040   8.209 -0.1367 -0.0623 -0.1710
  172loPI   C4A 2746   9.658  17.399   7.875  0.1644 -0.1548 -0.0545
  172loPI   C5A 2747   9.727  17.782   7.788  0.4671 -0.0222 -0.0089
  172loPI   C6A 2748  10.009  18.093   7.980  0.2313  0.1530  0.1827
  172loPI   C1B 2749   9.662  17.480   9.121  0.1529  0.2603  0.0584
  172loPI   C2B 2750   9.811  17.502   8.753 -0.1883  0.1806 -0.0402
  172loPI   C3B 2751   9.908  17.303   8.401 -0.0849 -0.2757  0.2202
  172loPI   C4B 2752  10.070  17.099   8.048  0.0036  0.0631 -0.2869
  173loPI    C1 2753   4.303  10.641  10.016 -0.0056  0.0188 -0.2305
  173loPI    C2 2754   4.489  10.884  10.274 -0.0456 -0.1535 -0.0363
  173loPI    C3 2755   4.200  10.639  10.403 -0.3016 -0.0006 -0.3070
  173loPI   PO4 2756   4.222  10.830   9.791  0.0181  0.3048  0.1729
  173loPI   GL1 2757   4.032  10.677   9.388 -0.4170 -0.3529 -0.0923
  173loPI   GL2 2758   3.987  10.430   9.174  0.0255 -0.1609  0.0659
  173loPI   C1A 2759   4.134  10.951   9.028  0.3766 -0.1389 -0.0011
  173loPI   C2A 2760   4.227  11.200   8.644  0.0295 -0.1174 -0.2155
  173loPI   C3A 2761   4.295  11.156   8.227  0.1835  0.1239  0.2292
  173loPI   C4A 2762   4.255  11.208   7.827 -0.1712 -0.0553  0.4106
  173loPI   C5A 2763   4.027  11.281   7.402  0.0677  0.2779  0.1325
  173loPI   C6A 2764   4.142  11.328   7.046  0.2810 -0.1978 -0.4337
  173loPI   C1B 2765   4.273  10.525   8.841 -0.0299  0.1363  0.2930
  173loPI   C2B 2766   4.238  10.663   8.451  0.2730  0.3067  0.1547
  173loPI   C3B 2767   4.226  10.672   8.046 -0.1573  0.0869 -0.0187
  173loPI   C4B 2768   4.351  10.339   7.718 -0.0746 -0.0624  0.0128
  174loPI    C1 2769  14.146   4.621  10.415  0.1206 -0.0053 -0.0942
  174loPI    C2 2770  14.091   4.865  10.727  0.1628 -0.0954 -0.0158
  174loPI    C3 2771  14.408   4.622  10.717  0.0356 -0.2626 -0.0172
  174loPI   PO4 2772  14.019   4.747  10.154 -0.0601 -0.0406  0.1244
  174loPI   GL1 2773  13.765   4.614   9.705 -0.0037  0.0038  0.1633
  174loPI   GL2 2774  13.875   4.924   9.732  0.2918 -0.0394  0.0370
  174loPI   C1A 2775  13.812   4.352   9.371 -0.1336  0.1745  0.0135
  174loPI   C2A 2776  13.734   4.400   9.012  0.1670  0.2326  0.1932
  174loPI   C3A 2777  13.589   4.355   8.593  0.2019  0.1877 -0.0692
  174loPI   C4A 2778  13.509   4.384   8.164 -0.0555 -0.2041 -0.0253
  174loPI   C5A 2779  13.617   4.333   7.738  0.1170 -0.1042 -0.2581
  174loPI   C6A 2780  13.485   3.872   7.517 -0.0023 -0.1746 -0.2172
  174loPI   C1B 2781  13.908   4.810   9.204 -0.2757 -0.0429  0.0710
  174loPI   C2B 2782  13.838   4.874   8.674 -0.3200 -0.0298  0.0485
  174loPI   C3B 2783  13.662   4.873   8.206  0.1291 -0.0417 -0.2589
  174loPI   C4B 2784  13.725   4.892   7.773 -0.0069 -0.2156  0.2324
  175loPI    C1 2785   0.551   8.889  10.274 -0.1469 -0.1824 -0.0047
  175loPI    C2 2786   0.499   9.027  10.646 -0.0812 -0.0265 -0.0524
  175loPI    C3 2787   0.836   9.110  10.447 -0.0752 -0.1900 -0.1121
  175loPI   PO4 2788   0.270   9.038  10.128  0.0705 -0.2898 -0.2082
  175loPI   GL1 2789   0.055   9.097   9.743  0.0696  0.2674  0.0652
  175loPI   GL2 2790   0.339   9.435   9.776  0.3433 -0.1966 -0.0657
  175loPI   C1A 2791   0.098   8.897   9.375  0.1745 -0.0047  0.0654
  175loPI   C2A 2792   0.018   8.899   8.941 -0.0065 -0.1034 -0.1861
  175loPI   C3A 2793  -0.092   8.992   8.559  0.1237 -0.0394 -0.0385
  175loPI   C4A 2794  -0.205   8.761   8.158 -0.1936  0.2273  0.0805
  175loPI   C5A 2795  -0.334   8.715   7.813  0.2449  0.0911 -0.0029
  175loPI   C6A 2796  -0.332   8.481   7.487  0.0935 -0.1406 -0.0513
  175loPI   C1B 2797   0.098   9.430   9.372 -0.2911 -0.0607  0.1458
  175loPI   C2B 2798   0.051   9.461   9.024  0.0435  0.2024 -0.2965
  175loPI   C3B 2799  -0.179   9.484   8.679  0.0165  0.2374 -0.0822
  175loPI   C4B 2800  -0.363   9.655   8.371 -0.3853  0.1831 -0.1162
  176loPI    C1 2801   5.390   8.361  10.036  0.0282  0.1416  0.0667
  176loPI    C2 2802   5.186   8.600  10.284 -0.0811  0.1206 -0.0027
  176loPI    C3 2803   5.089   8.213  10.253 -0.0634  0.1215 -0.0726
  176loPI   PO4 2804   5.470   8.653   9.778  0.1633  0.0564 -0.2451
  176loPI   GL1 2805   5.544   8.691   9.278 -0.0483 -0.0401  0.1050
  176loPI   GL2 2806   5.218   8.784   9.161  0.0848  0.1394 -0.0411
  176loPI   C1A 2807   5.796   8.921   8.879  0.0675  0.0836 -0.0111
  176loPI   C2A 2808   6.007   8.916   8.466  0.1373 -0.0739 -0.0839
  176loPI   C3A 2809   6.051   8.939   8.024 -0.0151  0.2024  0.0442
  176loPI   C4A 2810   5.990   9.228   7.719 -0.0258 -0.0903 -0.0663
  176loPI   C5A 2811   6.045   9.432   7.312  0.0950  0.0448  0.4299
  176loPI   C6A 2812   5.984   9.913   7.117  0.1439  0.4442 -0.1086
  176loPI   C1B 2813   5.170   8.508   8.750  0.1121  0.0298  0.2983
  176loPI   C2B 2814   5.549   8.631   8.454 -0.0529  0.1080 -0.2949
  176loPI   C3B 2815   5.769   8.554   8.135  0.3376 -0.5100 -0.2024
  176loPI   C4B 2816   6.220   8.498   7.895  0.0482  0.2078  0.1002
  177loPI    C1 2817  14.964  16.794  10.589  0.0181 -0.1855 -0.0862
  177loPI    C2 2818  15.177  16.512  10.777 -0.0534 -0.2113 -0.0438
  177loPI    C3 2819  14.794  16.444  10.682 -0.0809 -0.1159 -0.0024
  177loPI   PO4 2820  15.153  16.823  10.385  0.1017 -0.0617 -0.1724
  177loPI   GL1 2821  15.323  16.860   9.999 -0.1971 -0.1859  0.1765
  177loPI   GL2 2822  15.065  16.785   9.832  0.0661  0.0855 -0.1420
  177loPI   C1A 2823  15.302  17.066   9.496 -0.1596 -0.0412 -0.2130
  177loPI   C2A 2824  15.432  17.033   9.007 -0.1511  0.3272  0.1595
  177loPI   C3A 2825  15.499  17.147   8.594 -0.1532 -0.1992 -0.0759
  177loPI   C4A 2826  15.933  17.043   8.501  0.2482  0.1072 -0.3904
  177loPI   C5A 2827  16.088  17.039   8.155 -0.3949  0.3465  0.0501
  177loPI   C6A 2828  16.422  17.017   7.855 -0.4135  0.1253  0.1021
  177loPI   C1B 2829  14.896  16.859   9.405  0.0733  0.0163 -0.0610
  177loPI   C2B 2830  15.003  17.277   9.141  0.0611  0.1981  0.2864
  177loPI   C3B 2831  14.892  17.665   8.846 -0.0144 -0.3319  0.1053
  177loPI   C4B 2832  14.973  18.065   8.916  0.1324 -0.1039 -0.1448
  178loPI    C1 2833  16.229   2.523  10.089  0.2610  0.1399  0.2566
  178loPI    C2 2834  16.039   2.858  10.196 -0.2600  0.0524 -0.3374
  178loPI    C3 2835  15.933   2.508  10.357 -0.1759  0.0826 -0.2148
  178loPI   PO4 2836  16.236   2.486   9.832 -0.1235 -0.2588 -0.0859
  178loPI   GL1 2837  16.405   2.467   9.413  0.4170 -0.2126 -0.3720
  178loPI   GL2 2838  16.474   2.099   9.515  0.3118  0.0632 -0.1590
  178loPI   C1A 2839  16.154   2.503   8.946 -0.1990  0.1613 -0.0076
  178loPI   C2A 2840  16.004   2.639   8.681  0.0516 -0.2378 -0.0301
  178loPI   C3A 2841  16.047   2.602   8.220 -0.1253 -0.0790  0.0284
  178loPI   C4A 2842  16.202   2.720   7.783  0.1060  0.0173  0.1517
  178loPI   C5A 2843  16.470   2.457   7.549 -0.1454  0.1593  0.1233
  178loPI   C6A 2844  16.536   2.011   7.399 -0.3539  0.1102 -0.1130
  178loPI   C1B 2845  16.663   1.769   9.173 -0.1589  0.1633 -0.1598
  178loPI   C2B 2846  16.628   1.720   8.659  0.0003 -0.0241 -0.1895
  178loPI   C3B 2847  16.684   1.630   8.245  0.3333  0.2562  0.1543
  178loPI   C4B 2848  16.860   1.660   7.766 -0.1044  0.0597  0.1265
  179loPI    C1 2849  14.544   1.855  10.127  0.1341 -0.0072 -0.1222
  179loPI    C2 2850  14.470   2.226  10.258 -0.1074 -0.0325 -0.1822
  179loPI    C3 2851  14.715   1.986  10.464  0.0571  0.1621 -0.1482
  179loPI   PO4 2852  14.634   1.788   9.866 -0.1747  0.1065  0.1720
  179loPI   GL1 2853  14.440   1.850   9.419 -0.1157 -0.1349  0.0300
  179loPI   GL2 2854  14.525   1.962   9.265 -0.2646 -0.1314 -0.2004
  179loPI   C1A 2855  14.090   1.725   9.091  0.1273 -0.2721  0.1836
  179loPI   C2A 2856  13.850   1.744   8.699 -0.0256  0.1060 -0.1090
  179loPI   C3A 2857  13.792   1.431   8.369 -0.2966  0.3017  0.2180
  179loPI   C4A 2858  13.425   1.350   8.100  0.0024  0.0466 -0.0724
  179loPI   C5A 2859  12.974   1.191   8.144 -0.0711  0.0064  0.1270
  179loPI   C6A 2860  12.620   1.098   7.854  0.2490  0.1655 -0.5376
  179loPI   C1B 2861  15.074   2.098   9.038 -0.0536  0.2595 -0.3137
  179loPI   C2B 2862  15.203   2.091   8.633  0.0825 -0.0342 -0.0577
  179loPI   C3B 2863  15.013   2.441   8.295 -0.4255  0.4897  0.0170
  179loPI   C4B 2864  15.209   2.477   7.868  0.2303  0.1180  0.1455
  180loPI    C1 2865  14.509  16.083  10.593  0.1443  0.5343 -0.0778
  180loPI    C2 2866  14.833  15.986  10.808 -0.0341 -0.1327 -0.0877
  180loPI    C3 2867  14.472  15.990  10.980 -0.0678  0.2793 -0.1567
  180loPI   PO4 2868  14.671  16.110  10.314 -0.2180  0.1050  0.1413
  180loPI   GL1 2869  14.702  16.023   9.882 -0.0021 -0.3219 -0.1406
  180loPI   GL2 2870  14.545  15.714   9.947 -0.1817  0.4195 -0.3544
  180loPI   C1A 2871  14.755  15.962   9.412  0.4795 -0.0860 -0.4887
  180loPI   C2A 2872  14.774  16.030   9.013 -0.0592 -0.1473 -0.2136
  180loPI   C3A 2873  14.703  15.922   8.607 -0.3744 -0.0331 -0.0035
  180loPI   C4A 2874  15.021  15.658   8.384  0.3243 -0.0260  0.2903
  180loPI   C5A 2875  15.446  15.609   8.331 -0.0375  0.0327  0.0977
  180loPI   C6A 2876  15.661  15.844   8.101  0.2129 -0.2110  0.0490
  180loPI   C1B 2877  14.297  15.645   9.635 -0.1233  0.1822 -0.1820
  180loPI   C2B 2878  14.241  15.444   9.273 -0.0969 -0.2538  0.1259
  180loPI   C3B 2879  14.298  15.570   8.879 -0.0122  0.1336  0.0922
  180loPI   C4B 2880  14.367  15.594   8.349  0.0164 -0.1514 -0.1371
  181loPI    C1 2881  12.569   2.696  10.049 -0.0311  0.2366  0.3614
  181loPI    C2 2882  12.552   3.036   9.838 -0.0287  0.1030  0.1425
  181loPI    C3 2883  12.240   2.786   9.841  0.0483  0.0061  0.1314
  181loPI   PO4 2884  12.902   2.565   9.897  0.1972  0.1266  0.1480
  181loPI   GL1 2885  13.001   2.766   9.478 -0.0085  0.0400  0.0956
  181loPI   GL2 2886  13.294   2.584   9.505 -0.2033 -0.2306  0.2291
  181loPI   C1A 2887  13.015   2.825   9.021  0.1199 -0.0972  0.0051
  181loPI   C2A 2888  13.088   3.069   8.655 -0.0671  0.1312 -0.2154
  181loPI   C3A 2889  13.128   2.975   8.233 -0.4691 -0.0641 -0.2582
  181loPI   C4A 2890  12.954   2.733   7.917  0.0012  0.1142 -0.1082
  181loPI   C5A 2891  13.009   2.354   7.564  0.2023 -0.1333  0.3404
  181loPI   C6A 2892  12.836   1.940   7.501 -0.3530 -0.0584 -0.4285
  181loPI   C1B 2893  13.449   2.591   9.163 -0.3459 -0.3379  0.0714
  181loPI   C2B 2894  13.677   2.649   8.802 -0.1423 -0.0792  0.3198
  181loPI   C3B 2895  14.004   2.510   8.599 -0.2067  0.3309 -0.3205
  181loPI   C4B 2896  14.161   2.058   8.509  0.1009 -0.1294  0.1481
  182loPI    C1 2897   9.450  12.897  10.195 -0.0210 -0.1096 -0.0768
  182loPI    C2 2898   9.458  12.825  10.589  0.2977 -0.0982 -0.0790
  182loPI    C3 2899   9.225  13.116  10.443  0.0602 -0.2046  0.0823
  182loPI   PO4 2900   9.739  13.009  10.210  0.0167  0.0265 -0.1405
  182loPI   GL1 2901   9.788  12.839   9.825 -0.2953  0.2188 -0.0527
  182loPI   GL2 2902  10.170  12.916   9.642  0.1729  0.0017 -0.0118
  182loPI   C1A 2903   9.598  12.690   9.522  0.0302  0.1170 -0.0750
  182loPI   C2A 2904   9.590  12.739   9.181  0.1961  0.1663 -0.0084
  182loPI   C3A 2905   9.836  12.775   8.915  0.0855  0.1231  0.2200
  182loPI   C4A 2906   9.973  12.849   8.612  0.0413 -0.2588 -0.0968
  182loPI   C5A 2907  10.156  12.570   8.353  0.0292 -0.0053  0.0054
  182loPI   C6A 2908  10.310  12.767   7.999 -0.1829 -0.1077 -0.0335
  182loPI   C1B 2909  10.076  12.878   9.294 -0.0608  0.2031  0.0768
  182loPI   C2B 2910  10.372  12.872   8.883 -0.2047  0.0626 -0.3001
  182loPI   C3B 2911  10.661  12.833   8.495  0.0604 -0.4201  0.0899
  182loPI   C4B 2912  10.592  13.243   8.145  0.1532  0.0875 -0.1322
  183loPI    C1 2913  13.416   6.494  10.407 -0.0276  0.2581 -0.1561
  183loPI    C2 2914  13.114   6.285  10.250 -0.0985  0.3867 -0.1925
  183loPI    C3 2915  13.094   6.411  10.629 -0.0854  0.3854 -0.1914
  183loPI   PO4 2916  13.443   6.674  10.221  0.0667 -0.1347  0.1700
  183loPI   GL1 2917  13.390   6.747   9.840 -0.0887 -0.3528  0.2079
  183loPI   GL2 2918  13.742   6.785   9.754  0.3185 -0.0116 -0.0680
  183loPI   C1A 2919  13.281   6.597   9.447 -0.3004  0.2212  0.0162
  183loPI   C2A 2920  13.324   6.662   9.040  0.2169 -0.1956  0.3316
  183loPI   C3A 2921  13.201   6.268   8.712  0.2220  0.0121  0.0308
  183loPI   C4A 2922  13.194   6.210   8.389 -0.0741  0.2032  0.0722
  183loPI   C5A 2923  12.928   5.999   8.025 -0.0159 -0.2957  0.1007
  183loPI   C6A 2924  12.933   5.674   7.677 -0.2495  0.2477 -0.0331
  183loPI   C1B 2925  13.738   6.714   9.385 -0.1129  0.1057  0.1222
  183loPI   C2B 2926  13.881   6.745   8.908  0.2612 -0.1817  0.0573
  183loPI   C3B 2927  13.981   6.761   8.482 -0.1865 -0.3304  0.1365
  183loPI   C4B 2928  13.784   6.470   8.162  0.2407  0.0296  0.4079
  184loPI    C1 2929   5.806  17.247   9.596 -0.1183 -0.0156 -0.1890
  184loPI    C2 2930   5.737  16.882   9.449 -0.0888 -0.1106  0.0282
  184loPI    C3 2931   5.603  16.979   9.813  0.1771 -0.0108  0.1015
  184loPI   PO4 2932   5.978  17.332   9.464 -0.1875 -0.4855 -0.2486
  184loPI   GL1 2933   6.187  17.178   9.051  0.0720 -0.0030  0.4274
  184loPI   GL2 2934   6.380  16.987   8.951  0.0535  0.0756  0.1525
  184loPI   C1A 2935   5.912  16.996   8.777  0.2336  0.0380  0.0292
  184loPI   C2A 2936   5.762  16.750   8.457  0.0019 -0.0926 -0.1185
  184loPI   C3A 2937   5.748  16.341   8.241  0.0891 -0.2422  0.0087
  184loPI   C4A 2938   5.804  16.373   7.758  0.0454 -0.1188  0.3439
  184loPI   C5A 2939   5.597  16.401   7.331  0.0361  0.0738  0.3091
  184loPI   C6A 2940   5.585  16.447   6.899  0.1161  0.1281  0.0341
  184loPI   C1B 2941   6.667  16.876   8.639  0.1621 -0.1990 -0.1743
  184loPI   C2B 2942   6.721  16.868   8.226 -0.3001 -0.1797  0.0196
  184loPI   C3B 2943   6.625  16.868   7.792  0.0334 -0.1385 -0.3194
  184loPI   C4B 2944   6.956  16.704   7.470  0.1158 -0.2690  0.0685
  185loPI    C1 2945   5.963  16.122  10.133 -0.1998 -0.1023 -0.0056
  185loPI    C2 2946   6.267  15.986  10.355 -0.0617 -0.0678 -0.1711
  185loPI    C3 2947   5.973  16.196  10.526 -0.0652 -0.2205  0.0144
  185loPI   PO4 2948   6.155  16.190   9.924 -0.0974 -0.0182  0.0104
  185loPI   GL1 2949   6.270  16.086   9.493 -0.0955  0.2034  0.0480
  185loPI   GL2 2950   6.317  15.807   9.405  0.0824 -0.0994 -0.0044
  185loPI   C1A 2951   6.215  16.083   8.991  0.0449  0.3801  0.3439
  185loPI   C2A 2952   6.309  16.178   8.560 -0.0362 -0.2563  0.2167
  185loPI   C3A 2953   6.203  16.003   8.247  0.0571  0.0275  0.1164
  185loPI   C4A 2954   6.230  15.638   8.015 -0.0645  0.0375  0.4208
  185loPI   C5A 2955   6.137  15.343   7.981 -0.1985  0.2883 -0.0668
  185loPI   C6A 2956   6.010  14.988   8.190 -0.1078 -0.0902  0.1610
  185loPI   C1B 2957   6.511  15.748   8.883  0.0266 -0.1017  0.0350
  185loPI   C2B 2958   6.668  15.835   8.500  0.0136 -0.2779 -0.2135
  185loPI   C3B 2959   6.654  16.070   8.077 -0.2170 -0.1251 -0.0458
  185loPI   C4B 2960   6.778  16.220   7.620 -0.2022  0.2113  0.1189
  186loPI    C1 2961  15.770  17.467  10.330 -0.0428  0.1813  0.1988
  186loPI    C2 2962  16.016  17.432  10.644 -0.1771  0.4389  0.3360
  186loPI    C3 2963  15.620  17.404  10.696 -0.1812 -0.0053  0.1112
  186loPI   PO4 2964  15.834  17.616  10.218  0.1706  0.1422  0.1960
  186loPI   GL1 2965  15.954  17.712   9.851 -0.1061 -0.1789  0.0301
  186loPI   GL2 2966  16.228  17.829   9.758 -0.1179 -0.5800 -0.2941
  186loPI   C1A 2967  15.902  18.085   9.479 -0.1089 -0.1017 -0.1938
  186loPI   C2A 2968  16.003  18.156   9.070 -0.1507  0.0361 -0.0950
  186loPI   C3A 2969  16.151  18.133   8.599 -0.0364 -0.1843 -0.0736
  186loPI   C4A 2970  16.031  17.916   8.251  0.0605  0.0430  0.2455
  186loPI   C5A 2971  15.774  17.750   7.939 -0.0380 -0.0726 -0.0125
  186loPI   C6A 2972  15.385  17.713   8.081 -0.1849  0.0413  0.1486
  186loPI   C1B 2973  16.347  17.817   9.286  0.1917 -0.0936  0.2238
  186loPI   C2B 2974  16.464  17.927   8.895 -0.1910 -0.0121 -0.1970
  186loPI   C3B 2975  16.576  17.883   8.424 -0.1192 -0.0885  0.0677
  186loPI   C4B 2976  16.519  18.066   8.020  0.0178  0.1681 -0.3427
  187loPI    C1 2977  10.221  14.414  10.515 -0.2143  0.0180  0.0953
  187loPI    C2 2978  10.213  14.791  10.649  0.1800 -0.0134  0.2193
  187loPI    C3 2979  10.519  14.551  10.744  0.1618 -0.2261 -0.2351
  187loPI   PO4 2980  10.221  14.507  10.224 -0.3214 -0.2230 -0.2016
  187loPI   GL1 2981  10.443  14.344   9.845  0.1551 -0.4145 -0.0533
  187loPI   GL2 2982  10.407  14.608   9.761 -0.2094  0.0820 -0.1818
  187loPI   C1A 2983  10.326  14.219   9.359  0.0738  0.1077  0.1696
  187loPI   C2A 2984  10.254  14.216   8.947 -0.0488  0.0338  0.4268
  187loPI   C3A 2985  10.350  14.002   8.508  0.2051  0.3030 -0.3534
  187loPI   C4A 2986  10.461  13.806   8.186  0.1590 -0.1713  0.0297
  187loPI   C5A 2987  10.461  13.676   7.787 -0.0353  0.3856  0.0928
  187loPI   C6A 2988  10.385  13.534   7.351  0.2499 -0.0361  0.0632
  187loPI   C1B 2989  10.516  14.694   9.365  0.1416  0.0543  0.0397
  187loPI   C2B 2990  10.535  14.745   8.976 -0.1017  0.1259 -0.0324
  187loPI   C3B 2991  10.231  15.078   8.760 -0.3058  0.1607 -0.2033
  187loPI   C4B 2992  10.277  15.459   8.794  0.2863  0.1515 -0.0412
  188loPI    C1 2993   1.768  16.970  10.200 -0.0014 -0.0492  0.0940
  188loPI    C2 2994   1.917  16.974  10.571  0.0035  0.0278  0.0914
  188loPI    C3 2995   1.770  17.310  10.411 -0.2165 -0.0571  0.1113
  188loPI   PO4 2996   1.908  16.913  10.081 -0.0999 -0.0401  0.2769
  188loPI   GL1 2997   2.261  16.947   9.829 -0.0807  0.0401 -0.0640
  188loPI   GL2 2998   2.458  17.261   9.682 -0.0891 -0.1950  0.0026
  188loPI   C1A 2999   2.201  16.992   9.379  0.1399 -0.0205  0.0193
  188loPI   C2A 3000   1.787  16.910   9.155  0.2398 -0.1441  0.1497
  188loPI   C3A 3001   1.682  16.941   8.687  0.1893  0.3007  0.2038
  188loPI   C4A 3002   1.578  17.081   8.272 -0.2960 -0.1428  0.1053
  188loPI   C5A 3003   1.472  17.348   7.952  0.1544  0.2472 -0.2059
  188loPI   C6A 3004   1.207  17.779   7.819  0.2253  0.2278  0.1733
  188loPI   C1B 3005   2.592  17.361   9.344 -0.2141  0.1312  0.2968
  188loPI   C2B 3006   2.521  17.356   8.993  0.1715 -0.1670 -0.1474
  188loPI   C3B 3007   2.372  17.633   8.773  0.2227  0.0582  0.1220
  188loPI   C4B 3008   2.470  17.838   8.343 -0.0856  0.0430 -0.2363
  189loPI    C1 3009  10.641   4.770  10.406 -0.0106 -0.0885 -0.0904
  189loPI    C2 3010  10.278   4.937  10.386  0.0061 -0.0365  0.0319
  189loPI    C3 3011  10.323   4.573  10.547  0.0091 -0.0402  0.0224
  189loPI   PO4 3012  10.763   4.923  10.180  0.0809 -0.0595  0.0500
  189loPI   GL1 3013  10.562   5.090   9.903  0.0918 -0.1513  0.2191
  189loPI   GL2 3014  10.586   4.827   9.659  0.0656 -0.3754  0.4431
  189loPI   C1A 3015  10.540   5.467   9.644  0.0234 -0.4095 -0.2458
  189loPI   C2A 3016  10.699   5.641   9.235  0.2097 -0.2282 -0.2681
  189loPI   C3A 3017  10.777   5.931   9.000 -0.0676  0.3147  0.5008
  189loPI   C4A 3018  10.512   5.999   8.617  0.0226  0.0311  0.0172
  189loPI   C5A 3019  10.559   6.250   8.146 -0.0025  0.1296 -0.0204
  189loPI   C6A 3020  10.559   6.681   8.191  0.1764 -0.3597  0.1547
  189loPI   C1B 3021  10.499   5.018   9.306 -0.2316  0.2161 -0.3277
  189loPI   C2B 3022  10.431   5.262   9.066  0.0233 -0.1729  0.0199
  189loPI   C3B 3023  10.677   5.476   8.770  0.0656 -0.1103  0.1532
  189loPI   C4B 3024  10.950   5.448   8.475  0.0697  0.0858  0.2074
  190loPI    C1 3025   8.832   4.484   9.859  0.0175 -0.0035 -0.0419
  190loPI    C2 3026   8.718   4.211   9.590 -0.0150  0.0170 -0.0490
  190loPI    C3 3027   8.543   4.570   9.596 -0.0425  0.0025  0.0257
  190loPI   PO4 3028   9.163   4.561   9.787 -0.0689  0.0335  0.1832
  190loPI   GL1 3029   9.400   4.327   9.537  0.1420  0.0804 -0.0320
  190loPI   GL2 3030   9.177   4.358   9.297  0.4363 -0.0996 -0.3285
  190loPI   C1A 3031   9.736   4.346   9.243 -0.1549 -0.0306 -0.0552
  190loPI   C2A 3032   9.720   4.247   8.774 -0.1728 -0.0916 -0.0535
  190loPI   C3A 3033   9.937   4.036   8.443 -0.2229 -0.1041  0.0413
  190loPI   C4A 3034  10.091   4.050   7.979  0.1400 -0.1026 -0.1899
  190loPI   C5A 3035   9.971   3.651   7.671 -0.1261  0.0425 -0.1068
  190loPI   C6A 3036  10.244   3.463   7.392 -0.0064  0.1223  0.2167
  190loPI   C1B 3037   9.247   4.291   8.873  0.0684 -0.1709  0.4525
  190loPI   C2B 3038   9.123   4.154   8.492  0.0978  0.1707 -0.2679
  190loPI   C3B 3039   9.155   4.068   8.102 -0.0719  0.0196 -0.1775
  190loPI   C4B 3040   9.240   4.093   7.651 -0.1104  0.3958  0.0639
  191loPI    C1 3041  11.333   1.171  10.039 -0.0100 -0.2155 -0.0525
  191loPI    C2 3042  11.494   1.169   9.673  0.2019  0.1217  0.0342
  191loPI    C3 3043  11.615   1.437   9.943 -0.0423 -0.0434  0.3139
  191loPI   PO4 3044  11.086   1.200   9.975  0.0530 -0.1945 -0.1105
  191loPI   GL1 3045  10.928   1.116   9.529  0.2061 -0.3707  0.0597
  191loPI   GL2 3046  11.015   1.459   9.520 -0.1883 -0.3480 -0.2299
  191loPI   C1A 3047  11.084   1.157   9.121  0.1365 -0.1632  0.0377
  191loPI   C2A 3048  11.092   1.168   8.681  0.0054 -0.1629  0.1182
  191loPI   C3A 3049  11.051   1.274   8.288  0.1580  0.0831  0.1969
  191loPI   C4A 3050  11.033   1.454   7.888  0.0651 -0.1030  0.3039
  191loPI   C5A 3051  11.336   1.511   7.580 -0.0461 -0.4432  0.0675
  191loPI   C6A 3052  11.514   1.712   7.202 -0.0201  0.0007 -0.3677
  191loPI   C1B 3053  11.116   1.673   9.104  0.0376 -0.2741 -0.3646
  191loPI   C2B 3054  11.135   1.662   8.635  0.1023 -0.1079  0.2157
  191loPI   C3B 3055  11.538   1.727   8.344 -0.0187 -0.0528 -0.2097
  191loPI   C4B 3056  11.823   1.705   8.082  0.0481 -0.1150  0.0942
  192loPI    C1 3057   3.664   8.579   9.783  0.0133 -0.2510  0.0859
  192loPI    C2 3058   3.372   8.444  10.021 -0.2505 -0.0116 -0.0949
  192loPI    C3 3059   3.659   8.681  10.170 -0.2999 -0.0276  0.0270
  192loPI   PO4 3060   3.687   8.349   9.636  0.0359  0.1714  0.2207
  192loPI   GL1 3061   3.716   8.327   9.194  0.3589  0.2286  0.1694
  192loPI   GL2 3062   3.690   7.993   9.300  0.2354 -0.0633 -0.0068
  192loPI   C1A 3063   3.788   8.309   8.735 -0.1140 -0.0605 -0.2698
  192loPI   C2A 3064   3.705   8.357   8.310 -0.0916 -0.1292 -0.3108
  192loPI   C3A 3065   3.697   8.211   7.946 -0.1111  0.1188 -0.1896
  192loPI   C4A 3066   3.755   8.194   7.578  0.0845  0.0956  0.2009
  192loPI   C5A 3067   3.599   8.070   7.247  0.1491 -0.0857 -0.0053
  192loPI   C6A 3068   3.483   7.858   6.858  0.1835  0.3628  0.1176
  192loPI   C1B 3069   3.972   7.876   9.029  0.3243 -0.0606 -0.0154
  192loPI   C2B 3070   4.155   7.814   8.640  0.2053  0.2720 -0.2000
  192loPI   C3B 3071   4.133   7.979   8.182 -0.1437  0.2411  0.0949
  192loPI   C4B 3072   4.365   8.053   7.743 -0.2576  0.1475  0.0485
  193loPI    C1 3073  10.525   4.016  10.593 -0.0666  0.2425  0.1520
  193loPI    C2 3074  10.704   3.721  10.794 -0.3102  0.1524  0.2409
  193loPI    C3 3075  10.558   4.038  10.991 -0.1124  0.3012  0.1526
  193loPI   PO4 3076  10.396   3.841  10.395  0.1662  0.0440 -0.0693
  193loPI   GL1 3077  10.510   3.910   9.884 -0.0338  0.1317  0.0085
  193loPI   GL2 3078  10.457   4.219   9.785 -0.2053  0.3186  0.3421
  193loPI   C1A 3079  10.306   3.854   9.440  0.1459  0.3770 -0.0669
  193loPI   C2A 3080  10.209   4.097   9.139 -0.1088 -0.3338 -0.2775
  193loPI   C3A 3081  10.277   4.132   8.781 -0.0448 -0.3604 -0.3715
  193loPI   C4A 3082  10.454   4.097   8.384  0.1646  0.1910  0.0214
  193loPI   C5A 3083  10.601   4.054   7.897 -0.0571  0.0423 -0.1178
  193loPI   C6A 3084  10.368   3.984   7.535 -0.0517  0.4108 -0.0735
  193loPI   C1B 3085  10.603   4.337   9.453 -0.0628  0.0136 -0.0922
  193loPI   C2B 3086  10.655   4.386   8.990 -0.0949 -0.4127  0.4108
  193loPI   C3B 3087  10.841   4.409   8.521  0.2849  0.1744 -0.0944
  193loPI   C4B 3088  11.015   4.701   8.168  0.0503 -0.0195 -0.2940
  194loPI    C1 3089  11.827  12.912  10.820 -0.1458  0.0766  0.1123
  194loPI    C2 3090  11.733  12.890  11.208 -0.0346 -0.1904  0.1261
  194loPI    C3 3091  12.062  13.087  11.093 -0.1940  0.0916  0.1444
  194loPI   PO4 3092  11.630  12.950  10.605 -0.1964  0.0800  0.0965
  194loPI   GL1 3093  11.702  13.039  10.192 -0.0580  0.0343  0.1917
  194loPI   GL2 3094  11.926  12.882  10.110 -0.0837 -0.0366  0.0177
  194loPI   C1A 3095  11.774  13.273   9.739  0.1885  0.0943 -0.1378
  194loPI   C2A 3096  12.061  13.439   9.470  0.1104 -0.2230 -0.2955
  194loPI   C3A 3097  12.089  13.748   9.141 -0.0095 -0.1446 -0.1531
  194loPI   C4A 3098  12.093  13.650   8.697 -0.0762  0.0768  0.1831
  194loPI   C5A 3099  12.271  13.735   8.305 -0.0892  0.0894  0.4611
  194loPI   C6A 3100  12.651  13.641   8.114 -0.1706  0.0799 -0.1431
  194loPI   C1B 3101  12.218  12.998   9.744  0.2027  0.2039  0.1694
  194loPI   C2B 3102  12.379  13.058   9.304  0.2082  0.2308 -0.4998
  194loPI   C3B 3103  12.233  13.254   8.975  0.1602  0.1368  0.1970
  194loPI   C4B 3104  11.732  13.421   8.948 -0.1441  0.1010 -0.1493
  195loPI    C1 3105   5.218  14.619   9.928  0.1568  0.0050  0.1829
  195loPI    C2 3106   5.035  14.372  10.183  0.2563 -0.0831  0.1698
  195loPI    C3 3107   5.425  14.327  10.107  0.2553  0.0237  0.1005
  195loPI   PO4 3108   5.082  14.591   9.738  0.0245 -0.1383 -0.1334
  195loPI   GL1 3109   4.981  14.521   9.288  0.2018  0.0902  0.1537
  195loPI   GL2 3110   5.109  14.880   9.270 -0.1309 -0.0456  0.0932
  195loPI   C1A 3111   5.137  14.498   8.849  0.0164 -0.3650  0.2117
  195loPI   C2A 3112   5.304  14.410   8.485 -0.1146  0.1232 -0.0405
  195loPI   C3A 3113   5.320  14.356   8.075 -0.1537 -0.0054 -0.0277
  195loPI   C4A 3114   5.442  14.198   7.693 -0.1246 -0.0069  0.0248
  195loPI   C5A 3115   5.625  14.053   7.393  0.2029  0.3307 -0.2101
  195loPI   C6A 3116   5.708  13.828   7.048  0.0037 -0.0625  0.1714
  195loPI   C1B 3117   5.480  14.858   9.006  0.0528 -0.3870 -0.0024
  195loPI   C2B 3118   5.518  14.847   8.603 -0.3372 -0.0884  0.1148
  195loPI   C3B 3119   5.499  14.963   8.107  0.1463  0.2152  0.1464
  195loPI   C4B 3120   5.388  14.721   7.633  0.4020  0.1155 -0.0726
  196loPI    C1 3121  15.994  13.927  11.058  0.0127  0.0672 -0.0379
  196loPI    C2 3122  15.697  13.775  11.279  0.1642 -0.1008  0.0535
  196loPI    C3 3123  15.844  13.566  10.971  0.0399  0.0778 -0.1299
  196loPI   PO4 3124  15.873  14.168  10.896 -0.1095  0.2284 -0.3039
  196loPI   GL1 3125  15.715  14.210  10.397 -0.0095 -0.3298  0.0138
  196loPI   GL2 3126  15.393  14.133  10.251  0.1442 -0.1281  0.1826
  196loPI   C1A 3127  15.792  14.429  10.044  0.0692  0.2501  0.0158
  196loPI   C2A 3128  15.995  14.483   9.610 -0.0239 -0.0497 -0.1500
  196loPI   C3A 3129  16.113  14.432   9.194  0.1235  0.0440  0.1119
  196loPI   C4A 3130  16.081  14.037   8.927  0.0259  0.0110  0.0265
  196loPI   C5A 3131  16.116  13.564   8.834  0.2886 -0.1981 -0.2204
  196loPI   C6A 3132  16.345  13.314   8.485 -0.0038  0.0945 -0.3067
  196loPI   C1B 3133  15.490  14.077   9.846  0.3158  0.2594  0.2854
  196loPI   C2B 3134  15.736  14.077   9.602  0.1772  0.0589 -0.1386
  196loPI   C3B 3135  15.579  14.163   9.242 -0.6878  0.1395 -0.1826
  196loPI   C4B 3136  15.684  14.301   8.781 -0.0441 -0.2941  0.0788
  197loPI    C1 3137  11.057   9.557  11.108 -0.0150  0.0543 -0.0256
  197loPI    C2 3138  11.007   9.285  11.397 -0.1135  0.0229 -0.0717
  197loPI    C3 3139  11.278   9.575  11.440 -0.1731  0.0569  0.0808
  197loPI   PO4 3140  11.153   9.329  10.767 -0.3735  0.1104 -0.3726
  197loPI   GL1 3141  11.017   9.141  10.322  0.1751  0.3581 -0.1571
  197loPI   GL2 3142  11.150   8.872  10.171  0.1793  0.0918 -0.1221
  197loPI   C1A 3143  10.681   9.066   9.953 -0.0998  0.0682 -0.1880
  197loPI   C2A 3144  10.589   9.255   9.626 -0.0529  0.3096 -0.1049
  197loPI   C3A 3145  10.305   9.609   9.613 -0.0424 -0.1109  0.1491
  197loPI   C4A 3146  10.200   9.738   9.311 -0.2272  0.0756 -0.0610
  197loPI   C5A 3147  10.011   9.519   8.918 -0.0338  0.0876  0.2937
  197loPI   C6A 3148  10.211   9.485   8.529  0.1625 -0.0869  0.2159
  197loPI   C1B 3149  11.293   9.170   9.766 -0.1620 -0.0961  0.0890
  197loPI   C2B 3150  11.077   9.590   9.651  0.2641 -0.0408  0.2308
  197loPI   C3B 3151  10.747   9.687   9.318 -0.2438  0.0163  0.1448
  197loPI   C4B 3152  10.439   9.758   8.889 -0.2116  0.1717  0.4090
  198loPI    C1 3153  17.262   3.446  10.016  0.0573 -0.2688 -0.0000
  198loPI    C2 3154  16.905   3.538  10.171  0.1477  0.0374  0.0317
  198loPI    C3 3155  17.239   3.626  10.372  0.2448 -0.1810 -0.0313
  198loPI   PO4 3156  17.224   3.641   9.762  0.0557 -0.0989  0.1113
  198loPI   GL1 3157  17.295   3.727   9.222  0.0238 -0.2416  0.0385
  198loPI   GL2 3158  16.933   3.873   9.169 -0.2089  0.1271 -0.0951
  198loPI   C1A 3159  17.268   3.631   8.804  0.0190 -0.1971 -0.0468
  198loPI   C2A 3160  17.216   3.713   8.284  0.1015 -0.1919  0.0891
  198loPI   C3A 3161  17.540   3.690   8.028  0.0527  0.0256 -0.0151
  198loPI   C4A 3162  17.450   3.672   7.651 -0.0165  0.3881  0.0522
  198loPI   C5A 3163  17.555   3.334   7.384  0.3329 -0.3759 -0.0681
  198loPI   C6A 3164  17.690   3.106   7.045  0.2996 -0.2525 -0.1158
  198loPI   C1B 3165  16.789   3.771   8.839 -0.2260  0.0344 -0.0196
  198loPI   C2B 3166  16.786   3.608   8.401 -0.1855 -0.1802  0.1584
  198loPI   C3B 3167  16.898   3.787   7.942  0.0154  0.0599  0.0417
  198loPI   C4B 3168  16.822   3.641   7.565  0.1959 -0.0455 -0.1230
  199loPI    C1 3169   4.612   2.325   9.875 -0.0531 -0.2288 -0.2155
  199loPI    C2 3170   4.722   1.990  10.064 -0.0955 -0.2445 -0.2185
  199loPI    C3 3171   4.341   2.112  10.078 -0.0553 -0.1296 -0.1136
  199loPI   PO4 3172   4.710   2.237   9.624  0.1456 -0.2864  0.0497
  199loPI   GL1 3173   4.885   2.527   9.316 -0.2710  0.0436 -0.0158
  199loPI   GL2 3174   4.617   2.771   9.318 -0.0379 -0.1919  0.1215
  199loPI   C1A 3175   4.787   2.567   8.853 -0.3527  0.0828 -0.2713
  199loPI   C2A 3176   4.769   2.614   8.375  0.0167 -0.1715  0.2745
  199loPI   C3A 3177   4.708   2.761   7.900  0.3547  0.0164 -0.1228
  199loPI   C4A 3178   4.434   2.929   7.541  0.1993 -0.0913 -0.2481
  199loPI   C5A 3179   4.051   3.002   7.311  0.0695 -0.0879 -0.0213
  199loPI   C6A 3180   3.635   3.163   7.393 -0.0092 -0.2918  0.0427
  199loPI   C1B 3181   4.368   2.978   9.035 -0.1720 -0.2156 -0.1558
  199loPI   C2B 3182   4.523   2.943   8.634 -0.0918 -0.2620  0.1495
  199loPI   C3B 3183   4.510   3.178   8.302 -0.0102 -0.1119  0.1701
  199loPI   C4B 3184   4.554   3.314   7.853  0.1032 -0.1071  0.0580
  200loPI    C1 3185   9.797   9.876  10.358 -0.0953  0.0863  0.1833
  200loPI    C2 3186   9.723   9.554  10.132 -0.0361  0.1741  0.0368
  200loPI    C3 3187   9.916   9.514  10.480  0.1417  0.0746 -0.0716
  200loPI   PO4 3188   9.643  10.071  10.146  0.0094  0.0752 -0.0147
  200loPI   GL1 3189   9.660   9.947   9.726  0.1186  0.0145  0.2377
  200loPI   GL2 3190   9.432  10.134   9.596 -0.1664  0.0660  0.3382
  200loPI   C1A 3191   9.689   9.692   9.511  0.0719  0.0312  0.0258
  200loPI   C2A 3192   9.569   9.681   9.164  0.1105  0.0272  0.1473
  200loPI   C3A 3193   9.600   9.840   8.758  0.0304  0.0101 -0.1013
  200loPI   C4A 3194   9.337  10.051   8.443  0.1814  0.1916  0.0011
  200loPI   C5A 3195   9.231   9.889   8.075  0.0296  0.1021  0.1722
  200loPI   C6A 3196   8.894   9.749   7.815  0.1341  0.0539 -0.0862
  200loPI   C1B 3197   9.488  10.183   9.173  0.3184 -0.0335  0.1028
  200loPI   C2B 3198   9.566  10.356   8.779 -0.1220  0.1071  0.0916
  200loPI   C3B 3199   9.700  10.414   8.387 -0.0427 -0.0009  0.0293
  200loPI   C4B 3200   9.557  10.806   8.105  0.3157  0.0720  0.2311
  201loPI    C1 3201   0.182   6.480  10.762 -0.0039  0.0019  0.1167
  201loPI    C2 3202   0.210   6.323  10.396 -0.0571  0.0109  0.1089
  201loPI    C3 3203   0.150   6.085  10.711 -0.1218  0.0133  0.0986
  201loPI   PO4 3204   0.191   6.846  10.624  0.0656  0.2717  0.0822
  201loPI   GL1 3205   0.276   6.836  10.161  0.0410 -0.2479 -0.1565
  201loPI   GL2 3206   0.081   6.829   9.875  0.2523  0.2622 -0.0226
  201loPI   C1A 3207   0.551   6.783   9.722  0.2232  0.1778 -0.0679
  201loPI   C2A 3208   0.327   6.642   9.412 -0.1556  0.2614  0.0804
  201loPI   C3A 3209   0.222   6.625   8.986  0.1433  0.0703 -0.1763
  201loPI   C4A 3210   0.229   6.621   8.580  0.3040  0.1797  0.2609
  201loPI   C5A 3211   0.365   6.527   8.172  0.1831  0.0460 -0.1307
  201loPI   C6A 3212   0.383   6.827   7.879 -0.0541 -0.0338 -0.0210
  201loPI   C1B 3213   0.140   7.107   9.488  0.0228 -0.1935  0.0815
  201loPI   C2B 3214   0.203   7.112   9.080  0.1541  0.0430  0.3169
  201loPI   C3B 3215   0.129   7.101   8.659  0.2163  0.1207  0.0784
  201loPI   C4B 3216   0.377   6.998   8.313  0.0841  0.2630 -0.0595
  202loPI    C1 3217   1.180   3.673  10.785  0.0139  0.1358 -0.0401
  202loPI    C2 3218   1.324   3.457  11.090 -0.0291 -0.1952 -0.2499
  202loPI    C3 3219   1.444   3.834  11.038  0.0269 -0.1563  0.1377
  202loPI   PO4 3220   1.170   3.488  10.593 -0.1185  0.0593  0.2514
  202loPI   GL1 3221   1.108   3.293  10.163  0.0028  0.0551 -0.0198
  202loPI   GL2 3222   1.009   3.030  10.002  0.1221 -0.0220  0.0802
  202loPI   C1A 3223   0.845   3.459   9.850 -0.0258  0.3459  0.2446
  202loPI   C2A 3224   0.910   3.527   9.473  0.3892 -0.0003  0.2660
  202loPI   C3A 3225   0.809   3.539   9.063  0.0251  0.0216  0.0873
  202loPI   C4A 3226   0.846   3.732   8.671  0.0954  0.2699 -0.0676
  202loPI   C5A 3227   0.813   3.946   8.216  0.0440 -0.1003  0.0232
  202loPI   C6A 3228   0.850   4.120   7.767  0.1665  0.0309 -0.1227
  202loPI   C1B 3229   0.885   3.006   9.602  0.4612  0.4075 -0.2396
  202loPI   C2B 3230   1.092   2.744   9.193 -0.0933 -0.1928 -0.1963
  202loPI   C3B 3231   1.382   2.550   9.032 -0.2224  0.0301  0.2062
  202loPI   C4B 3232   1.416   2.272   8.657  0.5518  0.0502 -0.0210
  203loPI    C1 3233   4.710  15.100   9.885 -0.3783 -0.0770  0.0999
  203loPI    C2 3234   4.725  15.174  10.277  0.2620 -0.0172  0.0747
  203loPI    C3 3235   4.837  14.817  10.136  0.1395 -0.0016 -0.0641
  203loPI   PO4 3236   4.861  15.294   9.666  0.2329  0.1559  0.2177
  203loPI   GL1 3237   5.050  15.404   9.269  0.0447  0.1955 -0.1431
  203loPI   GL2 3238   4.710  15.240   9.199 -0.0870  0.1271 -0.1580
  203loPI   C1A 3239   5.093  15.232   8.930  0.1556  0.3491 -0.1260
  203loPI   C2A 3240   5.230  15.264   8.482  0.0974 -0.2823  0.3101
  203loPI   C3A 3241   5.288  15.525   8.057  0.0136 -0.1126  0.1059
  203loPI   C4A 3242   5.556  15.344   7.799  0.0570 -0.0815  0.1192
  203loPI   C5A 3243   5.814  15.014   7.667  0.3145  0.0625  0.0197
  203loPI   C6A 3244   6.102  14.895   7.705  0.2746 -0.0806 -0.1168
  203loPI   C1B 3245   4.727  14.827   8.922 -0.0785 -0.0414  0.0594
  203loPI   C2B 3246   4.982  14.776   8.456 -0.2378  0.1205 -0.0039
  203loPI   C3B 3247   4.987  14.929   7.984  0.3167 -0.4330 -0.2832
  203loPI   C4B 3248   4.932  14.993   7.556  0.0178 -0.0224 -0.3706
  204loPI    C1 3249   0.602  13.114  10.513 -0.1941  0.1302 -0.0389
  204loPI    C2 3250   0.729  13.095  10.892 -0.2904  0.0770 -0.0090
  204loPI    C3 3251   0.445  12.844  10.763 -0.1996  0.0402 -0.1393
  204loPI   PO4 3252   0.643  13.314  10.423 -0.2711  0.0223 -0.0747
  204loPI   GL1 3253   0.726  13.675  10.229 -0.2432  0.0311  0.2581
  204loPI   GL2 3254   0.951  13.813  10.035 -0.0432  0.0511  0.0586
  204loPI   C1A 3255   0.482  13.634   9.825  0.0275  0.1698 -0.0484
  204loPI   C2A 3256   0.327  13.330   9.566 -0.0582 -0.3114  0.1490
  204loPI   C3A 3257   0.177  13.387   9.147 -0.0991  0.3094  0.0111
  204loPI   C4A 3258   0.339  13.404   8.753  0.0108  0.2468  0.0193
  204loPI   C5A 3259   0.238  13.344   8.306 -0.0350 -0.2483 -0.1316
  204loPI   C6A 3260   0.180  13.599   7.876 -0.0535 -0.3480  0.1097
  204loPI   C1B 3261   1.165  13.637   9.657  0.1233  0.0148  0.2051
  204loPI   C2B 3262   1.277  13.478   9.241 -0.0333 -0.0424 -0.0855
  204loPI   C3B 3263   1.156  13.362   8.839 -0.1296  0.0453  0.0980
  204loPI   C4B 3264   1.225  13.418   8.407  0.0656 -0.0634  0.2061
  205loPI    C1 3265   1.122   9.502  10.206  0.1072  0.2127 -0.2199
  205loPI    C2 3266   1.309   9.158  10.288 -0.2953 -0.0083 -0.2012
  205loPI    C3 3267   1.333   9.465  10.543 -0.3602 -0.2016  0.0415
  205loPI   PO4 3268   1.171   9.531   9.926  0.2675  0.1627 -0.2379
  205loPI   GL1 3269   0.788   9.682   9.732 -0.0177 -0.0669 -0.1524
  205loPI   GL2 3270   1.023   9.931   9.640 -0.3547 -0.2342  0.3168
  205loPI   C1A 3271   0.654   9.381   9.408  0.2624  0.0541  0.3813
  205loPI   C2A 3272   0.545   9.203   9.019  0.1735  0.0565  0.0101
  205loPI   C3A 3273   0.331   9.175   8.739 -0.3039 -0.1974 -0.1945
  205loPI   C4A 3274   0.367   9.210   8.415  0.2315 -0.1320 -0.1222
  205loPI   C5A 3275   0.020   9.191   8.009 -0.2954  0.0856  0.1438
  205loPI   C6A 3276   0.128   9.050   7.574  0.0972  0.2031  0.0308
  205loPI   C1B 3277   0.821   9.997   9.183 -0.0124 -0.2557 -0.0594
  205loPI   C2B 3278   0.841   9.966   8.798 -0.0592 -0.0767 -0.4337
  205loPI   C3B 3279   0.939  10.071   8.367 -0.0555  0.1191 -0.0809
  205loPI   C4B 3280   1.253  10.228   8.017  0.1514  0.1373 -0.0904
  206loPI    C1 3281  16.435   6.535  10.727 -0.0663  0.2749 -0.0130
  206loPI    C2 3282  16.230   6.781  10.966 -0.0971  0.0360  0.2106
  206loPI    C3 3283  16.214   6.386  11.025 -0.0447 -0.0218 -0.1422
  206loPI   PO4 3284  16.344   6.617  10.509 -0.1442 -0.0419 -0.1772
  206loPI   GL1 3285  16.316   6.793  10.187 -0.0446  0.1161  0.1453
  206loPI   GL2 3286  16.307   6.721   9.846  0.0325  0.2766  0.2538
  206loPI   C1A 3287  15.916   7.086  10.099 -0.1619  0.0560 -0.4508
  206loPI   C2A 3288  15.760   7.395   9.755 -0.4376  0.3399 -0.1776
  206loPI   C3A 3289  15.519   7.506   9.512  0.1895 -0.4163  0.3166
  206loPI   C4A 3290  15.176   7.540   9.139  0.0040  0.2306 -0.1892
  206loPI   C5A 3291  15.109   7.212   8.689 -0.1947 -0.1400  0.0344
  206loPI   C6A 3292  15.235   7.136   8.192  0.0179 -0.0273  0.0240
  206loPI   C1B 3293  15.943   6.902   9.577 -0.3780 -0.1886  0.1404
  206loPI   C2B 3294  15.741   7.096   9.262  0.0522 -0.2406 -0.0398
  206loPI   C3B 3295  15.498   7.063   8.965 -0.0435  0.0641  0.2691
  206loPI   C4B 3296  15.355   6.813   8.545 -0.4228 -0.0725  0.0944
  207loPI    C1 3297   3.657   5.380  10.118  0.1834 -0.1228  0.0479
  207loPI    C2 3298   3.951   5.250  10.357  0.1218  0.0379  0.2142
  207loPI    C3 3299   3.712   5.547  10.478  0.1311  0.1671 -0.0754
  207loPI   PO4 3300   3.828   5.413   9.882 -0.2037 -0.2290  0.0376
  207loPI   GL1 3301   4.035   5.203   9.479 -0.0262  0.2844 -0.1739
  207loPI   GL2 3302   3.741   5.094   9.374 -0.1576 -0.3299 -0.1565
  207loPI   C1A 3303   3.971   5.491   9.128 -0.1721  0.4435  0.1067
  207loPI   C2A 3304   3.980   5.845   8.828  0.2591  0.4194 -0.2081
  207loPI   C3A 3305   3.878   5.898   8.372  0.0017  0.2591 -0.2156
  207loPI   C4A 3306   3.633   6.153   8.144 -0.1893  0.1303  0.0239
  207loPI   C5A 3307   3.641   6.466   7.898 -0.1270 -0.0740 -0.0192
  207loPI   C6A 3308   3.816   6.803   7.642 -0.0120 -0.0172 -0.2496
  207loPI   C1B 3309   3.585   5.210   8.974  0.5904  0.0929 -0.1589
  207loPI   C2B 3310   3.703   5.274   8.638 -0.3075  0.1295 -0.1387
  207loPI   C3B 3311   3.832   5.434   8.229 -0.2380  0.2340 -0.2696
  207loPI   C4B 3312   3.845   5.681   7.873 -0.4242 -0.0634 -0.0622
  208loPI    C1 3313   0.104  17.538   9.933 -0.0100  0.1608  0.0610
  208loPI    C2 3314  -0.232  17.329   9.875 -0.1598  0.3945  0.0798
  208loPI    C3 3315  -0.072  17.352  10.241  0.0346  0.0498  0.0199
  208loPI   PO4 3316   0.096  17.695   9.756 -0.2268  0.2940  0.0152
  208loPI   GL1 3317   0.078  18.020   9.391  0.0710  0.0776  0.0996
  208loPI   GL2 3318   0.435  17.939   9.458  0.0183  0.3288 -0.0802
  208loPI   C1A 3319   0.092  17.986   8.938 -0.3180 -0.1227 -0.0972
  208loPI   C2A 3320  -0.228  17.920   8.547  0.0423  0.0924  0.0602
  208loPI   C3A 3321  -0.130  17.694   8.205  0.1351  0.3217 -0.0601
  208loPI   C4A 3322   0.112  17.274   8.172  0.0590  0.0140  0.0176
  208loPI   C5A 3323   0.293  17.080   7.878 -0.1121 -0.0542  0.1176
  208loPI   C6A 3324   0.663  16.821   7.732  0.2715 -0.1632 -0.0260
  208loPI   C1B 3325   0.539  18.163   9.167  0.3229  0.2306 -0.3157
  208loPI   C2B 3326   0.516  18.251   8.748  0.0027  0.1527  0.0358
  208loPI   C3B 3327   0.416  18.269   8.320  0.0562  0.0094 -0.0879
  208loPI   C4B 3328   0.681  18.289   7.892  0.3007  0.1321 -0.1328
  209loPI    C1 3329  18.390  16.450  10.416  0.0486  0.0259  0.1515
  209loPI    C2 3330  18.501  16.509  10.796  0.1088 -0.0410  0.1447
  209loPI    C3 3331  18.138  16.365  10.714  0.0925 -0.0183  0.1763
  209loPI   PO4 3332  18.527  16.302  10.291 -0.0038  0.1096 -0.0169
  209loPI   GL1 3333  18.533  16.114   9.826  0.2277 -0.1212  0.0203
  209loPI   GL2 3334  18.698  16.401   9.733  0.0724  0.1246  0.2158
  209loPI   C1A 3335  18.375  16.008   9.379 -0.0297  0.1499 -0.0555
  209loPI   C2A 3336  18.325  15.751   8.980  0.2127 -0.1257  0.1789
  209loPI   C3A 3337  18.233  15.667   8.605  0.0562 -0.0866 -0.1131
  209loPI   C4A 3338  18.321  15.697   8.173 -0.0380  0.0483 -0.4028
  209loPI   C5A 3339  18.376  15.924   7.820  0.0542  0.0378 -0.0163
  209loPI   C6A 3340  18.028  16.144   7.651 -0.1694  0.2609 -0.1718
  209loPI   C1B 3341  18.549  16.504   9.405  0.0118 -0.0414 -0.0351
  209loPI   C2B 3342  18.374  16.514   8.924 -0.0004  0.2251 -0.0259
  209loPI   C3B 3343  18.196  16.716   8.442  0.2639 -0.0482  0.1266
  209loPI   C4B 3344  18.122  17.064   8.091 -0.0088  0.4714  0.1909
  210loPI    C1 3345  10.438  10.666  10.365 -0.0125 -0.0904  0.0027
  210loPI    C2 3346  10.720  10.562  10.629 -0.2995 -0.0224  0.3432
  210loPI    C3 3347  10.494  10.885  10.694 -0.3204  0.0431 -0.0306
  210loPI   PO4 3348  10.552  10.682  10.164  0.0652  0.0802  0.0396
  210loPI   GL1 3349  10.752  10.660   9.843  0.0374  0.1480  0.0333
  210loPI   GL2 3350  10.944  10.958   9.961  0.0698 -0.1689 -0.0272
  210loPI   C1A 3351  10.886  10.605   9.409  0.3660  0.0980  0.0984
  210loPI   C2A 3352  11.051  10.588   8.995 -0.1017 -0.1142 -0.0918
  210loPI   C3A 3353  11.125  10.597   8.640 -0.1678 -0.4413 -0.0851
  210loPI   C4A 3354  11.087  10.793   8.270 -0.3699 -0.1398 -0.0313
  210loPI   C5A 3355  11.197  11.173   8.024 -0.1297 -0.3086  0.0580
  210loPI   C6A 3356  11.340  11.571   7.963  0.2208 -0.0384  0.1261
  210loPI   C1B 3357  11.183  10.960   9.634  0.0043  0.0564 -0.0082
  210loPI   C2B 3358  11.358  10.969   9.189  0.2074  0.0003 -0.1133
  210loPI   C3B 3359  11.295  11.040   8.793  0.1824  0.0874 -0.0431
  210loPI   C4B 3360  11.552  10.905   8.415  0.0348 -0.0907  0.0665
  211loPI    C1 3361   1.008   8.736  10.098  0.0321  0.1527 -0.0922
  211loPI    C2 3362   0.835   8.468   9.858  0.0681 -0.1020  0.1609
  211loPI    C3 3363   0.790   8.439  10.254  0.1899  0.1854  0.1977
  211loPI   PO4 3364   1.060   8.941   9.922 -0.0800 -0.0339  0.1035
  211loPI   GL1 3365   1.027   8.981   9.512  0.1381 -0.0729 -0.0106
  211loPI   GL2 3366   0.958   8.698   9.461 -0.0151 -0.1037 -0.1438
  211loPI   C1A 3367   1.009   8.927   9.006  0.1828  0.2251 -0.2450
  211loPI   C2A 3368   0.833   8.927   8.619 -0.0406  0.4792  0.0864
  211loPI   C3A 3369   0.803   9.053   8.222  0.3699 -0.0325  0.3223
  211loPI   C4A 3370   0.497   9.300   7.929 -0.0551 -0.0196 -0.0463
  211loPI   C5A 3371   0.195   9.508   7.683  0.1139 -0.2158 -0.0694
  211loPI   C6A 3372   0.137   9.993   7.764 -0.1635 -0.0701 -0.0332
  211loPI   C1B 3373   0.671   8.786   9.291 -0.3109 -0.1880 -0.2106
  211loPI   C2B 3374   0.500   8.707   8.890  0.0645  0.1427 -0.0095
  211loPI   C3B 3375   0.430   8.590   8.531 -0.0038 -0.0770  0.0478
  211loPI   C4B 3376   0.317   8.805   8.097 -0.0512 -0.3084  0.1512
  212loPI    C1 3377   8.982   3.035   9.892 -0.0491 -0.1185  0.0389
  212loPI    C2 3378   9.382   3.038   9.909 -0.0421  0.4071 -0.0469
  212loPI    C3 3379   9.168   3.184  10.214 -0.1678  0.2550 -0.0608
  212loPI   PO4 3380   8.903   3.101   9.724 -0.0587  0.0803 -0.1061
  212loPI   GL1 3381   9.102   3.312   9.471  0.4925 -0.3367  0.0762
  212loPI   GL2 3382   9.445   3.244   9.426 -0.1958 -0.0168 -0.2484
  212loPI   C1A 3383   8.712   3.304   9.188  0.0704  0.1140  0.1756
  212loPI   C2A 3384   8.641   3.193   8.716  0.1157  0.5051 -0.3130
  212loPI   C3A 3385   8.694   3.180   8.299 -0.2657  0.1685  0.0624
  212loPI   C4A 3386   8.622   2.851   7.989  0.1219  0.0061 -0.0931
  212loPI   C5A 3387   8.772   2.627   7.644 -0.2952  0.1584  0.2140
  212loPI   C6A 3388   8.934   2.213   7.401 -0.2616 -0.0135 -0.1826
  212loPI   C1B 3389   9.530   3.147   8.970  0.1732 -0.2487  0.0822
  212loPI   C2B 3390   9.732   3.081   8.647  0.0906  0.0007 -0.0014
  212loPI   C3B 3391   9.648   2.819   8.242 -0.1653 -0.0180  0.0837
  212loPI   C4B 3392   9.678   2.683   7.852  0.0705 -0.0614  0.1010
  213loPI    C1 3393   6.890  16.466   9.998  0.0164 -0.1401 -0.0515
  213loPI    C2 3394   6.941  16.488  10.394  0.3117  0.1386 -0.1009
  213loPI    C3 3395   6.586  16.575  10.233  0.1973  0.0467  0.0992
  213loPI   PO4 3396   7.057  16.546   9.829 -0.0998 -0.1337  0.0889
  213loPI   GL1 3397   7.194  16.412   9.411 -0.0393  0.1411 -0.2154
  213loPI   GL2 3398   7.488  16.231   9.438  0.0792 -0.2192  0.1828
  213loPI   C1A 3399   7.150  16.613   8.967  0.2017 -0.0540  0.2505
  213loPI   C2A 3400   7.148  16.680   8.529  0.1002 -0.2401 -0.2122
  213loPI   C3A 3401   7.298  16.918   8.187  0.1386  0.1749 -0.0551
  213loPI   C4A 3402   7.084  17.146   7.948  0.0675 -0.2585  0.0145
  213loPI   C5A 3403   7.031  17.280   7.601  0.0100 -0.0070  0.1393
  213loPI   C6A 3404   6.915  17.274   7.273 -0.2106 -0.0034  0.0806
  213loPI   C1B 3405   7.585  16.419   9.087 -0.0362  0.1967  0.2175
  213loPI   C2B 3406   7.646  16.451   8.614 -0.0017  0.1913  0.0038
  213loPI   C3B 3407   7.478  16.427   8.265 -0.1158 -0.2473 -0.2196
  213loPI   C4B 3408   7.691  16.384   7.913  0.3047  0.1176 -0.2908
  214loPI    C1 3409   1.802   7.410  10.133 -0.3649  0.1770  0.1276
  214loPI    C2 3410   2.145   7.411  10.339 -0.2011  0.2021 -0.1397
  214loPI    C3 3411   1.820   7.590  10.490 -0.1136  0.1303  0.1401
  214loPI   PO4 3412   1.885   7.415   9.907 -0.2482  0.0929 -0.3262
  214loPI   GL1 3413   2.071   7.349   9.534 -0.0447  0.1770  0.0685
  214loPI   GL2 3414   2.223   7.060   9.378  0.0523  0.1246 -0.0486
  214loPI   C1A 3415   1.761   7.346   9.280 -0.1397  0.2981  0.0234
  214loPI   C2A 3416   1.282   7.165   9.226 -0.1171 -0.0501 -0.0491
  214loPI   C3A 3417   0.986   7.126   8.785  0.0218 -0.0966 -0.0613
  214loPI   C4A 3418   0.825   7.216   8.408 -0.0184  0.2956 -0.1085
  214loPI   C5A 3419   0.653   7.289   8.005  0.0915  0.0857 -0.4066
  214loPI   C6A 3420   0.657   7.153   7.564  0.1143  0.1772 -0.3139
  214loPI   C1B 3421   2.196   7.219   9.006  0.1584 -0.3140 -0.2953
  214loPI   C2B 3422   2.040   7.180   8.585  0.0404 -0.1383  0.0734
  214loPI   C3B 3423   1.854   6.928   8.226 -0.0716  0.1592  0.1501
  214loPI   C4B 3424   1.995   6.915   7.745  0.0292  0.0381 -0.0210
  215loPI    C1 3425   9.627  14.342  10.667 -0.1616  0.0889  0.1290
  215loPI    C2 3426   9.773  14.668  10.848  0.0060  0.0992 -0.0222
  215loPI    C3 3427   9.838  14.305  11.005 -0.1357  0.1332  0.1177
  215loPI   PO4 3428   9.662  14.351  10.427 -0.3511 -0.1334  0.2649
  215loPI   GL1 3429   9.714  14.414  10.023  0.0808 -0.0430 -0.4285
  215loPI   GL2 3430   9.548  14.680   9.827 -0.0861  0.0975 -0.0091
  215loPI   C1A 3431   9.920  14.349   9.646 -0.0689  0.1088  0.0436
  215loPI   C2A 3432  10.008  14.563   9.190  0.3086  0.2938  0.0862
  215loPI   C3A 3433   9.892  14.685   8.756 -0.1927  0.2324 -0.0954
  215loPI   C4A 3434   9.838  14.682   8.242  0.0440 -0.0693 -0.1872
  215loPI   C5A 3435  10.195  14.592   7.882  0.1126 -0.2429  0.1221
  215loPI   C6A 3436  10.598  14.869   7.829 -0.2010 -0.0106 -0.5359
  215loPI   C1B 3437   9.521  14.546   9.391 -0.0050 -0.1691  0.1057
  215loPI   C2B 3438   9.439  14.686   8.991  0.2404  0.0745  0.0574
  215loPI   C3B 3439   9.483  14.878   8.564  0.0611  0.2224  0.1546
  215loPI   C4B 3440   9.432  14.913   8.060  0.1703 -0.4145  0.0088
  216loPI    C1 3441   7.637  16.156  10.030  0.0621 -0.0105  0.0615
  216loPI    C2 3442   7.332  16.190  10.286  0.0700  0.0024  0.0692
  216loPI    C3 3443   7.523  16.517  10.157 -0.0509  0.0095 -0.0937
  216loPI   PO4 3444   7.676  15.863   9.970  0.1159 -0.0114  0.1761
  216loPI   GL1 3445   7.707  15.780   9.537 -0.2156  0.1033  0.1345
  216loPI   GL2 3446   7.930  15.985   9.514  0.2097 -0.2007 -0.2516
  216loPI   C1A 3447   7.524  15.847   9.065  0.0304 -0.3934  0.1327
  216loPI   C2A 3448   7.543  15.798   8.636  0.2919  0.0003  0.1893
  216loPI   C3A 3449   7.552  15.609   8.279 -0.0662 -0.1110 -0.0970
  216loPI   C4A 3450   7.527  15.534   7.791 -0.0434 -0.1503 -0.0159
  216loPI   C5A 3451   7.263  15.578   7.447 -0.0488  0.1824 -0.2172
  216loPI   C6A 3452   7.460  15.880   7.248  0.1542  0.1144 -0.0667
  216loPI   C1B 3453   8.000  15.945   9.085  0.0700  0.2976  0.4044
  216loPI   C2B 3454   8.045  15.995   8.599  0.1257 -0.1420  0.2960
  216loPI   C3B 3455   8.058  16.417   8.286  0.4480  0.0725  0.0616
  216loPI   C4B 3456   7.888  16.725   8.246 -0.1549 -0.1561  0.0005
  217loPI    C1 3457  14.599  18.358  10.538  0.2202 -0.1848 -0.0056
  217loPI    C2 3458  14.666  18.744  10.621  0.1331 -0.1741  0.0158
  217loPI    C3 3459  14.963  18.478  10.653  0.2540 -0.0710 -0.2272
  217loPI   PO4 3460  14.525  18.364  10.252 -0.1024 -0.5752 -0.0305
  217loPI   GL1 3461  14.262  18.325   9.897 -0.0550  0.0347  0.0361
  217loPI   GL2 3462  14.300  18.671   9.821  0.1170 -0.0040 -0.4405
  217loPI   C1A 3463  14.325  18.235   9.470 -0.1854 -0.0404 -0.2421
  217loPI   C2A 3464  14.120  17.973   9.168 -0.0218 -0.1969 -0.2195
  217loPI   C3A 3465  14.036  17.612   8.969  0.0013  0.6335 -0.0081
  217loPI   C4A 3466  13.983  17.461   8.575  0.3680 -0.0885 -0.0956
  217loPI   C5A 3467  14.095  17.368   8.177 -0.3815 -0.0340 -0.2146
  217loPI   C6A 3468  14.399  17.131   8.101 -0.1033 -0.0291 -0.1861
  217loPI   C1B 3469  14.507  18.697   9.462  0.3547 -0.1076  0.1587
  217loPI   C2B 3470  14.740  18.895   9.181  0.3374 -0.0885 -0.3179
  217loPI   C3B 3471  14.746  18.894   8.702  0.2100 -0.2037 -0.0698
  217loPI   C4B 3472  14.951  18.769   8.333 -0.0420  0.1074 -0.0522
  218loPI    C1 3473   1.966   8.055  10.166  0.2802  0.0124 -0.1151
  218loPI    C2 3474   2.297   7.941  10.358  0.0606 -0.1202  0.1942
  218loPI    C3 3475   2.152   8.310  10.411  0.1618 -0.0588  0.0509
  218loPI   PO4 3476   1.973   7.970   9.931  0.1598  0.0419 -0.0479
  218loPI   GL1 3477   1.714   7.793   9.579  0.0290 -0.0636 -0.0823
  218loPI   GL2 3478   1.569   8.095   9.438 -0.0202 -0.1014 -0.3747
  218loPI   C1A 3479   1.441   7.671   9.169 -0.0958 -0.0377 -0.0444
  218loPI   C2A 3480   1.412   7.407   8.795 -0.1794 -0.1475  0.1849
  218loPI   C3A 3481   1.601   7.465   8.315  0.0054 -0.5202  0.0332
  218loPI   C4A 3482   1.917   7.634   7.975  0.3416  0.1756  0.3297
  218loPI   C5A 3483   2.261   7.781   7.854  0.1303 -0.2849  0.0230
  218loPI   C6A 3484   2.580   7.774   7.851 -0.1173  0.1854 -0.0527
  218loPI   C1B 3485   1.686   8.144   9.060 -0.2713 -0.2567 -0.1421
  218loPI   C2B 3486   1.960   8.235   8.730  0.1451 -0.1097  0.0702
  218loPI   C3B 3487   1.901   8.531   8.493  0.0655  0.2004  0.2331
  218loPI   C4B 3488   1.721   8.653   8.115 -0.2279 -0.0070 -0.1034
  219loPI    C1 3489   0.496  16.429  10.454 -0.0753  0.0977 -0.0989
  219loPI    C2 3490   0.125  16.578  10.472 -0.0912  0.0360  0.1175
  219loPI    C3 3491   0.211  16.234  10.656  0.0677  0.0362  0.0461
  219loPI   PO4 3492   0.543  16.635  10.188 -0.3990  0.2720  0.0101
  219loPI   GL1 3493   0.369  16.633   9.809  0.4354  0.1853 -0.1924
  219loPI   GL2 3494   0.617  16.611   9.576  0.0191 -0.2289 -0.1924
  219loPI   C1A 3495   0.256  16.388   9.404  0.0020  0.2733  0.3911
  219loPI   C2A 3496   0.127  16.270   8.902 -0.0898  0.2800  0.0063
  219loPI   C3A 3497  -0.211  16.106   8.681 -0.1502  0.0707  0.0614
  219loPI   C4A 3498  -0.437  16.164   8.362  0.1788 -0.1179  0.0196
  219loPI   C5A 3499  -0.292  16.367   7.927  0.1093 -0.1809 -0.1048
  219loPI   C6A 3500  -0.289  16.248   7.494 -0.5481 -0.2232 -0.0007
  219loPI   C1B 3501   0.666  16.494   9.098  0.2600 -0.1682  0.1226
  219loPI   C2B 3502   0.810  16.624   8.746 -0.2710 -0.3110 -0.1953
  219loPI   C3B 3503   0.880  16.556   8.368 -0.2936  0.2354 -0.2451
  219loPI   C4B 3504   0.863  16.435   7.980 -0.1826  0.2591 -0.2551
  220loPI    C1 3505  18.518   5.817  10.533  0.1756  0.0106 -0.1575
  220loPI    C2 3506  18.685   5.458  10.480  0.1839 -0.0187  0.0576
  220loPI    C3 3507  18.449   5.524  10.796  0.2465  0.1882  0.0626
  220loPI   PO4 3508  18.610   5.923  10.341  0.0093 -0.1335  0.2237
  220loPI   GL1 3509  18.774   5.768   9.891  0.1624 -0.2986  0.1949
  220loPI   GL2 3510  18.632   6.047   9.883 -0.2536  0.0856  0.1440
  220loPI   C1A 3511  18.817   5.739   9.449  0.0704 -0.0615  0.4183
  220loPI   C2A 3512  18.940   5.549   9.142  0.0512 -0.2152 -0.0527
  220loPI   C3A 3513  18.850   5.613   8.656  0.1995 -0.2422 -0.4086
  220loPI   C4A 3514  18.861   5.835   8.287 -0.2817 -0.2303 -0.2573
  220loPI   C5A 3515  18.946   6.090   7.970  0.1069  0.2514 -0.1219
  220loPI   C6A 3516  18.974   6.343   7.745 -0.0774 -0.2116  0.0546
  220loPI   C1B 3517  18.363   5.999   9.521  0.2001  0.2099  0.0016
  220loPI   C2B 3518  18.490   5.855   9.100  0.1824 -0.0766 -0.1261
  220loPI   C3B 3519  18.393   5.902   8.653 -0.0237 -0.0059 -0.1245
  220loPI   C4B 3520  18.334   5.799   8.231  0.1711 -0.3297 -0.3727
  221loPI    C1 3521  13.389  16.492  10.530  0.1500  0.1477 -0.3190
  221loPI    C2 3522  13.758  16.570  10.665  0.0738 -0.1049  0.0512
  221loPI    C3 3523  13.453  16.806  10.770  0.0389 -0.2175  0.2068
  221loPI   PO4 3524  13.344  16.452  10.274  0.0863  0.0658 -0.1862
  221loPI   GL1 3525  13.462  16.697   9.937  0.0695 -0.0950 -0.1770
  221loPI   GL2 3526  13.207  16.523   9.777 -0.1539  0.0505  0.3303
  221loPI   C1A 3527  13.720  16.389   9.673  0.1491  0.2396 -0.2596
  221loPI   C2A 3528  13.685  16.221   9.210  0.0909  0.3321 -0.1728
  221loPI   C3A 3529  13.712  16.306   8.871  0.3709 -0.2817  0.1300
  221loPI   C4A 3530  13.838  16.180   8.447 -0.0661  0.4181 -0.2303
  221loPI   C5A 3531  13.891  15.911   8.077  0.0935 -0.0848  0.1542
  221loPI   C6A 3532  13.834  15.489   8.105 -0.1113  0.0941 -0.3747
  221loPI   C1B 3533  13.177  16.506   9.305  0.1003 -0.2649 -0.3750
  221loPI   C2B 3534  13.130  16.526   8.865  0.0073  0.0732 -0.4996
  221loPI   C3B 3535  13.033  16.406   8.486 -0.1497  0.0642  0.0162
  221loPI   C4B 3536  12.833  16.184   8.079 -0.0202 -0.3741 -0.0518
  222loPI    C1 3537   5.223  10.705   9.943  0.1124 -0.0091  0.0150
  222loPI    C2 3538   4.836  10.804   9.920  0.0487 -0.1708  0.3331
  222loPI    C3 3539   5.117  11.078   9.843 -0.1253 -0.0985 -0.0744
  222loPI   PO4 3540   5.270  10.494   9.731  0.0323  0.0216  0.0668
  222loPI   GL1 3541   5.139  10.618   9.348 -0.3243 -0.1299  0.1380
  222loPI   GL2 3542   5.127  10.814   9.188  0.2444  0.1601 -0.0409
  222loPI   C1A 3543   5.492  10.507   9.127 -0.0406  0.2137  0.1073
  222loPI   C2A 3544   5.685  10.316   8.693  0.1848 -0.2908 -0.0076
  222loPI   C3A 3545   5.593  10.416   8.317 -0.0010  0.1337  0.1184
  222loPI   C4A 3546   5.635  10.471   7.854  0.0561  0.1751 -0.0235
  222loPI   C5A 3547   5.813  10.247   7.483 -0.0843 -0.2579 -0.3508
  222loPI   C6A 3548   5.975  10.432   7.110 -0.2249 -0.2154  0.0838
  222loPI   C1B 3549   5.135  10.618   8.761  0.1126  0.2844  0.0755
  222loPI   C2B 3550   5.133  10.648   8.339 -0.4084 -0.3054  0.1867
  222loPI   C3B 3551   5.064  10.549   7.917 -0.0544  0.1535  0.4020
  222loPI   C4B 3552   5.133  10.467   7.493  0.1385 -0.4189 -0.0355
  223loPI    C1 3553   0.356  18.039   9.967 -0.0414  0.0478 -0.1003
  223loPI    C2 3554   0.454  18.262  10.284  0.2440  0.0090 -0.1583
  223loPI    C3 3555   0.612  17.897  10.239 -0.1687 -0.1832 -0.0978
  223loPI   PO4 3556   0.322  18.226   9.803 -0.0671  0.1832  0.4135
  223loPI   GL1 3557   0.292  18.422   9.532  0.1457 -0.1339  0.1244
  223loPI   GL2 3558   0.667  18.587   9.454 -0.2807  0.2759 -0.3575
  223loPI   C1A 3559  -0.112  18.493   9.246  0.2611  0.0045 -0.2183
  223loPI   C2A 3560  -0.386  18.318   8.843 -0.0667 -0.0912 -0.1706
  223loPI   C3A 3561  -0.596  18.569   8.454 -0.0377  0.3877  0.0430
  223loPI   C4A 3562  -0.692  18.942   8.180 -0.3597 -0.0879  0.3400
  223loPI   C5A 3563  -0.395  19.131   7.871  0.0876 -0.2153  0.0654
  223loPI   C6A 3564   0.127  19.155   7.809  0.5500 -0.2131  0.0430
  223loPI   C1B 3565   0.828  18.574   9.030 -0.0354  0.0278 -0.3997
  223loPI   C2B 3566   0.912  18.647   8.651 -0.3307 -0.0211 -0.1065
  223loPI   C3B 3567   0.785  18.636   8.214  0.0112  0.1413  0.0880
  223loPI   C4B 3568   0.586  18.736   7.804 -0.0998 -0.2839  0.0935
  224loPI    C1 3569   3.780  14.167   9.926 -0.2334  0.2112 -0.2058
  224loPI    C2 3570   3.502  14.198  10.212 -0.0815 -0.1118 -0.0171
  224loPI    C3 3571   3.881  14.295  10.292 -0.0719 -0.0238 -0.1660
  224loPI   PO4 3572   3.631  14.066   9.726  0.1929 -0.0235 -0.1711
  224loPI   GL1 3573   3.815  13.906   9.356 -0.0320 -0.3765 -0.0843
  224loPI   GL2 3574   3.911  13.563   9.232  0.3526 -0.0874 -0.3510
  224loPI   C1A 3575   3.458  13.789   9.026 -0.0463 -0.1071  0.1154
  224loPI   C2A 3576   3.171  13.696   8.698  0.2193  0.0412 -0.1984
  224loPI   C3A 3577   2.999  13.656   8.351 -0.2237 -0.1578  0.0431
  224loPI   C4A 3578   2.733  13.814   7.812 -0.0368 -0.1567  0.2380
  224loPI   C5A 3579   2.785  13.979   7.365 -0.0533  0.0625 -0.0149
  224loPI   C6A 3580   2.964  14.268   7.020  0.0682 -0.0209  0.0307
  224loPI   C1B 3581   3.871  13.650   8.752  0.2629 -0.1310 -0.1512
  224loPI   C2B 3582   3.994  13.834   8.324  0.0125  0.1579 -0.0586
  224loPI   C3B 3583   4.172  13.779   7.945 -0.0030 -0.1008 -0.1875
  224loPI   C4B 3584   4.081  14.092   7.509 -0.1825  0.0154  0.4015
  225loPI    C1 3585   1.315   0.667  10.269  0.0588 -0.2179 -0.0015
  225loPI    C2 3586   1.193   0.582  10.640 -0.3360  0.1549 -0.0386
  225loPI    C3 3587   1.492   0.841  10.583 -0.0958 -0.1039  0.0235
  225loPI   PO4 3588   1.085   0.650  10.071 -0.1475 -0.0505 -0.0772
  225loPI   GL1 3589   0.830   0.808   9.678 -0.3056  0.1944 -0.2430
  225loPI   GL2 3590   0.554   0.890   9.732 -0.1565  0.1050  0.1672
  225loPI   C1A 3591   0.883   0.756   9.227 -0.2542 -0.0357  0.2773
  225loPI   C2A 3592   0.800   0.954   9.013 -0.0677  0.0664  0.0937
  225loPI   C3A 3593   0.775   0.862   8.534 -0.0853 -0.1487 -0.0084
  225loPI   C4A 3594   0.525   1.050   8.254  0.1379 -0.1015  0.0389
  225loPI   C5A 3595   0.608   1.349   7.922  0.0031 -0.3127 -0.0680
  225loPI   C6A 3596   0.635   1.852   7.814  0.0825  0.2848  0.0342
  225loPI   C1B 3597   0.387   1.076   9.356 -0.5240 -0.2918  0.0226
  225loPI   C2B 3598   0.123   0.971   8.894  0.0832 -0.0478 -0.1309
  225loPI   C3B 3599  -0.115   0.771   8.616 -0.1110  0.2616 -0.2486
  225loPI   C4B 3600  -0.376   0.836   8.401  0.1347 -0.4256  0.3150
  226loPI    C1 3601  18.431  14.716  10.589 -0.0003 -0.2368 -0.0957
  226loPI    C2 3602  18.341  14.459  10.881 -0.0324 -0.0110  0.0966
  226loPI    C3 3603  18.089  14.756  10.792 -0.0234 -0.0795 -0.1642
  226loPI   PO4 3604  18.462  14.530  10.414  0.0022 -0.0270  0.0437
  226loPI   GL1 3605  18.515  14.519   9.938 -0.0658  0.0646 -0.0140
  226loPI   GL2 3606  18.440  14.259   9.820  0.2273  0.1113 -0.2850
  226loPI   C1A 3607  18.376  14.738   9.576 -0.2980 -0.1691  0.1187
  226loPI   C2A 3608  18.466  14.820   9.134  0.3107 -0.2244  0.0346
  226loPI   C3A 3609  18.558  14.727   8.771  0.2107  0.2330 -0.2906
  226loPI   C4A 3610  18.324  14.644   8.409 -0.1834 -0.2280  0.1055
  226loPI   C5A 3611  18.493  14.464   8.040 -0.2008  0.1074 -0.2698
  226loPI   C6A 3612  18.707  14.053   8.003 -0.1052  0.1617 -0.1328
  226loPI   C1B 3613  18.436  14.072   9.459 -0.1865  0.0949 -0.2654
  226loPI   C2B 3614  18.082  13.953   9.176 -0.3337 -0.4902  0.3687
  226loPI   C3B 3615  18.017  13.559   9.004  0.3348  0.1242  0.0058
  226loPI   C4B 3616  18.083  13.075   8.862 -0.1312  0.2545 -0.2302
  227loPI    C1 3617   8.701  16.388  10.404 -0.2640 -0.2098 -0.0143
  227loPI    C2 3618   8.445  16.541  10.671 -0.0594  0.3497 -0.1249
  227loPI    C3 3619   8.832  16.640  10.685  0.0917 -0.1969 -0.1868
  227loPI   PO4 3620   8.511  16.336  10.202 -0.3643  0.0636  0.1877
  227loPI   GL1 3621   8.392  16.365   9.722 -0.2168  0.0816  0.2680
  227loPI   GL2 3622   8.610  16.474   9.561 -0.0584 -0.1468  0.1320
  227loPI   C1A 3623   8.316  16.176   9.349 -0.1684  0.0156  0.5108
  227loPI   C2A 3624   8.464  16.120   8.982 -0.1121 -0.1284 -0.3410
  227loPI   C3A 3625   8.598  15.942   8.641 -0.3650 -0.0768 -0.1162
  227loPI   C4A 3626   8.433  15.605   8.294  0.0918 -0.1549  0.2246
  227loPI   C5A 3627   8.216  15.734   7.933 -0.3812  0.2142  0.1737
  227loPI   C6A 3628   7.943  15.948   7.896  0.0205  0.3061 -0.1807
  227loPI   C1B 3629   8.664  16.515   9.269  0.3543 -0.0911 -0.1357
  227loPI   C2B 3630   8.618  16.529   8.788 -0.1089 -0.4875 -0.0532
  227loPI   C3B 3631   8.511  16.393   8.399 -0.0399  0.1898 -0.0980
  227loPI   C4B 3632   8.409  16.094   8.187 -0.2975 -0.1903 -0.0849
  228loPI    C1 3633   6.310   2.137   9.904  0.1398  0.2233  0.0629
  228loPI    C2 3634   6.328   2.520   9.789 -0.1616  0.1073 -0.3992
  228loPI    C3 3635   5.991   2.374   9.948  0.0222  0.0818 -0.0200
  228loPI   PO4 3636   6.462   2.016   9.588  0.2605 -0.0809  0.1714
  228loPI   GL1 3637   6.492   2.134   9.101 -0.0036  0.1863 -0.1336
  228loPI   GL2 3638   6.832   2.028   9.053 -0.2609  0.0615  0.0165
  228loPI   C1A 3639   6.571   1.955   8.647  0.2611  0.0473  0.2612
  228loPI   C2A 3640   6.531   1.965   8.198 -0.0285  0.0287  0.0496
  228loPI   C3A 3641   6.582   1.936   7.843 -0.0312 -0.1774  0.1845
  228loPI   C4A 3642   6.545   1.769   7.399  0.0259  0.1185  0.0832
  228loPI   C5A 3643   6.320   1.414   7.322  0.1136  0.0271  0.1463
  228loPI   C6A 3644   6.003   1.103   7.251  0.1349 -0.1917 -0.2175
  228loPI   C1B 3645   7.117   2.183   8.729  0.1219 -0.1865  0.1874
  228loPI   C2B 3646   7.487   2.301   8.459  0.1875 -0.5561  0.1052
  228loPI   C3B 3647   7.436   2.565   8.085 -0.0732  0.1605 -0.0646
  228loPI   C4B 3648   7.418   2.552   7.644  0.0593  0.1889  0.0093
  229loPI    C1 3649   8.078  16.503  10.193 -0.1213 -0.2150 -0.0505
  229loPI    C2 3650   7.869  16.594  10.522 -0.1512 -0.1848 -0.0778
  229loPI    C3 3651   7.928  16.211  10.422  0.1658 -0.2015  0.1592
  229loPI   PO4 3652   8.016  16.676  10.023  0.0958 -0.0269 -0.2501
  229loPI   GL1 3653   7.730  16.711   9.650  0.1587  0.2757  0.0315
  229loPI   GL2 3654   7.958  16.508   9.559 -0.2771 -0.0449 -0.0634
  229loPI   C1A 3655   7.757  16.940   9.282  0.0361 -0.2790 -0.2033
  229loPI   C2A 3656   7.532  17.056   8.916  0.0615 -0.2294 -0.2317
  229loPI   C3A 3657   7.679  17.139   8.506 -0.0416  0.4612  0.0098
  229loPI   C4A 3658   7.786  17.214   8.013  0.0769  0.0965  0.0904
  229loPI   C5A 3659   8.052  17.417   7.593  0.3716 -0.1611 -0.0219
  229loPI   C6A 3660   8.328  17.740   7.601  0.0639  0.0373  0.1711
  229loPI   C1B 3661   8.081  16.605   9.089  0.0413 -0.1403 -0.1586
  229loPI   C2B 3662   8.047  16.750   8.727  0.2984  0.0790  0.0435
  229loPI   C3B 3663   8.232  16.994   8.435 -0.1824 -0.4828  0.1140
  229loPI   C4B 3664   8.577  16.898   8.183 -0.1048 -0.1555 -0.0036
  230loPI    C1 3665   3.294  12.021   9.814 -0.3487  0.1470  0.2767
  230loPI    C2 3666   3.568  11.821  10.025 -0.1066  0.1332 -0.0429
  230loPI    C3 3667   3.492  12.205  10.108 -0.1098  0.0908  0.1538
  230loPI   PO4 3668   3.432  12.000   9.548  0.0047  0.2568  0.2655
  230loPI   GL1 3669   3.750  11.661   9.424  0.2206  0.2609  0.1112
  230loPI   GL2 3670   4.077  11.857   9.378  0.1300 -0.1398  0.0726
  230loPI   C1A 3671   3.592  11.791   8.936  0.0939 -0.3918 -0.0531
  230loPI   C2A 3672   3.540  11.785   8.544 -0.3949 -0.0561  0.0936
  230loPI   C3A 3673   3.641  11.837   8.132 -0.1907  0.2987 -0.0011
  230loPI   C4A 3674   3.508  11.805   7.657 -0.0856  0.4933 -0.0107
  230loPI   C5A 3675   3.113  11.871   7.377 -0.0391 -0.0282  0.0139
  230loPI   C6A 3676   2.850  11.586   7.318  0.2233  0.1766 -0.1990
  230loPI   C1B 3677   3.950  12.113   9.067  0.2403 -0.4320  0.0150
  230loPI   C2B 3678   3.592  12.297   8.888  0.1377  0.0850  0.0541
  230loPI   C3B 3679   3.447  12.294   8.364  0.2184 -0.0496  0.4530
  230loPI   C4B 3680   3.300  12.221   7.845 -0.0356  0.1525 -0.4269
  231loPI    C1 3681  16.627   8.824  10.548 -0.0849  0.1575 -0.1336
  231loPI    C2 3682  16.322   8.604  10.683 -0.0205  0.0676 -0.1334
  231loPI    C3 3683  16.510   8.857  10.929 -0.2160  0.2629 -0.1824
  231loPI   PO4 3684  16.559   8.952  10.382  0.2567 -0.0378  0.2601
  231loPI   GL1 3685  16.755   9.222  10.022 -0.2560 -0.1044  0.2486
  231loPI   GL2 3686  17.158   9.208   9.869 -0.2879 -0.0574  0.0875
  231loPI   C1A 3687  16.762   9.137   9.555  0.0828 -0.2219 -0.2798
  231loPI   C2A 3688  16.628   9.204   9.193  0.0294 -0.0308 -0.0467
  231loPI   C3A 3689  16.567   9.326   8.879 -0.3162 -0.0573  0.0440
  231loPI   C4A 3690  16.551   9.528   8.571 -0.0053  0.1575  0.2127
  231loPI   C5A 3691  16.296   9.593   8.346 -0.0222 -0.1695  0.2274
  231loPI   C6A 3692  16.070   9.882   8.103  0.0279 -0.0924 -0.2003
  231loPI   C1B 3693  16.957   9.636   9.682  0.0969 -0.1049  0.3087
  231loPI   C2B 3694  17.004   9.958   9.358 -0.1914 -0.0509 -0.1568
  231loPI   C3B 3695  17.108  10.111   8.982  0.0192  0.0926 -0.0125
  231loPI   C4B 3696  17.214  10.149   8.623 -0.0896 -0.6524 -0.0934
  232loPI    C1 3697   3.251  13.416   9.832 -0.1700  0.2251 -0.0896
  232loPI    C2 3698   3.201  13.457  10.227  0.1196  0.2096 -0.0493
  232loPI    C3 3699   3.395  13.739  10.020 -0.1573  0.2885 -0.2071
  232loPI   PO4 3700   2.923  13.337   9.781 -0.0305 -0.0822 -0.0182
  232loPI   GL1 3701   2.829  13.186   9.468  0.0387 -0.2886  0.2215
  232loPI   GL2 3702   3.071  12.983   9.452  0.2489  0.1390 -0.0631
  232loPI   C1A 3703   2.743  13.356   9.043  0.0504 -0.2603 -0.0766
  232loPI   C2A 3704   2.669  13.516   8.744  0.0927 -0.2472 -0.0744
  232loPI   C3A 3705   2.560  13.512   8.233  0.1640  0.1212 -0.3743
  232loPI   C4A 3706   2.474  13.336   7.906  0.0241 -0.1562  0.0019
  232loPI   C5A 3707   2.813  13.182   7.605  0.1935 -0.0295 -0.1185
  232loPI   C6A 3708   3.264  13.076   7.616 -0.1587 -0.3264 -0.0250
  232loPI   C1B 3709   3.020  12.831   8.970 -0.0109  0.2492 -0.1681
  232loPI   C2B 3710   2.755  12.876   8.599 -0.1957  0.1489 -0.1826
  232loPI   C3B 3711   2.749  13.090   8.251 -0.2797  0.2739 -0.0148
  232loPI   C4B 3712   2.987  13.272   8.019 -0.2063 -0.0921 -0.1501
  233loPI    C1 3713   7.527   2.364   9.773 -0.0618  0.0026 -0.1474
  233loPI    C2 3714   7.248   2.233  10.028 -0.1849  0.2572 -0.1480
  233loPI    C3 3715   7.565   2.435  10.165 -0.0663  0.0824 -0.1613
  233loPI   PO4 3716   7.420   2.555   9.581  0.4147  0.0613  0.0938
  233loPI   GL1 3717   7.307   2.702   9.145  0.2309  0.1122 -0.3152
  233loPI   GL2 3718   7.412   2.994   9.337 -0.1130 -0.0977 -0.1058
  233loPI   C1A 3719   7.343   2.653   8.745  0.1818 -0.0944  0.1702
  233loPI   C2A 3720   7.093   2.643   8.431 -0.0594 -0.1804 -0.1269
  233loPI   C3A 3721   6.885   2.788   8.131  0.0847 -0.0654  0.0502
  233loPI   C4A 3722   6.924   3.104   7.848  0.0735  0.0792  0.0919
  233loPI   C5A 3723   6.975   3.465   7.650  0.0258  0.2575  0.0198
  233loPI   C6A 3724   6.972   3.787   7.255  0.0292  0.0087 -0.0841
  233loPI   C1B 3725   7.354   3.185   8.791  0.2084  0.0586  0.2237
  233loPI   C2B 3726   7.315   3.082   8.362  0.0060  0.1052  0.1075
  233loPI   C3B 3727   7.454   3.026   7.954 -0.1261  0.1005  0.3761
  233loPI   C4B 3728   7.223   2.962   7.459  0.2137  0.2236  0.0598
  234loPI    C1 3729  15.482  10.970  11.163  0.1335 -0.0213 -0.0875
  234loPI    C2 3730  15.110  10.822  11.172  0.1137  0.0190 -0.2218
  234loPI    C3 3731  15.374  10.717  11.454 -0.0964  0.2497  0.0679
  234loPI   PO4 3732  15.636  10.866  10.871  0.0152  0.1034 -0.0312
  234loPI   GL1 3733  15.985  10.883  10.416  0.1286  0.0899  0.4220
  234loPI   GL2 3734  15.939  10.643  10.100 -0.2909  0.1947 -0.1131
  234loPI   C1A 3735  15.906  11.091   9.987 -0.1092 -0.0305  0.3541
  234loPI   C2A 3736  15.988  11.072   9.604  0.1617 -0.1817  0.4678
  234loPI   C3A 3737  16.003  11.001   9.065 -0.0687  0.2443 -0.1231
  234loPI   C4A 3738  15.957  11.067   8.712 -0.1724  0.0334  0.1393
  234loPI   C5A 3739  16.222  11.325   8.463  0.3171  0.3648 -0.1647
  234loPI   C6A 3740  16.591  11.530   8.186  0.1562 -0.2305 -0.0877
  234loPI   C1B 3741  15.835  10.604   9.703 -0.1101  0.0986 -0.0732
  234loPI   C2B 3742  15.735  10.556   9.278  0.3659  0.0566  0.0553
  234loPI   C3B 3743  15.772  10.533   8.787  0.0068  0.0765  0.0932
  234loPI   C4B 3744  15.879  10.640   8.348  0.0569  0.1208  0.1814
  235loPI    C1 3745  15.044  12.590  10.373  0.0964  0.2906  0.2263
  235loPI    C2 3746  15.382  12.759  10.239  0.0357  0.0321 -0.2789
  235loPI    C3 3747  15.031  12.942  10.183  0.0469  0.0991 -0.1346
  235loPI   PO4 3748  15.099  12.353  10.343  0.4696  0.0501  0.1741
  235loPI   GL1 3749  15.259  12.122  10.088  0.0078  0.2384 -0.0528
  235loPI   GL2 3750  15.582  12.291  10.011 -0.1864 -0.2238  0.2013
  235loPI   C1A 3751  15.086  12.080   9.636 -0.0756 -0.1364 -0.0277
  235loPI   C2A 3752  15.089  12.043   9.197 -0.0001 -0.0995  0.2144
  235loPI   C3A 3753  15.039  11.834   8.927  0.2126  0.1714 -0.1949
  235loPI   C4A 3754  14.910  11.928   8.396  0.0260 -0.0121  0.0238
  235loPI   C5A 3755  14.733  12.037   7.977  0.2427 -0.0376 -0.0507
  235loPI   C6A 3756  14.624  12.155   7.552 -0.0892  0.1722  0.3496
  235loPI   C1B 3757  15.521  12.331   9.524 -0.1920 -0.1316  0.0774
  235loPI   C2B 3758  15.709  12.402   9.090 -0.1030 -0.0775 -0.1955
  235loPI   C3B 3759  15.686  12.525   8.719 -0.2919  0.0412 -0.0060
  235loPI   C4B 3760  15.449  12.936   8.469  0.1849 -0.0119 -0.1774
  236loPI    C1 3761  12.414   7.648  10.761  0.0901 -0.0084  0.0241
  236loPI    C2 3762  12.730   7.439  10.889  0.1644  0.1759  0.1456
  236loPI    C3 3763  12.409   7.480  11.124  0.1026  0.1002  0.0751
  236loPI   PO4 3764  12.314   7.558  10.568 -0.0262  0.0392  0.1113
  236loPI   GL1 3765  12.246   7.660  10.234  0.1027 -0.0777 -0.0404
  236loPI   GL2 3766  12.489   7.876  10.001 -0.1152 -0.3734 -0.0535
  236loPI   C1A 3767  12.151   7.513   9.796  0.0566  0.3210  0.0365
  236loPI   C2A 3768  12.129   7.379   9.357  0.1355  0.1344 -0.5087
  236loPI   C3A 3769  12.053   7.543   8.906 -0.1760  0.0588  0.1193
  236loPI   C4A 3770  12.061   7.628   8.426  0.1965  0.2897  0.1537
  236loPI   C5A 3771  11.972   7.627   7.972  0.0974  0.0322  0.0310
  236loPI   C6A 3772  12.074   7.301   7.627 -0.0178 -0.0757  0.0591
  236loPI   C1B 3773  12.515   7.745   9.516  0.1080 -0.3855 -0.4237
  236loPI   C2B 3774  12.419   7.866   9.128 -0.2607 -0.0360  0.0553
  236loPI   C3B 3775  12.525   7.688   8.826  0.2277 -0.0572 -0.1285
  236loPI   C4B 3776  12.457   7.343   8.498  0.0281 -0.2326 -0.1195
  237loPI    C1 3777  13.791   1.315   9.929 -0.3569  0.0099  0.1293
  237loPI    C2 3778  13.866   1.100  10.258  0.1660  0.0179  0.0229
  237loPI    C3 3779  13.845   1.499  10.280 -0.1235  0.0008  0.0993
  237loPI   PO4 3780  13.992   1.200   9.785 -0.1114 -0.1225 -0.1482
  237loPI   GL1 3781  14.309   1.366   9.483  0.2912 -0.0723  0.0039
  237loPI   GL2 3782  14.194   1.079   9.317  0.2476 -0.3237  0.1354
  237loPI   C1A 3783  14.450   1.395   9.068 -0.1382  0.2106  0.0247
  237loPI   C2A 3784  14.340   1.615   8.549  0.1761  0.0701  0.0762
  237loPI   C3A 3785  14.283   1.746   8.127  0.1403 -0.2642  0.0251
  237loPI   C4A 3786  13.956   1.426   7.846 -0.1038  0.0889  0.1575
  237loPI   C5A 3787  13.574   1.184   7.671  0.2404  0.0593  0.1860
  237loPI   C6A 3788  13.166   1.075   7.656 -0.0173  0.0315  0.0910
  237loPI   C1B 3789  14.334   0.908   8.979  0.2316  0.1417  0.0533
  237loPI   C2B 3790  14.315   0.699   8.610 -0.2348 -0.1659  0.1917
  237loPI   C3B 3791  14.276   0.789   8.300  0.1523  0.0456 -0.0913
  237loPI   C4B 3792  14.485   0.797   7.890  0.1673 -0.3318  0.2644
  238loPI    C1 3793   4.152   8.863  10.041  0.1997  0.0428 -0.0580
  238loPI    C2 3794   4.176   8.504   9.865  0.1459  0.0463 -0.0729
  238loPI    C3 3795   4.164   8.531  10.264 -0.2082  0.0093 -0.0777
  238loPI   PO4 3796   4.036   8.978   9.906 -0.1867  0.0193  0.4181
  238loPI   GL1 3797   4.141   8.981   9.404  0.0346 -0.2335 -0.1592
  238loPI   GL2 3798   3.788   8.878   9.394 -0.1576  0.0130 -0.0834
  238loPI   C1A 3799   4.085   9.082   8.902 -0.1456 -0.3009  0.0515
  238loPI   C2A 3800   4.133   8.724   8.472 -0.2101 -0.3908 -0.1008
  238loPI   C3A 3801   4.108   8.562   8.056 -0.0857  0.1355  0.4196
  238loPI   C4A 3802   3.933   8.686   7.668 -0.2954  0.1418  0.1044
  238loPI   C5A 3803   4.063   8.859   7.330 -0.0255 -0.0802 -0.1945
  238loPI   C6A 3804   4.343   8.820   7.111 -0.1562  0.0463 -0.0351
  238loPI   C1B 3805   3.701   8.760   8.962  0.0241 -0.0074 -0.2358
  238loPI   C2B 3806   3.546   8.787   8.517 -0.3179  0.0225  0.2274
  238loPI   C3B 3807   3.619   8.772   8.054  0.5895  0.3103 -0.1715
  238loPI   C4B 3808   3.235   9.064   7.822  0.2439 -0.1892  0.1532
  239loPI    C1 3809   1.692   0.976  10.041  0.0867  0.1283 -0.0524
  239loPI    C2 3810   1.956   1.274  10.001  0.1755  0.0799  0.1580
  239loPI    C3 3811   1.712   1.263  10.318 -0.1137  0.1482 -0.0573
  239loPI   PO4 3812   1.502   0.796   9.749  0.1124  0.1975  0.3071
  239loPI   GL1 3813   1.525   0.396   9.683 -0.0375  0.0260 -0.0962
  239loPI   GL2 3814   1.189   0.392   9.677  0.0343  0.2234 -0.0478
  239loPI   C1A 3815   1.791   0.333   9.340 -0.0660 -0.0942 -0.0531
  239loPI   C2A 3816   1.815   0.121   8.930  0.1431  0.0146  0.1869
  239loPI   C3A 3817   2.229   0.373   8.730 -0.2575 -0.0521 -0.3666
  239loPI   C4A 3818   2.234   0.505   8.292 -0.0263 -0.0301  0.2234
  239loPI   C5A 3819   2.139   0.458   7.899  0.0105  0.0620 -0.0846
  239loPI   C6A 3820   2.180   0.654   7.530  0.3850 -0.1033  0.3979
  239loPI   C1B 3821   1.287   0.481   9.187  0.0566 -0.2083 -0.5080
  239loPI   C2B 3822   1.190   0.764   8.829  0.0104 -0.0032 -0.0785
  239loPI   C3B 3823   1.316   0.642   8.441 -0.1218 -0.0826 -0.3033
  239loPI   C4B 3824   1.332   0.946   8.195  0.0176 -0.4243  0.3153
  240loPI    C1 3825  14.771   3.426  10.092 -0.1349 -0.0958  0.2142
  240loPI    C2 3826  14.831   3.301  10.467  0.2869  0.2013  0.2530
  240loPI    C3 3827  14.819   3.693  10.386  0.3372  0.1398 -0.0643
  240loPI   PO4 3828  14.686   3.193   9.966  0.0586 -0.0460 -0.1735
  240loPI   GL1 3829  14.765   3.085   9.564 -0.0191 -0.1366  0.0123
  240loPI   GL2 3830  15.098   3.081   9.263 -0.0954 -0.3192  0.2737
  240loPI   C1A 3831  14.631   3.199   9.145 -0.2713 -0.2614  0.0639
  240loPI   C2A 3832  14.597   3.172   8.698  0.3082 -0.1661  0.0620
  240loPI   C3A 3833  14.629   3.282   8.288  0.2629  0.1226 -0.0165
  240loPI   C4A 3834  14.501   3.136   7.923  0.1526  0.2161 -0.0671
  240loPI   C5A 3835  14.134   3.187   7.698 -0.1303  0.2560 -0.2178
  240loPI   C6A 3836  13.877   2.967   7.344  0.0163 -0.1833 -0.2193
  240loPI   C1B 3837  15.060   3.226   8.816 -0.2684  0.1055 -0.1406
  240loPI   C2B 3838  15.200   3.303   8.399  0.4262  0.0163  0.3363
  240loPI   C3B 3839  15.006   3.385   8.010 -0.1956 -0.2694 -0.0616
  240loPI   C4B 3840  14.723   3.518   7.704 -0.3323 -0.0402 -0.0944
  241loPI    C1 3841  15.346  17.626  10.030  0.0552  0.0154  0.1634
  241loPI    C2 3842  15.272  17.687  10.419  0.1227 -0.3669  0.2397
  241loPI    C3 3843  15.295  17.314  10.275  0.1070 -0.2293 -0.1315
  241loPI   PO4 3844  15.296  17.878   9.927  0.0141 -0.1314 -0.0104
  241loPI   GL1 3845  15.423  18.115   9.605  0.0304  0.0693 -0.0776
  241loPI   GL2 3846  15.220  18.302   9.720  0.0699 -0.2999 -0.0274
  241loPI   C1A 3847  15.385  18.081   9.141  0.2229 -0.1881  0.0125
  241loPI   C2A 3848  15.533  18.150   8.764  0.1306  0.0415  0.5164
  241loPI   C3A 3849  15.570  18.147   8.360 -0.0645  0.0826  0.0830
  241loPI   C4A 3850  15.381  18.246   8.023  0.3690  0.2323 -0.0902
  241loPI   C5A 3851  14.910  18.460   7.877 -0.1159 -0.1140  0.2944
  241loPI   C6A 3852  14.575  18.672   7.927 -0.0950  0.0659  0.0701
  241loPI   C1B 3853  14.888  18.341   9.369  0.1561 -0.0570  0.0401
  241loPI   C2B 3854  14.531  18.434   9.060 -0.1170  0.1837  0.1562
  241loPI   C3B 3855  14.545  18.398   8.570  0.0580 -0.0552  0.2845
  241loPI   C4B 3856  14.498  18.192   8.099 -0.1938  0.1201 -0.0770
  242loPI    C1 3857  12.696   9.690  10.818 -0.0457  0.1275 -0.0103
  242loPI    C2 3858  12.307   9.774  10.782 -0.1352 -0.2553  0.0210
  242loPI    C3 3859  12.508   9.891  11.107 -0.2433 -0.1287  0.0428
  242loPI   PO4 3860  12.721   9.655  10.531  0.2346  0.2463 -0.1667
  242loPI   GL1 3861  12.762   9.609  10.102 -0.2051  0.4501  0.1143
  242loPI   GL2 3862  12.675   9.314  10.073  0.0002  0.0370 -0.0703
  242loPI   C1A 3863  12.556   9.862   9.761  0.1206  0.0312 -0.1326
  242loPI   C2A 3864  12.702   9.897   9.300  0.0052  0.3118  0.1481
  242loPI   C3A 3865  12.906   9.881   8.870  0.3538 -0.0951  0.1008
  242loPI   C4A 3866  13.023   9.899   8.438 -0.0516  0.0225 -0.4123
  242loPI   C5A 3867  13.410   9.996   8.068 -0.0008  0.0119 -0.1969
  242loPI   C6A 3868  13.587   9.917   7.625  0.1091  0.1509 -0.2685
  242loPI   C1B 3869  12.841   9.486   9.634 -0.3196  0.0568  0.1266
  242loPI   C2B 3870  12.959   9.469   9.195 -0.0998  0.1215  0.0011
  242loPI   C3B 3871  12.995   9.414   8.772  0.0716  0.1095  0.1395
  242loPI   C4B 3872  12.906   9.160   8.439 -0.1509  0.1630  0.0843
  243loPI    C1 3873  16.020   2.000  10.363  0.1809  0.0549 -0.0939
  243loPI    C2 3874  16.325   2.205  10.521  0.1581 -0.0178  0.0460
  243loPI    C3 3875  16.177   1.886  10.712 -0.0117  0.0226 -0.0165
  243loPI   PO4 3876  15.987   2.072  10.031 -0.1675  0.1380  0.0800
  243loPI   GL1 3877  16.002   2.084   9.565 -0.1849  0.0074 -0.2625
  243loPI   GL2 3878  15.893   1.790   9.619  0.2754  0.0128  0.0984
  243loPI   C1A 3879  16.007   2.059   9.101  0.1841 -0.4164  0.0733
  243loPI   C2A 3880  16.119   2.127   8.597 -0.0185 -0.2908  0.0239
  243loPI   C3A 3881  16.003   1.993   8.157 -0.0882 -0.0494  0.0820
  243loPI   C4A 3882  15.616   1.976   7.764  0.2537 -0.2557  0.1075
  243loPI   C5A 3883  15.181   2.034   7.659 -0.2466  0.2004  0.0517
  243loPI   C6A 3884  14.840   2.164   7.800  0.1208 -0.2473  0.1823
  243loPI   C1B 3885  16.217   1.673   9.350  0.0326  0.0343  0.2787
  243loPI   C2B 3886  16.450   1.331   8.998  0.2522 -0.1664 -0.2716
  243loPI   C3B 3887  16.507   1.200   8.579  0.0305  0.1542  0.1407
  243loPI   C4B 3888  16.453   0.793   8.319 -0.0274  0.2378 -0.1249
  244loPI    C1 3889   5.183   0.248   9.671  0.2096  0.0076  0.1291
  244loPI    C2 3890   5.027   0.254  10.039 -0.0453  0.0434  0.0227
  244loPI    C3 3891   5.423   0.229   9.990 -0.0162 -0.0695  0.2970
  244loPI   PO4 3892   5.015  -0.027   9.495 -0.0521  0.0756 -0.0705
  244loPI   GL1 3893   4.615  -0.086   9.311  0.0011  0.0412  0.3232
  244loPI   GL2 3894   4.777  -0.339   9.212 -0.1824  0.2310  0.3357
  244loPI   C1A 3895   4.425   0.007   8.961 -0.2603 -0.3952  0.0325
  244loPI   C2A 3896   4.358   0.089   8.519  0.2747  0.3306 -0.1897
  244loPI   C3A 3897   4.119   0.084   8.087  0.1486 -0.2171 -0.0701
  244loPI   C4A 3898   4.018  -0.082   7.629  0.2259  0.2204 -0.0465
  244loPI   C5A 3899   3.902  -0.200   7.213 -0.0433 -0.0644  0.3181
  244loPI   C6A 3900   3.551  -0.411   6.944  0.1870  0.2627 -0.2189
  244loPI   C1B 3901   4.798  -0.361   8.775  0.0562  0.1185  0.0705
  244loPI   C2B 3902   4.722  -0.347   8.336 -0.1512  0.0523  0.1256
  244loPI   C3B 3903   4.538  -0.180   7.943 -0.2098  0.1727  0.1821
  244loPI   C4B 3904   4.373  -0.417   7.669  0.1038 -0.3875  0.2266
  245loPI    C1 3905   0.154  14.361  10.508  0.0906 -0.0156 -0.3606
  245loPI    C2 3906   0.427  14.366  10.800 -0.1434  0.0679 -0.1396
  245loPI    C3 3907   0.046  14.458  10.880 -0.2214  0.0391 -0.4621
  245loPI   PO4 3908   0.163  14.491  10.256 -0.1029  0.0288 -0.0665
  245loPI   GL1 3909   0.251  14.314   9.852  0.0128  0.1569  0.1653
  245loPI   GL2 3910   0.221  14.028   9.780  0.0356  0.1235 -0.1340
  245loPI   C1A 3911   0.051  14.391   9.468 -0.0397 -0.1905  0.0333
  245loPI   C2A 3912   0.162  14.313   9.126 -0.1817 -0.1935  0.3413
  245loPI   C3A 3913   0.230  14.307   8.673 -0.2078 -0.3445  0.0740
  245loPI   C4A 3914   0.320  14.420   8.276 -0.2402  0.1873 -0.0411
  245loPI   C5A 3915   0.223  14.444   7.813 -0.2664  0.0797  0.0221
  245loPI   C6A 3916   0.309  14.058   7.607  0.1109  0.0306  0.1605
  245loPI   C1B 3917   0.265  13.897   9.374  0.4000 -0.2186 -0.0158
  245loPI   C2B 3918   0.335  13.880   8.967 -0.2359 -0.0986  0.1461
  245loPI   C3B 3919   0.100  13.778   8.597  0.1105  0.4034 -0.1760
  245loPI   C4B 3920  -0.144  13.630   8.302 -0.0616 -0.0755 -0.2411
  246loPI    C1 3921   6.777   3.431   9.776 -0.2826  0.3199 -0.0701
  246loPI    C2 3922   6.885   3.226  10.103 -0.0578  0.0042 -0.3360
  246loPI    C3 3923   6.803   3.617  10.130  0.3643  0.0759  0.0251
  246loPI   PO4 3924   6.985   3.375   9.600 -0.4348  0.0612 -0.1263
  246loPI   GL1 3925   7.187   3.495   9.315 -0.0534  0.0481 -0.0114
  246loPI   GL2 3926   7.328   3.903   9.324 -0.0234 -0.3729 -0.2850
  246loPI   C1A 3927   7.102   3.628   8.862  0.4005 -0.0917  0.1282
  246loPI   C2A 3928   6.922   3.803   8.532  0.0579 -0.0919  0.0860
  246loPI   C3A 3929   6.893   3.933   8.157 -0.3275 -0.0940 -0.1737
  246loPI   C4A 3930   6.816   3.892   7.823 -0.1744 -0.0997 -0.1218
  246loPI   C5A 3931   6.572   3.684   7.476 -0.1295 -0.1337 -0.0813
  246loPI   C6A 3932   6.324   3.819   7.201 -0.0235 -0.2086  0.2342
  246loPI   C1B 3933   7.153   4.082   8.949 -0.0933  0.2435 -0.2410
  246loPI   C2B 3934   7.301   4.152   8.513  0.1403 -0.4519  0.4262
  246loPI   C3B 3935   7.353   4.020   8.091 -0.5374 -0.3630 -0.0570
  246loPI   C4B 3936   7.313   3.940   7.671 -0.0983  0.0361  0.0596
  247loPI    C1 3937   9.784  17.820  10.094 -0.0357  0.2676  0.1375
  247loPI    C2 3938   9.968  18.174  10.062 -0.0826  0.3032  0.2571
  247loPI    C3 3939  10.091  17.908  10.334  0.0470  0.1681  0.0694
  247loPI   PO4 3940   9.633  17.909   9.785  0.2121 -0.2858 -0.2768
  247loPI   GL1 3941   9.622  17.982   9.341 -0.0099 -0.0929  0.1706
  247loPI   GL2 3942   9.892  17.967   9.093 -0.0230 -0.0682 -0.1060
  247loPI   C1A 3943   9.365  18.099   9.016 -0.0165  0.3195 -0.0437
  247loPI   C2A 3944   9.086  18.004   8.697 -0.1616 -0.2446 -0.2647
  247loPI   C3A 3945   9.094  17.812   8.305 -0.0062 -0.1172  0.2705
  247loPI   C4A 3946   9.215  17.752   7.971  0.1874 -0.1477  0.1580
  247loPI   C5A 3947   9.260  17.617   7.551 -0.2291  0.1116  0.0307
  247loPI   C6A 3948   9.255  17.589   7.134 -0.1798  0.2520  0.0496
  247loPI   C1B 3949   9.648  17.971   8.612  0.0453  0.1733 -0.2428
  247loPI   C2B 3950   9.553  17.961   8.213  0.1274 -0.0267  0.4133
  247loPI   C3B 3951   9.462  18.146   7.734 -0.1916  0.0503  0.0825
  247loPI   C4B 3952   9.071  18.136   7.524 -0.1210  0.0477  0.1130
  248loPI    C1 3953  13.966  13.240  10.644  0.1830  0.0412  0.1255
  248loPI    C2 3954  13.699  12.994  10.813  0.0713  0.1035  0.0414
  248loPI    C3 3955  13.642  13.390  10.824  0.0739  0.1090 -0.1237
  248loPI   PO4 3956  13.956  13.183  10.417 -0.1716  0.0135 -0.1290
  248loPI   GL1 3957  13.984  13.230   9.976 -0.0634 -0.1604  0.2366
  248loPI   GL2 3958  14.177  13.361   9.960 -0.2991 -0.3722 -0.0818
  248loPI   C1A 3959  14.223  13.061   9.581 -0.0133 -0.0262 -0.2168
  248loPI   C2A 3960  14.295  12.953   9.198  0.2279  0.2424 -0.0690
  248loPI   C3A 3961  14.295  13.037   8.757  0.1911  0.0108 -0.2140
  248loPI   C4A 3962  14.405  12.905   8.351 -0.1147 -0.3702 -0.0883
  248loPI   C5A 3963  14.628  12.963   8.028  0.1884 -0.2652  0.1197
  248loPI   C6A 3964  14.820  13.053   7.697  0.0387 -0.2758 -0.3215
  248loPI   C1B 3965  14.341  13.534   9.684 -0.3905  0.1507  0.0349
  248loPI   C2B 3966  14.428  13.444   9.315  0.0717 -0.0534  0.0790
  248loPI   C3B 3967  14.354  13.484   8.939  0.0684 -0.1483 -0.2674
  248loPI   C4B 3968  14.586  13.478   8.587 -0.2311  0.1120  0.0361
  249loPI    C1 3969  13.285   1.151   9.894  0.1198  0.0368  0.0033
  249loPI    C2 3970  13.385   1.418  10.175 -0.2435  0.1107  0.0681
  249loPI    C3 3971  13.367   1.029  10.266 -0.1172  0.1074  0.0809
  249loPI   PO4 3972  13.366   1.228   9.694 -0.4055 -0.0084 -0.1041
  249loPI   GL1 3973  13.621   1.155   9.288  0.2435 -0.0273 -0.0125
  249loPI   GL2 3974  13.778   1.377   9.389  0.3657 -0.0695  0.0090
  249loPI   C1A 3975  13.928   1.282   8.889 -0.1890 -0.2399  0.2478
  249loPI   C2A 3976  14.132   1.153   8.587 -0.0913 -0.2808  0.1586
  249loPI   C3A 3977  14.321   1.248   8.155 -0.1417 -0.0467  0.2146
  249loPI   C4A 3978  14.407   1.315   7.639 -0.2899  0.1867  0.1287
  249loPI   C5A 3979  14.341   1.689   7.560 -0.2339 -0.0437 -0.0697
  249loPI   C6A 3980  14.374   2.231   7.624 -0.4146 -0.0837 -0.1909
  249loPI   C1B 3981  13.598   1.684   9.084  0.0662  0.0075  0.2273
  249loPI   C2B 3982  13.325   1.919   8.956 -0.2194  0.3163 -0.3657
  249loPI   C3B 3983  13.145   2.247   8.907 -0.0128  0.3720  0.5138
  249loPI   C4B 3984  13.246   2.589   8.630 -0.3918  0.3346 -0.0954
  250loPI    C1 3985  11.179  18.522  10.047 -0.3133 -0.0724  0.2557
  250loPI    C2 3986  10.913  18.433   9.763 -0.3149  0.3990  0.1016
  250loPI    C3 3987  10.973  18.180  10.067 -0.2240 -0.1742 -0.3755
  250loPI   PO4 3988  11.409  18.623   9.953  0.2871  0.0140 -0.1090
  250loPI   GL1 3989  11.795  18.535   9.852 -0.3876 -0.2144 -0.1729
  250loPI   GL2 3990  11.920  18.827   9.667 -0.1781  0.1458  0.0332
  250loPI   C1A 3991  11.942  18.291   9.491  0.5422 -0.1021  0.0932
  250loPI   C2A 3992  11.832  18.302   9.041 -0.0116 -0.1632  0.0682
  250loPI   C3A 3993  11.733  18.113   8.643 -0.0952  0.0651  0.1244
  250loPI   C4A 3994  11.905  17.713   8.461 -0.1058 -0.2691  0.0485
  250loPI   C5A 3995  12.028  17.767   8.045 -0.1131 -0.1587 -0.0739
  250loPI   C6A 3996  12.222  18.090   7.766 -0.2046 -0.2577  0.5001
  250loPI   C1B 3997  11.898  18.770   9.199 -0.0628 -0.2440  0.0597
  250loPI   C2B 3998  11.594  18.769   8.852 -0.2423  0.1706 -0.0859
  250loPI   C3B 3999  11.500  18.607   8.464  0.0456  0.3303 -0.0905
  250loPI   C4B 4000  11.196  18.533   8.193  0.2070  0.2243  0.1540
  251loPI    C1 4001  18.598  11.637  10.493  0.1127  0.0335  0.0801
  251loPI    C2 4002  18.687  11.248  10.474  0.3154  0.0907 -0.2220
  251loPI    C3 4003  18.824  11.470  10.777 -0.0649 -0.1334  0.1252
  251loPI   PO4 4004  18.710  11.800  10.273 -0.1523 -0.2790 -0.0245
  251loPI   GL1 4005  18.861  11.775   9.801 -0.3527 -0.3954  0.4022
  251loPI   GL2 4006  18.495  11.833   9.792 -0.1366 -0.0949 -0.0924
  251loPI   C1A 4007  18.824  11.842   9.301 -0.2629  0.3512 -0.0017
  251loPI   C2A 4008  18.779  11.864   8.876 -0.2684  0.3780  0.3156
  251loPI   C3A 4009  18.596  11.729   8.537 -0.1651  0.0059  0.0331
  251loPI   C4A 4010  18.596  11.514   8.099 -0.0086  0.3414  0.4802
  251loPI   C5A 4011  18.505  11.751   7.723 -0.0760 -0.0028 -0.1256
  251loPI   C6A 4012  18.743  11.992   7.533  0.1908  0.3636  0.3614
  251loPI   C1B 4013  18.518  12.137   9.503 -0.3410  0.1114  0.1207
  251loPI   C2B 4014  18.351  12.334   9.162  0.1291 -0.0991 -0.0836
  251loPI   C3B 4015  18.353  12.201   8.736 -0.0204  0.1819 -0.0756
  251loPI   C4B 4016  18.383  12.144   8.253  0.0718  0.1438 -0.1437
  252loPI    C1 4017  18.233   9.873   9.958 -0.0977  0.0082  0.0877
  252loPI    C2 4018  18.458   9.953  10.279 -0.2709  0.1190  0.1826
  252loPI    C3 4019  18.196  10.225  10.145 -0.3485 -0.0086  0.0733
  252loPI   PO4 4020  18.133   9.612  10.020  0.2126 -0.0334  0.1603
  252loPI   GL1 4021  17.923   9.276   9.796  0.0974  0.0492  0.2062
  252loPI   GL2 4022  18.287   9.002   9.590 -0.1361 -0.2117  0.0834
  252loPI   C1A 4023  17.944   9.247   9.295  0.1630 -0.0925  0.0553
  252loPI   C2A 4024  17.739   9.220   8.921 -0.1561  0.1182 -0.0809
  252loPI   C3A 4025  17.772   9.419   8.519 -0.0068 -0.0685  0.0070
  252loPI   C4A 4026  17.789   9.504   8.151  0.0375 -0.1866  0.2768
  252loPI   C5A 4027  18.006   9.442   7.744  0.0975 -0.2394  0.3255
  252loPI   C6A 4028  18.397   9.178   7.555  0.0930 -0.1468  0.1146
  252loPI   C1B 4029  18.464   9.139   9.216  0.1766  0.3422  0.0871
  252loPI   C2B 4030  18.326   9.157   8.855  0.0194  0.0409 -0.4118
  252loPI   C3B 4031  18.213   9.218   8.495  0.1230 -0.1411  0.0476
  252loPI   C4B 4032  18.257   9.144   8.121 -0.1110 -0.1196  0.0800
  253loPI    C1 4033  18.019  15.135  10.489 -0.0673 -0.0024 -0.1486
  253loPI    C2 4034  17.896  15.402  10.761 -0.1115  0.0037 -0.1744
  253loPI    C3 4035  18.266  15.250  10.782 -0.1013  0.0338 -0.1341
  253loPI   PO4 4036  18.090  15.259  10.282  0.3094  0.0239  0.1808
  253loPI   GL1 4037  18.236  15.049   9.863 -0.2720 -0.1473 -0.0034
  253loPI   GL2 4038  18.559  15.431   9.967  0.2952  0.3635 -0.1228
  253loPI   C1A 4039  18.035  15.193   9.498  0.0694 -0.0469 -0.0369
  253loPI   C2A 4040  17.926  15.267   9.103 -0.0850  0.3613 -0.0704
  253loPI   C3A 4041  17.797  15.284   8.652 -0.0757 -0.1433  0.2281
  253loPI   C4A 4042  17.707  15.458   8.269  0.1088 -0.2020 -0.1009
  253loPI   C5A 4043  17.976  15.373   7.936  0.0977  0.0972  0.6212
  253loPI   C6A 4044  18.393  15.338   7.815 -0.0860 -0.1619 -0.0411
  253loPI   C1B 4045  18.467  15.644   9.660 -0.0808 -0.1584  0.1712
  253loPI   C2B 4046  18.117  15.604   9.431 -0.0734  0.2310  0.1384
  253loPI   C3B 4047  17.899  15.776   9.232  0.3752 -0.2113  0.0253
  253loPI   C4B 4048  17.626  15.662   8.961 -0.0250 -0.2848  0.1189
  254loPI    C1 4049   4.891  10.293   9.996 -0.1138  0.1488 -0.1774
  254loPI    C2 4050   4.562  10.240  10.218 -0.1009  0.2486 -0.1339
  254loPI    C3 4051   4.879  10.003  10.271 -0.2041  0.0826 -0.2507
  254loPI   PO4 4052   4.747  10.310   9.750 -0.1122 -0.1478 -0.0002
  254loPI   GL1 4053   4.605  10.586   9.465  0.1728 -0.2785 -0.1668
  254loPI   GL2 4054   4.599  10.947   9.435 -0.1416  0.0959 -0.0034
  254loPI   C1A 4055   4.779  10.427   9.034  0.2299  0.1289  0.1921
  254loPI   C2A 4056   4.664  10.448   8.608 -0.0466  0.1543  0.1202
  254loPI   C3A 4057   4.759  10.328   8.200 -0.0778  0.1821  0.2276
  254loPI   C4A 4058   4.808  10.106   7.875 -0.0712  0.2672  0.1604
  254loPI   C5A 4059   4.766   9.776   7.639 -0.1176 -0.3035  0.2443
  254loPI   C6A 4060   4.446   9.693   7.492 -0.1256  0.2038  0.3280
  254loPI   C1B 4061   4.613  10.945   8.964  0.1344  0.0878  0.1820
  254loPI   C2B 4062   4.768  10.986   8.504  0.3706  0.3220 -0.0985
  254loPI   C3B 4063   4.714  10.934   8.126 -0.0429  0.0434  0.3919
  254loPI   C4B 4064   4.655  10.751   7.723  0.3000 -0.0379 -0.1581
  255loPI    C1 4065  11.407   3.151  10.418  0.1007 -0.1641  0.0276
  255loPI    C2 4066  11.745   3.338  10.520 -0.0463  0.2311 -0.1891
  255loPI    C3 4067  11.498   3.203  10.804  0.1823  0.1413 -0.0303
  255loPI   PO4 4068  11.563   3.160  10.048 -0.0676  0.2374 -0.1264
  255loPI   GL1 4069  11.884   3.150   9.740  0.2619 -0.0705 -0.0264
  255loPI   GL2 4070  11.767   3.360   9.572  0.4201 -0.0995  0.0605
  255loPI   C1A 4071  12.053   2.901   9.326  0.6059  0.0567 -0.1792
  255loPI   C2A 4072  12.004   2.827   8.901 -0.2079 -0.3111 -0.2544
  255loPI   C3A 4073  11.822   3.000   8.387  0.1938  0.2266 -0.0344
  255loPI   C4A 4074  11.495   3.160   8.151 -0.0358 -0.0593 -0.1790
  255loPI   C5A 4075  11.415   3.185   7.777 -0.1945 -0.4071 -0.1565
  255loPI   C6A 4076  11.228   3.572   7.626  0.2661  0.1242 -0.0241
  255loPI   C1B 4077  11.776   3.260   9.143  0.0406 -0.3062  0.2601
  255loPI   C2B 4078  11.849   3.469   8.848  0.2333 -0.0740  0.1990
  255loPI   C3B 4079  11.868   3.594   8.455 -0.0446 -0.0196  0.1517
  255loPI   C4B 4080  11.811   3.537   7.895  0.0283  0.2086 -0.1205
  256loPI    C1 4081   1.660  12.698  10.586  0.0232  0.1011 -0.0691
  256loPI    C2 4082   1.499  12.986  10.811  0.2621  0.2092 -0.0331
  256loPI    C3 4083   1.504  12.608  10.943  0.1679  0.2287  0.0274
  256loPI   PO4 4084   1.480  12.823  10.295 -0.2419  0.3120 -0.0086
  256loPI   GL1 4085   1.587  12.734   9.876 -0.1253  0.1248  0.0164
  256loPI   GL2 4086   1.312  12.467   9.925  0.0236  0.1876  0.0631
  256loPI   C1A 4087   1.529  12.666   9.429  0.0985  0.0183  0.0771
  256loPI   C2A 4088   1.353  12.495   9.150  0.1061 -0.3671  0.2670
  256loPI   C3A 4089   1.100  12.379   8.915 -0.2977  0.1861 -0.1327
  256loPI   C4A 4090   0.994  12.204   8.505 -0.2561  0.2439 -0.0755
  256loPI   C5A 4091   1.159  12.132   8.060  0.0979 -0.1527 -0.2181
  256loPI   C6A 4092   1.127  12.383   7.629  0.0269  0.0861 -0.1978
  256loPI   C1B 4093   1.044  12.623   9.671 -0.2504  0.2375 -0.0287
  256loPI   C2B 4094   0.754  12.488   9.368  0.2040 -0.1328  0.0314
  256loPI   C3B 4095   0.597  12.584   8.935  0.0092  0.3142 -0.1694
  256loPI   C4B 4096   0.650  12.596   8.519 -0.2242  0.1697 -0.0949
  257loPI    C1 4097  12.104   8.301  10.825  0.2276 -0.0389  0.1734
  257loPI    C2 4098  12.024   7.910  10.847 -0.1788  0.0293 -0.0021
  257loPI    C3 4099  11.823   8.169  11.076  0.1365  0.1329  0.1634
  257loPI   PO4 4100  12.106   8.448  10.583 -0.2279 -0.0404 -0.0319
  257loPI   GL1 4101  12.395   8.403  10.172  0.1295  0.0668  0.0488
  257loPI   GL2 4102  12.139   8.186  10.181 -0.0286 -0.3200  0.1741
  257loPI   C1A 4103  12.259   8.336   9.736 -0.3247 -0.0106  0.0586
  257loPI   C2A 4104  12.227   8.290   9.317  0.2491  0.1030  0.3730
  257loPI   C3A 4105  12.236   8.487   8.899 -0.1150  0.0656  0.0892
  257loPI   C4A 4106  12.447   8.712   8.571 -0.3158 -0.1573 -0.1707
  257loPI   C5A 4107  12.433   8.914   8.217 -0.0782  0.0914 -0.0971
  257loPI   C6A 4108  12.292   9.245   7.883  0.1478  0.0376 -0.1946
  257loPI   C1B 4109  11.859   7.843   9.975 -0.0453 -0.0646  0.1181
  257loPI   C2B 4110  11.952   7.845   9.435 -0.1236  0.0117 -0.4962
  257loPI   C3B 4111  11.922   8.050   8.967 -0.1706 -0.1286  0.0200
  257loPI   C4B 4112  12.067   8.105   8.595  0.0825 -0.0662  0.2578
  258loPI    C1 4113   3.697   1.193   9.790  0.0132 -0.0884  0.0624
  258loPI    C2 4114   3.507   1.164  10.141  0.2673  0.2869  0.2381
  258loPI    C3 4115   3.369   1.411   9.859  0.1078  0.0437  0.0995
  258loPI   PO4 4116   3.991   1.191   9.827  0.2103  0.0858  0.0401
  258loPI   GL1 4117   4.194   1.334   9.492 -0.0171 -0.2766 -0.2083
  258loPI   GL2 4118   4.069   1.696   9.339  0.3537 -0.0411 -0.1533
  258loPI   C1A 4119   3.930   1.371   9.032  0.1250  0.0259  0.0587
  258loPI   C2A 4120   3.942   1.431   8.564  0.2345 -0.1566  0.0095
  258loPI   C3A 4121   4.043   1.451   8.108 -0.2611  0.0730  0.1529
  258loPI   C4A 4122   4.094   1.608   7.616 -0.1661 -0.0288 -0.0679
  258loPI   C5A 4123   4.144   1.579   7.213  0.3245 -0.1034  0.0007
  258loPI   C6A 4124   4.101   1.256   6.906  0.0216  0.4701  0.2317
  258loPI   C1B 4125   4.066   1.900   8.972  0.1359 -0.0613 -0.0788
  258loPI   C2B 4126   4.075   1.976   8.602  0.0645  0.0067  0.4517
  258loPI   C3B 4127   4.207   1.960   8.101 -0.0247  0.0673  0.0618
  258loPI   C4B 4128   4.275   2.089   7.677 -0.2177 -0.1989  0.1749
  259loPI    C1 4129   4.346  17.150   9.641  0.0592 -0.2844 -0.0416
  259loPI    C2 4130   4.529  17.420   9.872  0.2278 -0.2791 -0.1797
  259loPI    C3 4131   4.287  17.148  10.037  0.2071 -0.1641 -0.0180
  259loPI   PO4 4132   4.375  17.217   9.425  0.1807 -0.0353 -0.0699
  259loPI   GL1 4133   4.348  17.099   8.953  0.0301  0.1018 -0.0740
  259loPI   GL2 4134   4.214  17.354   8.977  0.0094  0.2263  0.1204
  259loPI   C1A 4135   4.062  16.954   8.608  0.4804  0.0104  0.0990
  259loPI   C2A 4136   3.886  17.179   8.252 -0.0386 -0.2591 -0.1745
  259loPI   C3A 4137   3.861  17.608   8.118  0.3244  0.0021  0.1331
  259loPI   C4A 4138   3.583  17.903   7.952 -0.0674  0.0344  0.2933
  259loPI   C5A 4139   3.217  18.046   7.713 -0.0680 -0.2077 -0.0949
  259loPI   C6A 4140   2.760  17.973   7.647  0.1020  0.0174  0.0759
  259loPI   C1B 4141   4.240  17.402   8.453 -0.0173  0.0693  0.1343
  259loPI   C2B 4142   4.349  17.468   8.068 -0.1082  0.1815 -0.0429
  259loPI   C3B 4143   4.636  17.576   7.797 -0.3185  0.1723  0.2544
  259loPI   C4B 4144   4.604  17.717   7.385  0.1946 -0.3860  0.0007
  260loPI    C1 4145   7.636   8.373  10.101  0.0950  0.1603 -0.0769
  260loPI    C2 4146   7.947   8.124  10.139  0.0400  0.0866 -0.1085
  260loPI    C3 4147   7.614   8.061  10.350 -0.0125  0.0734 -0.1948
  260loPI   PO4 4148   7.682   8.426   9.838  0.2265 -0.3177 -0.1302
  260loPI   GL1 4149   7.981   8.293   9.627  0.1752  0.1589  0.0880
  260loPI   GL2 4150   8.121   8.423   9.501  0.1692  0.1807 -0.4152
  260loPI   C1A 4151   7.977   8.103   9.176  0.3764 -0.2393  0.2031
  260loPI   C2A 4152   8.029   8.256   8.838 -0.2538  0.1245  0.0765
  260loPI   C3A 4153   8.122   8.198   8.432  0.1460  0.0975 -0.2672
  260loPI   C4A 4154   8.042   8.229   7.919  0.0261  0.0115 -0.0881
  260loPI   C5A 4155   7.750   8.140   7.549 -0.1398 -0.1102 -0.1030
  260loPI   C6A 4156   7.717   8.056   7.102 -0.3034 -0.1128  0.3096
  260loPI   C1B 4157   7.960   8.715   9.177  0.2898  0.0194  0.1412
  260loPI   C2B 4158   7.927   8.747   8.704 -0.0716 -0.3211  0.0524
  260loPI   C3B 4159   7.904   8.628   8.410  0.0285  0.3199  0.4736
  260loPI   C4B 4160   7.929   8.773   7.933 -0.1205  0.0807  0.0935
  261loPI    C1 4161  13.481   5.946  10.507  0.3162  0.2305  0.1731
  261loPI    C2 4162  13.115   5.821  10.608  0.3431 -0.1550 -0.1792
  261loPI    C3 4163  13.357   5.975  10.886  0.0451 -0.2271  0.1270
  261loPI   PO4 4164  13.508   5.993  10.306  0.0945 -0.1473  0.0877
  261loPI   GL1 4165  13.466   5.836   9.914  0.0868  0.0221  0.2683
  261loPI   GL2 4166  13.548   6.258   9.890 -0.1966 -0.0462  0.1573
  261loPI   C1A 4167  13.838   5.844   9.669  0.1300 -0.0807  0.3542
  261loPI   C2A 4168  13.911   5.846   9.168 -0.0071 -0.2752 -0.2272
  261loPI   C3A 4169  14.019   5.843   8.771  0.2011 -0.2651 -0.1031
  261loPI   C4A 4170  14.180   5.602   8.398 -0.0695 -0.1515  0.1376
  261loPI   C5A 4171  14.576   5.511   8.054  0.0251 -0.5229  0.3273
  261loPI   C6A 4172  14.747   5.443   7.677  0.2635 -0.1289  0.0111
  261loPI   C1B 4173  13.469   6.147   9.462 -0.1090  0.2552 -0.0432
  261loPI   C2B 4174  13.638   6.299   9.073  0.0545  0.4343  0.1569
  261loPI   C3B 4175  13.686   6.276   8.638 -0.0722  0.1026  0.0255
  261loPI   C4B 4176  14.107   6.139   8.335 -0.1970  0.0802  0.0692
  262loPI    C1 4177   3.009   2.964  10.217  0.2012 -0.1815  0.0696
  262loPI    C2 4178   3.114   2.586  10.295  0.3844 -0.1210  0.1214
  262loPI    C3 4179   3.020   2.833  10.595 -0.1645 -0.2451  0.0617
  262loPI   PO4 4180   2.711   2.849   9.977 -0.1512  0.0696 -0.2298
  262loPI   GL1 4181   2.639   2.958   9.520 -0.0521 -0.1012 -0.0431
  262loPI   GL2 4182   2.734   3.283   9.382 -0.3643  0.3082  0.0996
  262loPI   C1A 4183   2.909   2.846   9.165  0.0174  0.3245  0.2358
  262loPI   C2A 4184   3.087   2.806   8.812  0.1247  0.2522 -0.3394
  262loPI   C3A 4185   3.147   2.745   8.331 -0.1239 -0.2180  0.4677
  262loPI   C4A 4186   3.192   2.604   7.975  0.0854  0.0871 -0.1386
  262loPI   C5A 4187   3.361   2.368   7.743 -0.0904  0.0516 -0.3309
  262loPI   C6A 4188   3.319   2.302   7.311 -0.0081 -0.1211  0.0930
  262loPI   C1B 4189   2.721   3.262   8.936 -0.0237  0.1476 -0.0054
  262loPI   C2B 4190   2.665   3.546   8.546  0.3201  0.0711  0.1984
  262loPI   C3B 4191   2.659   3.555   8.212 -0.1514  0.3925 -0.8432
  262loPI   C4B 4192   2.380   3.563   7.840 -0.1486 -0.0901 -0.0568
  263loPI    C1 4193   3.083  11.025   9.784  0.0768 -0.0622 -0.1288
  263loPI    C2 4194   2.917  10.880  10.118  0.1539  0.4616  0.1462
  263loPI    C3 4195   3.212  10.679   9.938 -0.1871 -0.0468  0.1357
  263loPI   PO4 4196   2.940  11.112   9.653  0.1550 -0.2092  0.2486
  263loPI   GL1 4197   2.771  10.833   9.237  0.0691 -0.2487 -0.3671
  263loPI   GL2 4198   2.489  10.730   9.209  0.1257 -0.0755  0.1115
  263loPI   C1A 4199   3.083  10.923   8.933 -0.2560  0.2054 -0.0749
  263loPI   C2A 4200   3.327  10.879   8.474  0.1916 -0.2793  0.2688
  263loPI   C3A 4201   3.559  10.911   8.080 -0.0116 -0.0336 -0.1184
  263loPI   C4A 4202   3.848  10.785   7.731  0.1800 -0.0935 -0.0761
  263loPI   C5A 4203   3.624  10.542   7.381  0.0283 -0.1086  0.0861
  263loPI   C6A 4204   3.172  10.450   7.368  0.0778 -0.0091 -0.2562
  263loPI   C1B 4205   2.759  10.565   8.823  0.1928 -0.0594 -0.1293
  263loPI   C2B 4206   2.825  10.748   8.399  0.0394  0.3422  0.2766
  263loPI   C3B 4207   3.089  10.845   8.076  0.1384 -0.1820 -0.1349
  263loPI   C4B 4208   3.309  10.818   7.663  0.1835 -0.0297  0.0522
  264loPI    C1 4209  12.478  17.697  10.369 -0.0129 -0.0904  0.0431
  264loPI    C2 4210  12.850  17.724  10.514  0.0664 -0.1096 -0.1528
  264loPI    C3 4211  12.567  17.534  10.723  0.1382  0.0020  0.0488
  264loPI   PO4 4212  12.551  17.737  10.063 -0.0857  0.5004  0.1095
  264loPI   GL1 4213  12.494  17.909   9.772 -0.1287  0.2757  0.1657
  264loPI   GL2 4214  12.768  17.934   9.678  0.1848 -0.2799 -0.0267
  264loPI   C1A 4215  12.371  18.080   9.278  0.2172  0.1888 -0.0806
  264loPI   C2A 4216  12.388  18.096   8.758 -0.1362  0.2921  0.2660
  264loPI   C3A 4217  12.465  17.913   8.345 -0.0272 -0.3415  0.2477
  264loPI   C4A 4218  12.657  17.848   7.964 -0.0669 -0.2888  0.1042
  264loPI   C5A 4219  12.947  17.680   7.633  0.2949  0.0434 -0.0479
  264loPI   C6A 4220  13.324  17.711   7.618  0.2192  0.1005  0.1766
  264loPI   C1B 4221  13.014  17.983   9.268  0.1183  0.1772  0.3185
  264loPI   C2B 4222  13.180  18.030   8.929 -0.0030 -0.2887  0.1749
  264loPI   C3B 4223  13.241  17.973   8.496  0.1883 -0.2570  0.1169
  264loPI   C4B 4224  13.194  17.973   8.118  0.0759  0.2840  0.1886
  265loPI    C1 4225  14.980   8.247  10.815 -0.0553 -0.0559 -0.1557
  265loPI    C2 4226  15.105   8.229  11.194  0.0003  0.3124 -0.1525
  265loPI    C3 4227  14.714   8.207  11.112  0.0015  0.0294 -0.0929
  265loPI   PO4 4228  15.213   8.068  10.695 -0.0901  0.1512  0.0454
  265loPI   GL1 4229  15.239   8.028  10.244  0.0205  0.1190  0.0838
  265loPI   GL2 4230  15.242   8.288  10.260  0.1221 -0.2227  0.1688
  265loPI   C1A 4231  15.023   7.954   9.830 -0.1277 -0.0179 -0.0165
  265loPI   C2A 4232  15.105   8.006   9.380 -0.0961  0.0271 -0.1023
  265loPI   C3A 4233  15.131   8.054   8.970 -0.0520 -0.2572  0.0982
  265loPI   C4A 4234  14.990   7.754   8.715  0.5354 -0.2390 -0.2453
  265loPI   C5A 4235  14.712   7.958   8.300 -0.0558  0.1214  0.2998
  265loPI   C6A 4236  14.561   8.201   7.920 -0.1750 -0.0040 -0.5485
  265loPI   C1B 4237  15.346   8.446   9.768 -0.0611  0.2801  0.2830
  265loPI   C2B 4238  15.457   8.347   9.361 -0.1282  0.1030  0.0908
  265loPI   C3B 4239  15.571   8.339   8.989  0.3691  0.1413  0.1581
  265loPI   C4B 4240  15.364   8.300   8.644 -0.1808 -0.0864  0.1003
  266loPI    C1 4241   2.455   6.751   9.691 -0.0487 -0.0706  0.0901
  266loPI    C2 4242   2.291   7.071   9.867  0.0470  0.1408 -0.1975
  266loPI    C3 4243   2.497   6.806  10.085 -0.0177  0.2839  0.0405
  266loPI   PO4 4244   2.238   6.634   9.574  0.3670 -0.1973  0.3791
  266loPI   GL1 4245   2.121   6.603   9.194 -0.1001  0.2104  0.0408
  266loPI   GL2 4246   2.410   6.681   9.010 -0.3650  0.0257 -0.1032
  266loPI   C1A 4247   1.797   6.816   9.060  0.0728  0.0492 -0.0783
  266loPI   C2A 4248   1.574   6.960   8.794  0.2060 -0.1039  0.1414
  266loPI   C3A 4249   1.297   7.020   8.433  0.3024 -0.1633  0.0278
  266loPI   C4A 4250   1.171   7.383   8.074 -0.4240  0.3781  0.2381
  266loPI   C5A 4251   0.982   7.549   7.715 -0.1941 -0.1079 -0.3383
  266loPI   C6A 4252   0.798   7.796   7.441 -0.0591  0.1155 -0.1616
  266loPI   C1B 4253   2.205   6.717   8.602 -0.1058 -0.0743 -0.1225
  266loPI   C2B 4254   2.320   6.804   8.212  0.0758 -0.1289  0.1656
  266loPI   C3B 4255   2.252   6.459   7.848  0.1616 -0.0479  0.0833
  266loPI   C4B 4256   2.243   6.493   7.378  0.0092  0.0085 -0.0374
  267loPI    C1 4257   6.658   7.524  10.387  0.0578 -0.0666 -0.1050
  267loPI    C2 4258   6.467   7.827  10.564  0.0166 -0.1392 -0.0243
  267loPI    C3 4259   6.535   7.489  10.766  0.1482 -0.1480 -0.0829
  267loPI   PO4 4260   6.777   7.755  10.179  0.0252  0.2903 -0.2044
  267loPI   GL1 4261   6.799   7.869   9.779  0.1264  0.2817  0.0965
  267loPI   GL2 4262   6.589   7.685   9.654  0.1483 -0.0620 -0.2455
  267loPI   C1A 4263   6.777   7.993   9.278  0.0160  0.0331 -0.0393
  267loPI   C2A 4264   6.982   7.937   8.943  0.2767 -0.2647 -0.0150
  267loPI   C3A 4265   7.137   7.940   8.629  0.1628  0.0251  0.3605
  267loPI   C4A 4266   7.035   8.095   8.257  0.1637 -0.0679  0.1393
  267loPI   C5A 4267   6.747   8.380   8.143 -0.2769 -0.6577  0.0828
  267loPI   C6A 4268   6.704   8.818   8.178 -0.0447  0.0579 -0.1606
  267loPI   C1B 4269   6.364   7.724   9.274 -0.0913 -0.0661 -0.0562
  267loPI   C2B 4270   6.514   7.693   8.903 -0.0971  0.2532  0.3963
  267loPI   C3B 4271   6.801   7.569   8.593 -0.2324 -0.0280 -0.2511
  267loPI   C4B 4272   6.829   7.551   8.141  0.2769 -0.0296  0.2509
  268loPI    C1 4273  10.365   5.931  10.674 -0.1721  0.1670 -0.1173
  268loPI    C2 4274  10.257   5.551  10.736 -0.1145  0.1179 -0.3103
  268loPI    C3 4275  10.232   5.817  11.034 -0.3128  0.0010 -0.2200
  268loPI   PO4 4276  10.437   5.855  10.366 -0.0211  0.1720  0.0232
  268loPI   GL1 4277  10.360   5.943   9.956 -0.0337 -0.0294  0.1029
  268loPI   GL2 4278  10.691   6.029   9.888  0.0927 -0.0039 -0.3405
  268loPI   C1A 4279  10.465   6.065   9.473 -0.2293  0.1994  0.2873
  268loPI   C2A 4280  10.219   6.081   9.031  0.1891  0.1430 -0.0431
  268loPI   C3A 4281  10.059   6.203   8.613  0.1869  0.3063  0.0211
  268loPI   C4A 4282  10.025   6.495   8.281 -0.2487  0.1175 -0.3173
  268loPI   C5A 4283   9.876   6.729   8.052 -0.0109 -0.0090 -0.1923
  268loPI   C6A 4284   9.519   6.744   7.785 -0.0287 -0.0885  0.2423
  268loPI   C1B 4285  10.937   6.151   9.475  0.2628 -0.2742  0.0368
  268loPI   C2B 4286  11.035   6.631   9.196 -0.0437  0.0367  0.2967
  268loPI   C3B 4287  10.923   6.886   8.822 -0.2357 -0.1779 -0.1528
  268loPI   C4B 4288  10.755   7.000   8.512  0.0693 -0.1231  0.1751
  269loPI    C1 4289  10.183  17.071   9.964 -0.2285 -0.2097  0.0685
  269loPI    C2 4290   9.915  17.322  10.123 -0.0361 -0.0295  0.1150
  269loPI    C3 4291   9.962  16.956  10.277  0.0622  0.0997  0.3981
  269loPI   PO4 4292  10.187  17.150   9.740  0.3075  0.0056 -0.1340
  269loPI   GL1 4293  10.388  17.102   9.408  0.3636  0.2297  0.2287
  269loPI   GL2 4294  10.071  17.234   9.267  0.1926  0.2674 -0.1852
  269loPI   C1A 4295  10.489  17.024   8.959  0.2774 -0.0221 -0.3925
  269loPI   C2A 4296  10.406  16.906   8.568 -0.2838  0.2182 -0.1136
  269loPI   C3A 4297  10.428  16.841   8.211  0.1781 -0.0933 -0.0915
  269loPI   C4A 4298  10.613  16.451   8.025  0.1632  0.2248  0.0231
  269loPI   C5A 4299  10.792  16.432   7.632  0.0661  0.0070  0.3623
  269loPI   C6A 4300  10.771  16.746   7.307  0.4845  0.1736  0.0766
  269loPI   C1B 4301   9.985  17.024   8.848  0.3169  0.1131 -0.2771
  269loPI   C2B 4302   9.933  16.782   8.459 -0.1110 -0.0831  0.0238
  269loPI   C3B 4303  10.025  16.617   7.978 -0.1314 -0.1278 -0.1933
  269loPI   C4B 4304  10.271  16.326   7.730  0.1173  0.0405  0.3511
  270loPI    C1 4305   9.501  16.010  10.339  0.1820 -0.1224  0.0582
  270loPI    C2 4306   9.742  16.329  10.347 -0.1672  0.1519 -0.0978
  270loPI    C3 4307   9.554  16.211  10.680 -0.0170  0.0905 -0.0339
  270loPI   PO4 4308   9.523  15.909  10.086  0.1041  0.0962  0.2827
  270loPI   GL1 4309   9.373  15.730   9.741 -0.2013  0.1300  0.0796
  270loPI   GL2 4310   9.083  15.696   9.622 -0.1730  0.1016  0.1145
  270loPI   C1A 4311   9.543  15.588   9.370 -0.2403 -0.2058  0.1159
  270loPI   C2A 4312   9.457  15.450   8.882  0.0767  0.1028 -0.2016
  270loPI   C3A 4313   9.456  15.487   8.460 -0.3726  0.1145 -0.1276
  270loPI   C4A 4314   9.527  15.434   8.023  0.3090 -0.5780 -0.1019
  270loPI   C5A 4315   9.570  15.309   7.617  0.2192 -0.1906  0.0360
  270loPI   C6A 4316   9.282  14.998   7.486  0.1688  0.2037  0.0471
  270loPI   C1B 4317   9.061  15.570   9.222  0.0895 -0.1039 -0.0165
  270loPI   C2B 4318   8.991  15.648   8.789 -0.0065  0.2195  0.2356
  270loPI   C3B 4319   8.927  15.676   8.367  0.0422  0.0920  0.0260
  270loPI   C4B 4320   8.769  15.813   7.913 -0.0114 -0.4156  0.0711
  271loPI    C1 4321  17.878   3.573  10.358 -0.0129  0.2152 -0.4893
  271loPI    C2 4322  17.609   3.708  10.622  0.0850  0.0920 -0.3249
  271loPI    C3 4323  17.885   3.956  10.473  0.1856  0.1049 -0.1202
  271loPI   PO4 4324  17.744   3.447  10.114 -0.0186 -0.3043  0.2739
  271loPI   GL1 4325  17.691   3.481   9.641 -0.2229 -0.2306  0.0509
  271loPI   GL2 4326  17.893   3.709   9.507 -0.2964  0.2168  0.0661
  271loPI   C1A 4327  17.957   3.105   9.412 -0.1157  0.1071  0.2747
  271loPI   C2A 4328  18.286   2.879   9.150  0.0593  0.3295  0.3132
  271loPI   C3A 4329  18.528   2.952   8.865 -0.0042  0.1481 -0.1679
  271loPI   C4A 4330  18.693   3.013   8.384 -0.1240  0.0222 -0.0833
  271loPI   C5A 4331  18.979   3.017   8.177 -0.3129 -0.1236 -0.1367
  271loPI   C6A 4332  19.332   3.019   7.937  0.1528 -0.1936 -0.0001
  271loPI   C1B 4333  18.318   3.556   9.287  0.0688  0.0062  0.1485
  271loPI   C2B 4334  18.161   3.335   8.992  0.0236 -0.0215 -0.1027
  271loPI   C3B 4335  18.056   3.038   8.607 -0.2254  0.2632 -0.0977
  271loPI   C4B 4336  18.127   2.953   8.210 -0.0291  0.2235  0.1934
  272loPI    C1 4337   3.425   5.841  10.042 -0.1602  0.0996  0.0318
  272loPI    C2 4338   3.772   5.956  10.205 -0.0373 -0.3066  0.0691
  272loPI    C3 4339   3.433   5.984  10.416 -0.0641  0.2682 -0.0339
  272loPI   PO4 4340   3.457   5.799   9.785  0.1202 -0.0136  0.0161
  272loPI   GL1 4341   3.328   5.614   9.388  0.3183  0.3161  0.4130
  272loPI   GL2 4342   3.217   5.185   9.344 -0.0880 -0.0296  0.1455
  272loPI   C1A 4343   3.188   6.080   9.223  0.0951 -0.3200  0.0393
  272loPI   C2A 4344   3.214   6.227   8.865  0.3952  0.2909  0.0073
  272loPI   C3A 4345   3.589   6.144   8.665  0.5147 -0.0911 -0.1647
  272loPI   C4A 4346   3.928   6.428   8.413  0.2660  0.2317  0.0721
  272loPI   C5A 4347   4.071   6.671   8.066  0.3529  0.2112 -0.2792
  272loPI   C6A 4348   4.210   6.481   7.642  0.0847 -0.0753 -0.0922
  272loPI   C1B 4349   3.103   5.266   8.858  0.1311 -0.0239 -0.0439
  272loPI   C2B 4350   3.012   5.075   8.440  0.1955 -0.2631  0.1052
  272loPI   C3B 4351   2.744   5.009   8.111 -0.1072  0.1057 -0.1436
  272loPI   C4B 4352   2.412   4.899   8.081 -0.0320  0.0163  0.0554
  273loPI    C1 4353  10.627  11.432  10.572  0.3100 -0.3265 -0.1367
  273loPI    C2 4354  10.381  11.356  10.878  0.0655 -0.0037 -0.2479
  273loPI    C3 4355  10.770  11.266  10.907  0.0188 -0.1066  0.1013
  273loPI   PO4 4356  10.433  11.220  10.325 -0.0200  0.2206 -0.0362
  273loPI   GL1 4357  10.400  11.072   9.929 -0.5155  0.1647  0.2107
  273loPI   GL2 4358  10.269  11.367   9.867  0.1323  0.1363 -0.2061
  273loPI   C1A 4359  10.667  11.052   9.539  0.0368  0.0389 -0.0003
  273loPI   C2A 4360  10.862  11.047   9.086 -0.1645 -0.1567  0.2135
  273loPI   C3A 4361  10.758  11.038   8.655 -0.1462  0.0055  0.2293
  273loPI   C4A 4362  10.734  11.249   8.252 -0.1072 -0.0285  0.1890
  273loPI   C5A 4363  10.830  11.468   7.808 -0.1721 -0.0210 -0.2399
  273loPI   C6A 4364  11.006  11.765   7.514 -0.2969 -0.0756 -0.0747
  273loPI   C1B 4365  10.178  11.450   9.450  0.1014  0.1164  0.3892
  273loPI   C2B 4366  10.105  11.426   9.062  0.1888  0.1173  0.0113
  273loPI   C3B 4367   9.950  11.467   8.597 -0.0724  0.1467 -0.1985
  273loPI   C4B 4368   9.838  11.300   8.241  0.0048  0.0472  0.0857
  274loPI    C1 4369  13.857   3.137  10.424  0.3089  0.2122 -0.1934
  274loPI    C2 4370  13.522   3.286  10.584  0.0800 -0.1357 -0.3359
  274loPI    C3 4371  13.879   3.401  10.724 -0.1028 -0.0000  0.0321
  274loPI   PO4 4372  13.750   3.069  10.141  0.0093  0.0676 -0.3143
  274loPI   GL1 4373  13.846   3.181   9.814  0.1028 -0.3955 -0.2030
  274loPI   GL2 4374  13.780   3.491   9.841  0.1844 -0.4524 -0.2493
  274loPI   C1A 4375  13.884   2.943   9.404 -0.1826 -0.0872 -0.1528
  274loPI   C2A 4376  13.959   3.051   9.033 -0.1334 -0.1131  0.1210
  274loPI   C3A 4377  14.021   3.041   8.546  0.0582  0.1085 -0.2298
  274loPI   C4A 4378  14.104   2.871   8.196 -0.4601  0.3033 -0.3011
  274loPI   C5A 4379  14.041   2.596   7.845 -0.2493  0.0399 -0.1189
  274loPI   C6A 4380  13.910   2.523   7.525  0.0696 -0.3147  0.0528
  274loPI   C1B 4381  13.720   3.474   9.379  0.2967  0.0166  0.1486
  274loPI   C2B 4382  13.751   3.495   8.907 -0.0025 -0.0185 -0.0651
  274loPI   C3B 4383  13.743   3.615   8.499  0.0515  0.2148  0.0970
  274loPI   C4B 4384  13.607   3.650   8.055 -0.0863  0.1497  0.2285
  275loPI    C1 4385  14.011   2.601  10.277  0.2885 -0.0228  0.3029
  275loPI    C2 4386  13.849   2.288  10.467 -0.1741 -0.0069 -0.0479
  275loPI    C3 4387  13.660   2.641  10.464  0.1777  0.1879  0.0566
  275loPI   PO4 4388  14.057   2.498  10.047  0.1794  0.1957  0.1464
  275loPI   GL1 4389  13.858   2.303   9.746 -0.0832 -0.0002  0.1464
  275loPI   GL2 4390  13.723   2.562   9.689 -0.3296 -0.3687  0.0352
  275loPI   C1A 4391  13.883   2.080   9.404  0.0621  0.2045  0.0710
  275loPI   C2A 4392  13.774   2.164   8.962 -0.1369 -0.1899  0.0052
  275loPI   C3A 4393  13.632   2.180   8.581 -0.1453 -0.0397 -0.2004
  275loPI   C4A 4394  13.223   2.088   8.456 -0.0932  0.0277  0.1133
  275loPI   C5A 4395  12.849   2.298   8.280  0.0383 -0.3956  0.0025
  275loPI   C6A 4396  12.718   2.162   7.933  0.0133  0.4207  0.2238
  275loPI   C1B 4397  13.998   2.558   9.195  0.1361  0.0433 -0.0824
  275loPI   C2B 4398  14.220   2.318   8.974 -0.0784 -0.0023 -0.0373
  275loPI   C3B 4399  14.651   2.174   8.790 -0.0326 -0.0345  0.0952
  275loPI   C4B 4400  14.694   2.067   8.331  0.1592 -0.4582  0.1368
  276loPI    C1 4401  13.097   1.652   9.873  0.0862  0.1779  0.1305
  276loPI    C2 4402  12.884   1.484  10.166 -0.0260  0.0836 -0.0037
  276loPI    C3 4403  13.017   1.859  10.205  0.0924  0.0192  0.2322
  276loPI   PO4 4404  12.952   1.579   9.586  0.2826  0.1684  0.0443
  276loPI   GL1 4405  13.112   1.505   9.273  0.0149 -0.1467  0.0009
  276loPI   GL2 4406  13.094   1.214   9.220 -0.0852  0.0814  0.1029
  276loPI   C1A 4407  12.870   1.718   8.924 -0.2927  0.3058  0.2854
  276loPI   C2A 4408  12.834   1.797   8.523  0.3291  0.2298 -0.4538
  276loPI   C3A 4409  12.965   1.738   8.147  0.3027 -0.2417 -0.2633
  276loPI   C4A 4410  13.186   2.010   7.932  0.1093  0.0910 -0.3905
  276loPI   C5A 4411  13.353   2.412   8.169 -0.1740  0.0149  0.2867
  276loPI   C6A 4412  13.635   2.716   8.312 -0.2045  0.1795  0.0276
  276loPI   C1B 4413  13.303   1.359   8.844 -0.2545 -0.0925 -0.0304
  276loPI   C2B 4414  13.372   1.599   8.560  0.1053  0.0920 -0.0695
  276loPI   C3B 4415  13.598   1.862   8.158  0.2545  0.0072 -0.1700
  276loPI   C4B 4416  13.838   2.159   8.100 -0.2091  0.0309  0.0678
  277loPI    C1 4417   0.117   5.062  10.306 -0.0281 -0.0088  0.0391
  277loPI    C2 4418  -0.196   5.101  10.060  0.2364  0.1011 -0.2879
  277loPI    C3 4419  -0.148   4.764  10.270 -0.4110  0.2997  0.2164
  277loPI   PO4 4420   0.238   5.310  10.134 -0.1986 -0.1348 -0.0307
  277loPI   GL1 4421   0.142   5.294   9.653  0.0302  0.0943 -0.2505
  277loPI   GL2 4422   0.108   4.963   9.685 -0.0617  0.1330 -0.0124
  277loPI   C1A 4423   0.464   5.072   9.384  0.2825 -0.1373 -0.3752
  277loPI   C2A 4424   0.873   5.308   9.286 -0.0170 -0.1068 -0.1469
  277loPI   C3A 4425   1.115   5.229   8.951  0.1903 -0.0536 -0.0190
  277loPI   C4A 4426   1.091   5.258   8.493 -0.3310 -0.0839 -0.4030
  277loPI   C5A 4427   0.704   5.200   8.247  0.1459 -0.3157  0.1731
  277loPI   C6A 4428   0.270   5.247   8.226  0.2459  0.1301 -0.1480
  277loPI   C1B 4429  -0.198   4.722   9.381 -0.3393 -0.2118  0.0179
  277loPI   C2B 4430  -0.342   4.470   8.996 -0.0320 -0.0533 -0.4300
  277loPI   C3B 4431  -0.145   4.674   8.669  0.1735  0.2223  0.0146
  277loPI   C4B 4432  -0.081   5.069   8.509 -0.0145 -0.0467  0.2369
  278loPI    C1 4433   4.470  12.666   9.999  0.1468 -0.0994  0.0198
  278loPI    C2 4434   4.307  13.014  10.111  0.2172 -0.0242 -0.1089
  278loPI    C3 4435   4.613  12.861  10.318  0.1123 -0.0670  0.0158
  278loPI   PO4 4436   4.472  12.627   9.711 -0.1663 -0.2023 -0.0826
  278loPI   GL1 4437   4.742  12.672   9.362  0.1007 -0.1130  0.2145
  278loPI   GL2 4438   4.950  12.442   9.440  0.1408  0.1408 -0.0565
  278loPI   C1A 4439   4.406  12.851   8.950 -0.1514 -0.1452  0.1410
  278loPI   C2A 4440   4.284  12.921   8.473 -0.2039 -0.1302  0.1253
  278loPI   C3A 4441   4.256  12.742   8.027 -0.0758  0.2186  0.1738
  278loPI   C4A 4442   4.582  12.650   7.764  0.2318 -0.1396  0.0254
  278loPI   C5A 4443   5.009  12.506   7.548 -0.0301 -0.0077  0.3298
  278loPI   C6A 4444   5.323  12.087   7.425  0.2036 -0.0127  0.1247
  278loPI   C1B 4445   4.915  12.276   8.999  0.0957 -0.3391  0.1663
  278loPI   C2B 4446   4.976  12.301   8.578 -0.1226  0.2512  0.0053
  278loPI   C3B 4447   5.286  12.182   8.297  0.0811 -0.1005  0.0200
  278loPI   C4B 4448   5.405  12.321   7.900 -0.1411 -0.2029 -0.0753
  279loPI    C1 4449  12.934   8.030  10.986 -0.0435  0.1678  0.1810
  279loPI    C2 4450  12.537   8.057  11.027 -0.0446  0.2676  0.1079
  279loPI    C3 4451  12.754   7.865  11.303 -0.1549  0.1222  0.0946
  279loPI   PO4 4452  12.969   8.081  10.705 -0.2048  0.0804  0.2338
  279loPI   GL1 4453  12.854   8.190  10.192  0.1385 -0.3392  0.0205
  279loPI   GL2 4454  13.080   8.544  10.230 -0.1752 -0.2709 -0.0740
  279loPI   C1A 4455  12.847   8.071   9.728 -0.3703  0.4461  0.2044
  279loPI   C2A 4456  12.874   8.070   9.266 -0.1297  0.2553  0.6007
  279loPI   C3A 4457  13.006   7.937   8.782 -0.1690  0.2698 -0.0726
  279loPI   C4A 4458  13.154   8.020   8.345 -0.2059  0.2033 -0.1879
  279loPI   C5A 4459  13.296   8.312   8.058 -0.4067 -0.3018  0.2556
  279loPI   C6A 4460  13.576   8.647   7.843 -0.2260  0.0402 -0.2986
  279loPI   C1B 4461  13.301   8.492   9.923 -0.1627 -0.1087  0.0586
  279loPI   C2B 4462  13.212   8.379   9.522  0.0181 -0.0829 -0.0566
  279loPI   C3B 4463  13.213   8.494   9.050 -0.1449  0.0533  0.1600
  279loPI   C4B 4464  13.280   8.374   8.640  0.1795  0.1617  0.0637
  280loPI    C1 4465   8.890  17.244  10.012 -0.0621 -0.0867 -0.2598
  280loPI    C2 4466   8.714  17.221  10.371 -0.0239  0.1158 -0.2265
  280loPI    C3 4467   9.050  17.015  10.298 -0.0583  0.0367 -0.1622
  280loPI   PO4 4468   8.706  17.383   9.809  0.1318 -0.0384 -0.2656
  280loPI   GL1 4469   8.695  17.652   9.470 -0.0143  0.2617  0.1890
  280loPI   GL2 4470   8.366  17.515   9.277 -0.0911 -0.1437 -0.0405
  280loPI   C1A 4471   8.785  17.682   9.041  0.3155  0.0782  0.4874
  280loPI   C2A 4472   8.770  17.596   8.641  0.2133 -0.0513  0.2412
  280loPI   C3A 4473   8.695  17.543   8.287  0.3523 -0.3022 -0.0407
  280loPI   C4A 4474   8.706  17.432   7.796  0.2745 -0.0960 -0.1241
  280loPI   C5A 4475   8.818  17.455   7.416  0.2855  0.0129 -0.0834
  280loPI   C6A 4476   8.388  17.321   7.190 -0.2607 -0.0162  0.0988
  280loPI   C1B 4477   8.275  17.732   8.900 -0.0191  0.0981 -0.0567
  280loPI   C2B 4478   8.224  17.550   8.462 -0.1534  0.2691 -0.1872
  280loPI   C3B 4479   8.284  17.410   8.049  0.2058 -0.3411 -0.0143
  280loPI   C4B 4480   8.179  16.964   7.861  0.1421  0.0096 -0.0328
  281loPI    C1 4481   9.193  18.460  10.114 -0.0476 -0.0162  0.1776
  281loPI    C2 4482   9.536  18.446   9.909 -0.1112 -0.0981  0.0752
  281loPI    C3 4483   9.471  18.187  10.206 -0.0794 -0.0745  0.1028
  281loPI   PO4 4484   8.958  18.368  10.028 -0.1271 -0.2097 -0.1122
  281loPI   GL1 4485   8.843  18.211   9.691 -0.1443  0.0235  0.0846
  281loPI   GL2 4486   9.189  18.202   9.609  0.0474  0.1592  0.2158
  281loPI   C1A 4487   8.844  18.152   9.251 -0.0647  0.0972 -0.2275
  281loPI   C2A 4488   8.656  18.198   8.795 -0.2232  0.1235  0.0286
  281loPI   C3A 4489   8.649  18.179   8.375 -0.1300  0.0717  0.1493
  281loPI   C4A 4490   8.409  18.355   7.915  0.2438  0.1050  0.2848
  281loPI   C5A 4491   8.335  18.751   7.774 -0.0073  0.1330  0.1637
  281loPI   C6A 4492   8.523  19.118   7.437 -0.0315  0.1061 -0.5465
  281loPI   C1B 4493   9.191  18.507   9.280 -0.0397  0.0058  0.4387
  281loPI   C2B 4494   9.033  18.519   8.938  0.0207 -0.1993  0.1054
  281loPI   C3B 4495   8.973  18.595   8.552  0.5504 -0.0281 -0.0131
  281loPI   C4B 4496   8.728  18.719   8.193  0.0234 -0.0020  0.3021
  282loPI    C1 4497   5.506  14.598   9.481  0.1400 -0.0146  0.0663
  282loPI    C2 4498   5.673  14.777   9.797  0.1074  0.1456 -0.0067
  282loPI    C3 4499   5.824  14.835   9.431  0.1651 -0.0656 -0.0171
  282loPI   PO4 4500   5.484  14.364   9.576 -0.0719 -0.1563 -0.0241
  282loPI   GL1 4501   5.506  13.991   9.274  0.0631  0.1002  0.1926
  282loPI   GL2 4502   5.244  14.089   9.162 -0.0077 -0.3689  0.3970
  282loPI   C1A 4503   5.763  13.987   8.883  0.2466  0.0192 -0.0965
  282loPI   C2A 4504   5.691  13.984   8.579  0.0543  0.3075 -0.0778
  282loPI   C3A 4505   5.771  14.045   8.049 -0.0460  0.3397 -0.0360
  282loPI   C4A 4506   6.091  13.852   7.738 -0.1455  0.0102  0.0175
  282loPI   C5A 4507   6.463  13.758   7.529 -0.1002 -0.1108  0.0113
  282loPI   C6A 4508   6.564  13.640   7.046 -0.2722  0.1085 -0.0112
  282loPI   C1B 4509   5.013  14.025   8.835 -0.4291 -0.3258 -0.0442
  282loPI   C2B 4510   5.124  13.980   8.453  0.2147  0.0735 -0.1274
  282loPI   C3B 4511   5.029  13.953   8.039  0.2392 -0.2689 -0.0168
  282loPI   C4B 4512   4.899  13.924   7.657  0.3527 -0.0884  0.2135
  283loPI    C1 4513  18.729   8.799  10.439 -0.0401 -0.3544 -0.0669
  283loPI    C2 4514  18.638   8.661  10.804  0.0690 -0.0393  0.0826
  283loPI    C3 4515  19.003   8.602  10.653  0.0157 -0.1931  0.0112
  283loPI   PO4 4516  18.602   8.678  10.204  0.0635 -0.0352 -0.0163
  283loPI   GL1 4517  18.426   8.578   9.803 -0.0483 -0.3329  0.1302
  283loPI   GL2 4518  18.691   8.539   9.658 -0.0563 -0.4387 -0.0346
  283loPI   C1A 4519  18.246   8.337   9.555 -0.2250 -0.1426  0.1526
  283loPI   C2A 4520  18.075   8.281   9.165 -0.0324  0.2120 -0.1412
  283loPI   C3A 4521  17.709   8.232   8.909 -0.2107 -0.0731 -0.1650
  283loPI   C4A 4522  17.603   8.475   8.524  0.2048  0.2453 -0.1329
  283loPI   C5A 4523  17.392   8.407   8.100 -0.1370  0.1504 -0.0972
  283loPI   C6A 4524  17.503   8.623   7.681  0.2986  0.1410  0.1534
  283loPI   C1B 4525  18.538   8.528   9.218 -0.2029  0.0712  0.0603
  283loPI   C2B 4526  18.457   8.547   8.825 -0.1754  0.0137 -0.0034
  283loPI   C3B 4527  18.156   8.530   8.427 -0.1518 -0.1083 -0.2200
  283loPI   C4B 4528  17.952   8.581   8.005  0.3446 -0.0302 -0.0052
  284loPI    C1 4529   6.628  16.056   9.910 -0.0889  0.1756  0.0723
  284loPI    C2 4530   6.625  15.699  10.091 -0.1500  0.1910  0.1020
  284loPI    C3 4531   6.779  16.017  10.279  0.3429  0.0860 -0.1075
  284loPI   PO4 4532   6.715  16.079   9.653 -0.1189  0.0609  0.0904
  284loPI   GL1 4533   6.698  16.238   9.276 -0.1944  0.3580  0.0290
  284loPI   GL2 4534   6.593  16.414   8.890  0.3966  0.1954  0.1926
  284loPI   C1A 4535   7.049  16.120   8.948 -0.1087  0.5724 -0.1454
  284loPI   C2A 4536   7.168  16.156   8.506 -0.0713 -0.0077  0.1849
  284loPI   C3A 4537   7.116  15.977   8.086  0.1112 -0.4031 -0.1292
  284loPI   C4A 4538   7.235  16.057   7.707 -0.3857 -0.0703  0.0410
  284loPI   C5A 4539   7.334  16.344   7.327 -0.1062  0.1544  0.0256
  284loPI   C6A 4540   7.411  16.805   7.232  0.1510  0.2360 -0.1640
  284loPI   C1B 4541   6.767  16.376   8.433  0.0606 -0.1251 -0.2040
  284loPI   C2B 4542   6.988  16.481   8.038 -0.1190  0.1830  0.0646
  284loPI   C3B 4543   7.273  16.590   7.785  0.0711 -0.1456  0.0367
  284loPI   C4B 4544   7.524  16.880   7.716 -0.0591  0.0115  0.4568
  285loPI    C1 4545  18.646   7.820  10.668  0.1885 -0.0625 -0.0806
  285loPI    C2 4546  18.315   8.022  10.764  0.1934 -0.0103 -0.1732
  285loPI    C3 4547  18.333   7.627  10.825  0.0621 -0.0364 -0.2969
  285loPI   PO4 4548  18.705   7.787  10.443 -0.1439  0.1620 -0.0995
  285loPI   GL1 4549  18.744   7.742  10.049  0.0403  0.0973 -0.1535
  285loPI   GL2 4550  18.756   8.111   9.968 -0.2958  0.2633  0.2551
  285loPI   C1A 4551  18.889   7.649   9.642  0.0976 -0.1310 -0.2977
  285loPI   C2A 4552  18.928   7.834   9.254  0.1417 -0.0276  0.0175
  285loPI   C3A 4553  18.849   7.605   8.863  0.2024  0.0071  0.0081
  285loPI   C4A 4554  18.604   7.704   8.501  0.0791  0.0251 -0.3056
  285loPI   C5A 4555  18.722   7.808   8.037  0.0737  0.4311 -0.3488
  285loPI   C6A 4556  18.496   7.601   7.639  0.2596 -0.0684 -0.0828
  285loPI   C1B 4557  18.607   8.000   9.550 -0.1431 -0.1192  0.1502
  285loPI   C2B 4558  18.511   8.003   9.002  0.0047 -0.1872  0.2021
  285loPI   C3B 4559  18.269   8.100   8.662  0.0177  0.1486  0.1306
  285loPI   C4B 4560  18.011   7.741   8.565  0.2574  0.1503  0.0109
  286loPI    C1 4561   2.466   0.459  10.360  0.1857  0.1776  0.0995
  286loPI    C2 4562   2.182   0.320  10.605  0.1074  0.2641  0.0584
  286loPI    C3 4563   2.567   0.243  10.681  0.0661  0.0380  0.0444
  286loPI   PO4 4564   2.360   0.374  10.059  0.0687  0.1962 -0.1629
  286loPI   GL1 4565   2.185   0.426   9.711 -0.2433 -0.0055 -0.1027
  286loPI   GL2 4566   2.022   0.159   9.760 -0.3971 -0.0822  0.1359
  286loPI   C1A 4567   2.130   0.641   9.213 -0.2782  0.0873  0.0151
  286loPI   C2A 4568   2.293   0.837   8.871 -0.1222 -0.3826  0.0053
  286loPI   C3A 4569   2.143   1.156   8.656 -0.0389 -0.1632 -0.1894
  286loPI   C4A 4570   2.141   1.207   8.225  0.0931  0.1727 -0.1488
  286loPI   C5A 4571   2.084   1.297   7.805 -0.2251 -0.1492  0.4804
  286loPI   C6A 4572   2.066   1.369   7.392  0.0666 -0.0507  0.0791
  286loPI   C1B 4573   2.458   0.261   9.373 -0.1932 -0.0374 -0.1644
  286loPI   C2B 4574   2.652   0.508   9.063  0.0013  0.0435 -0.2474
  286loPI   C3B 4575   3.085   0.397   8.980  0.2838 -0.0429 -0.1724
  286loPI   C4B 4576   3.340   0.702   8.956 -0.2168  0.0938  0.2377
  287loPI    C1 4577  10.760  16.358  10.089  0.0568  0.1057  0.0345
  287loPI    C2 4578  10.687  16.567  10.422  0.1134  0.0398  0.0886
  287loPI    C3 4579  10.799  16.184  10.447 -0.0905 -0.0282 -0.0132
  287loPI   PO4 4580  10.921  16.465   9.961 -0.2837  0.3348 -0.0146
  287loPI   GL1 4581  11.214  16.397   9.497  0.1320  0.0222  0.1779
  287loPI   GL2 4582  11.076  16.145   9.549  0.0146  0.2094  0.4279
  287loPI   C1A 4583  11.317  16.800   9.277  0.0249 -0.0238 -0.2068
  287loPI   C2A 4584  11.045  16.929   9.003  0.0699 -0.0063 -0.0334
  287loPI   C3A 4585  10.892  17.062   8.659  0.1851 -0.2059  0.3128
  287loPI   C4A 4586  10.841  17.032   8.293  0.1273 -0.1698 -0.0113
  287loPI   C5A 4587  10.898  17.050   7.843  0.0431  0.0154  0.0162
  287loPI   C6A 4588  11.012  17.255   7.493  0.1324 -0.2148 -0.0302
  287loPI   C1B 4589  10.910  16.039   9.179  0.0979  0.1748 -0.0977
  287loPI   C2B 4590  10.825  16.108   8.863  0.0444  0.2542  0.1519
  287loPI   C3B 4591  11.116  15.993   8.591  0.1878 -0.0843 -0.0957
  287loPI   C4B 4592  11.460  15.880   8.291 -0.2112  0.0197 -0.2368
  288loPI    C1 4593  12.370  12.640  10.796 -0.0214  0.3632 -0.0029
  288loPI    C2 4594  12.036  12.523  10.982  0.0704 -0.1501 -0.1437
  288loPI    C3 4595  12.361  12.618  11.195 -0.0629  0.0319 -0.0189
  288loPI   PO4 4596  12.320  12.769  10.556 -0.1998  0.1328 -0.0325
  288loPI   GL1 4597  12.455  12.979  10.179 -0.1196 -0.1370 -0.1686
  288loPI   GL2 4598  12.743  13.085  10.074 -0.0117 -0.0333 -0.0509
  288loPI   C1A 4599  12.638  12.726   9.765  0.1703 -0.1752 -0.0835
  288loPI   C2A 4600  12.470  12.562   9.310 -0.2671  0.0757 -0.0500
  288loPI   C3A 4601  12.338  12.713   8.911  0.0010 -0.1321 -0.0651
  288loPI   C4A 4602  12.495  12.930   8.541 -0.1169 -0.1170 -0.1913
  288loPI   C5A 4603  12.631  13.150   8.057 -0.0383  0.0472 -0.0431
  288loPI   C6A 4604  12.787  13.342   7.687 -0.0051 -0.0661 -0.2755
  288loPI   C1B 4605  12.960  13.130   9.589 -0.0720  0.4254 -0.0629
  288loPI   C2B 4606  12.845  12.916   9.272  0.4424  0.0708 -0.1612
  288loPI   C3B 4607  12.721  13.182   8.946 -0.1516  0.0261 -0.1630
  288loPI   C4B 4608  12.556  13.444   8.571  0.1124 -0.2224  0.1022
  289loPI    C1 4609   0.265  13.857  10.629 -0.1546  0.0840  0.0873
  289loPI    C2 4610   0.646  13.748  10.683 -0.0854  0.2087 -0.1353
  289loPI    C3 4611   0.429  13.877  10.994  0.0806  0.2223 -0.0236
  289loPI   PO4 4612   0.205  13.665  10.443 -0.2695 -0.2062  0.0612
  289loPI   GL1 4613   0.226  13.289  10.092 -0.2429 -0.0956 -0.2186
  289loPI   GL2 4614   0.030  13.571   9.990 -0.0742 -0.1602 -0.1116
  289loPI   C1A 4615   0.087  13.035   9.855  0.2841 -0.1898  0.1995
  289loPI   C2A 4616  -0.050  12.895   9.391  0.0405  0.0444  0.1395
  289loPI   C3A 4617  -0.295  12.733   8.928  0.1180  0.3590  0.1889
  289loPI   C4A 4618  -0.357  12.662   8.495  0.0323 -0.2301 -0.1047
  289loPI   C5A 4619  -0.342  12.639   7.989 -0.1159  0.3171  0.2390
  289loPI   C6A 4620  -0.465  12.390   7.710  0.1813 -0.3116 -0.0510
  289loPI   C1B 4621  -0.093  13.642   9.569  0.2147 -0.1063  0.0469
  289loPI   C2B 4622  -0.174  13.780   9.115 -0.0762  0.0670 -0.1758
  289loPI   C3B 4623  -0.371  13.747   8.769  0.0005 -0.2645  0.3597
  289loPI   C4B 4624  -0.637  13.676   8.516 -0.2453  0.1889 -0.2517
  290loPI    C1 4625  13.203   4.020  10.193  0.1348 -0.2711  0.1773
  290loPI    C2 4626  13.297   4.248  10.508 -0.0561 -0.0042  0.0445
  290loPI    C3 4627  12.929   4.095  10.475 -0.0710  0.0608 -0.1021
  290loPI   PO4 4628  13.440   3.904  10.160  0.2502  0.2356 -0.0832
  290loPI   GL1 4629  13.543   4.110   9.726  0.3046  0.0592  0.1625
  290loPI   GL2 4630  13.319   4.362   9.719 -0.2329  0.1798  0.3553
  290loPI   C1A 4631  13.492   3.968   9.298  0.1160 -0.0614  0.0013
  290loPI   C2A 4632  13.435   3.952   8.813  0.1277  0.0318 -0.0021
  290loPI   C3A 4633  13.425   3.931   8.434 -0.0015 -0.1467  0.0205
  290loPI   C4A 4634  13.278   3.988   7.942  0.0270 -0.0995  0.0350
  290loPI   C5A 4635  13.165   4.301   7.588  0.1942 -0.0875 -0.2701
  290loPI   C6A 4636  13.422   4.347   7.216  0.2836 -0.0859 -0.0589
  290loPI   C1B 4637  13.366   4.531   9.321 -0.0026  0.2461 -0.1203
  290loPI   C2B 4638  13.186   4.456   8.936 -0.1896 -0.0154  0.1304
  290loPI   C3B 4639  13.076   4.266   8.554 -0.0279 -0.1573 -0.0564
  290loPI   C4B 4640  12.914   4.372   8.101  0.2420  0.4032 -0.1829
  291loPI    C1 4641  14.374   5.888  10.557 -0.0180 -0.0919  0.0279
  291loPI    C2 4642  14.693   5.763  10.763  0.0867  0.0429 -0.0508
  291loPI    C3 4643  14.661   6.148  10.657  0.0143 -0.0171 -0.2510
  291loPI   PO4 4644  14.363   5.657  10.312  0.1131 -0.1216  0.0692
  291loPI   GL1 4645  14.411   5.821   9.911  0.1355  0.1174 -0.1212
  291loPI   GL2 4646  14.744   5.978   9.757 -0.1401 -0.0552 -0.1720
  291loPI   C1A 4647  14.352   5.779   9.484  0.0413 -0.4004 -0.0935
  291loPI   C2A 4648  14.409   5.879   9.036  0.3000  0.1160 -0.0321
  291loPI   C3A 4649  14.583   5.827   8.623  0.0739 -0.1274  0.2554
  291loPI   C4A 4650  14.974   5.786   8.453 -0.0044 -0.1749  0.0046
  291loPI   C5A 4651  15.397   5.797   8.253 -0.2620 -0.3966  0.2577
  291loPI   C6A 4652  15.530   5.939   7.845 -0.0588 -0.0095  0.0967
  291loPI   C1B 4653  14.806   5.888   9.318 -0.0485 -0.2255  0.2712
  291loPI   C2B 4654  14.942   5.951   8.944  0.2475 -0.0013 -0.0023
  291loPI   C3B 4655  15.300   6.165   8.754  0.0364  0.1796  0.4583
  291loPI   C4B 4656  15.530   6.238   8.475  0.1413  0.0476 -0.0180
  292loPI    C1 4657   7.765  18.538   9.949 -0.2665 -0.1041 -0.0052
  292loPI    C2 4658   8.082  18.740  10.084 -0.0442 -0.2051 -0.3614
  292loPI    C3 4659   7.820  18.583  10.342 -0.0780  0.3031 -0.0733
  292loPI   PO4 4660   7.727  18.682   9.713 -0.4647  0.0100  0.1391
  292loPI   GL1 4661   7.790  18.792   9.306  0.3229  0.0809  0.5521
  292loPI   GL2 4662   7.755  18.447   9.178  0.0788 -0.0952  0.2140
  292loPI   C1A 4663   7.903  18.935   8.851  0.2068 -0.0078 -0.0495
  292loPI   C2A 4664   7.794  18.895   8.415  0.2824 -0.3034 -0.0687
  292loPI   C3A 4665   7.818  18.883   8.033 -0.0853  0.0269 -0.1997
  292loPI   C4A 4666   8.102  19.169   7.750  0.0403  0.1972  0.0735
  292loPI   C5A 4667   8.148  19.576   7.856  0.2081 -0.2083  0.0909
  292loPI   C6A 4668   8.088  20.040   7.748  0.2593  0.1097 -0.1599
  292loPI   C1B 4669   7.656  18.451   8.723 -0.0442 -0.1901 -0.1223
  292loPI   C2B 4670   7.633  18.406   8.301 -0.2194  0.0326 -0.0493
  292loPI   C3B 4671   7.844  18.291   7.916 -0.2096 -0.3761 -0.1337
  292loPI   C4B 4672   8.052  18.124   7.511 -0.2444 -0.0754 -0.3258
  293loPI    C1 4673  10.652   1.424  10.160 -0.0452  0.1569 -0.1170
  293loPI    C2 4674  10.464   1.687  10.395 -0.0014  0.2557 -0.1915
  293loPI    C3 4675  10.859   1.632  10.433 -0.0114  0.1959 -0.1722
  293loPI   PO4 4676  10.663   1.405   9.929 -0.1814 -0.1702  0.0164
  293loPI   GL1 4677  10.489   1.421   9.545 -0.0378 -0.0132  0.1282
  293loPI   GL2 4678  10.154   1.421   9.335 -0.0341  0.0842 -0.3259
  293loPI   C1A 4679  10.643   1.488   9.124  0.0334 -0.0835  0.0760
  293loPI   C2A 4680  10.672   1.675   8.807  0.4158 -0.1535  0.1585
  293loPI   C3A 4681  10.750   1.831   8.354 -0.1553  0.0686 -0.0634
  293loPI   C4A 4682  10.448   1.937   8.200  0.0307  0.1459  0.1237
  293loPI   C5A 4683  10.159   1.919   7.826  0.1042  0.1854 -0.2638
  293loPI   C6A 4684   9.788   1.779   7.579  0.0035 -0.0529  0.0220
  293loPI   C1B 4685  10.187   1.525   8.928  0.1300  0.0717  0.1795
  293loPI   C2B 4686  10.213   1.763   8.641 -0.2163 -0.0097 -0.1277
  293loPI   C3B 4687  10.085   1.531   8.238 -0.5999 -0.1590  0.0849
  293loPI   C4B 4688   9.742   1.544   7.978  0.2476 -0.3589  0.1905
  294loPI    C1 4689  10.437  11.762  10.287  0.0633 -0.1175  0.0077
  294loPI    C2 4690  10.102  11.793  10.504  0.0302 -0.0727 -0.0495
  294loPI    C3 4691  10.458  11.863  10.674 -0.0194  0.3167 -0.0961
  294loPI   PO4 4692  10.267  11.867  10.031 -0.0273 -0.1250 -0.1791
  294loPI   GL1 4693  10.437  11.962   9.659 -0.0014 -0.1146  0.1793
  294loPI   GL2 4694  10.546  11.666   9.625 -0.1759 -0.2002 -0.0773
  294loPI   C1A 4695  10.374  11.895   9.149  0.4938 -0.1432 -0.0397
  294loPI   C2A 4696  10.213  11.898   8.698  0.1911  0.0536 -0.0313
  294loPI   C3A 4697  10.130  12.007   8.351  0.2024  0.1478 -0.0282
  294loPI   C4A 4698  10.052  12.238   8.005  0.0441 -0.0179  0.0871
  294loPI   C5A 4699   9.851  12.516   7.928 -0.3420 -0.3360  0.1533
  294loPI   C6A 4700   9.754  12.862   8.098 -0.1767  0.0484 -0.0080
  294loPI   C1B 4701  10.620  11.445   9.096 -0.1420 -0.0388  0.1424
  294loPI   C2B 4702  10.509  11.457   8.714  0.3233  0.1702  0.0823
  294loPI   C3B 4703  10.303  11.454   8.306 -0.0949  0.1766  0.1729
  294loPI   C4B 4704  10.069  11.660   7.963  0.0248 -0.4528  0.0475
  295loPI    C1 4705  11.933  14.388  10.478 -0.1710  0.0459 -0.2440
  295loPI    C2 4706  11.827  14.687  10.234  0.1506  0.3058 -0.0728
  295loPI    C3 4707  11.774  14.723  10.629  0.2022  0.1413 -0.0502
  295loPI   PO4 4708  12.178  14.277  10.333  0.0860  0.0952 -0.3086
  295loPI   GL1 4709  12.246  14.564  10.067  0.1328 -0.1013  0.2608
  295loPI   GL2 4710  12.529  14.506   9.988 -0.2658 -0.0784  0.0821
  295loPI   C1A 4711  12.046  14.703   9.740 -0.0611  0.1124  0.3851
  295loPI   C2A 4712  12.117  14.678   9.333 -0.1824 -0.2328  0.0519
  295loPI   C3A 4713  12.144  14.685   8.892 -0.1836 -0.3639  0.0480
  295loPI   C4A 4714  12.326  14.625   8.486  0.0148  0.1106  0.0108
  295loPI   C5A 4715  12.698  14.892   8.278 -0.2348  0.1658  0.1182
  295loPI   C6A 4716  13.027  15.131   8.110 -0.1000  0.4672  0.0021
  295loPI   C1B 4717  12.631  14.621   9.589  0.4278  0.0352 -0.0533
  295loPI   C2B 4718  12.882  14.645   9.298  0.1933  0.1821 -0.3340
  295loPI   C3B 4719  13.222  14.567   8.966 -0.3417 -0.3297 -0.1530
  295loPI   C4B 4720  13.522  14.231   9.011  0.0316  0.2157  0.4106
  296loPI    C1 4721   3.023   7.122   9.886  0.2688 -0.0260 -0.1530
  296loPI    C2 4722   3.030   6.894   9.558 -0.2620 -0.1256 -0.1029
  296loPI    C3 4723   3.003   6.724   9.919 -0.2546  0.0020 -0.0419
  296loPI   PO4 4724   2.801   7.305   9.777  0.1681  0.4340 -0.0287
  296loPI   GL1 4725   2.622   7.407   9.388 -0.3228 -0.1551  0.4510
  296loPI   GL2 4726   2.644   7.685   9.172 -0.0257 -0.1119 -0.2495
  296loPI   C1A 4727   2.845   7.130   8.975  0.1573 -0.0406  0.0609
  296loPI   C2A 4728   2.670   6.982   8.518 -0.0566  0.0237 -0.2600
  296loPI   C3A 4729   2.725   6.581   8.210  0.0933 -0.4046  0.3774
  296loPI   C4A 4730   3.062   6.590   7.869  0.1830 -0.0679  0.0756
  296loPI   C5A 4731   3.255   6.905   7.608  0.3638  0.0993  0.2570
  296loPI   C6A 4732   3.492   7.196   7.570 -0.2583 -0.1373 -0.3262
  296loPI   C1B 4733   2.555   7.478   8.823 -0.0299 -0.0219 -0.2437
  296loPI   C2B 4734   2.446   7.541   8.267 -0.1412 -0.1202 -0.1762
  296loPI   C3B 4735   2.356   7.229   7.927 -0.3794 -0.1954 -0.0219
  296loPI   C4B 4736   2.622   6.878   7.697 -0.1734  0.1833 -0.4071
  297loPI    C1 4737   0.067   0.227  10.491 -0.0120  0.1563 -0.0200
  297loPI    C2 4738   0.251   0.214  10.846  0.0060  0.0055 -0.0344
  297loPI    C3 4739  -0.065   0.453  10.794  0.0027  0.0276  0.0835
  297loPI   PO4 4740   0.257   0.247  10.321 -0.1518 -0.0058  0.3251
  297loPI   GL1 4741   0.337   0.460   9.812 -0.1811  0.3073 -0.3445
  297loPI   GL2 4742   0.625   0.364   9.906 -0.1395  0.0734 -0.2110
  297loPI   C1A 4743   0.317   0.533   9.378  0.0170 -0.1704  0.0251
  297loPI   C2A 4744   0.286   0.514   8.983  0.1204  0.1075 -0.1987
  297loPI   C3A 4745   0.301   0.543   8.536  0.1275 -0.0400  0.1267
  297loPI   C4A 4746   0.498   0.464   8.140 -0.1140  0.1819  0.1134
  297loPI   C5A 4747   0.900   0.699   8.062 -0.0341  0.1236 -0.0864
  297loPI   C6A 4748   0.950   1.040   7.737 -0.2650 -0.0334 -0.2784
  297loPI   C1B 4749   0.731   0.342   9.488 -0.1349 -0.2403 -0.2248
  297loPI   C2B 4750   0.715   0.340   9.041 -0.0872 -0.0619  0.1412
  297loPI   C3B 4751   0.835   0.360   8.629 -0.2141  0.0597  0.0778
  297loPI   C4B 4752   1.056   0.254   8.211  0.2351  0.1026 -0.0960
  298loPI    C1 4753   2.159   4.983   9.999 -0.0146 -0.1286 -0.1511
  298loPI    C2 4754   2.308   5.354  10.020 -0.1585 -0.0796  0.0244
  298loPI    C3 4755   2.344   5.106  10.332 -0.3393 -0.1070  0.0244
  298loPI   PO4 4756   2.283   4.908   9.768  0.0290 -0.1615 -0.5665
  298loPI   GL1 4757   2.180   4.910   9.340 -0.0757  0.0521 -0.0465
  298loPI   GL2 4758   2.047   5.198   9.301 -0.0479 -0.3330 -0.4337
  298loPI   C1A 4759   2.313   4.815   8.886  0.1672 -0.6424 -0.0402
  298loPI   C2A 4760   2.512   4.692   8.508  0.1146  0.3857  0.1374
  298loPI   C3A 4761   2.841   4.556   8.238 -0.2922  0.0591  0.1978
  298loPI   C4A 4762   3.169   4.705   8.083  0.2328  0.1205  0.1410
  298loPI   C5A 4763   3.359   4.774   7.679 -0.1092  0.0970 -0.4048
  298loPI   C6A 4764   3.352   4.853   7.223  0.3019 -0.1367 -0.1860
  298loPI   C1B 4765   2.171   5.285   8.800 -0.1013 -0.2325 -0.4679
  298loPI   C2B 4766   2.119   5.173   8.409  0.1775 -0.1268 -0.2229
  298loPI   C3B 4767   1.865   4.947   8.144  0.0787  0.0114 -0.3776
  298loPI   C4B 4768   1.899   4.652   7.805  0.0337 -0.1166  0.0271
  299loPI    C1 4769   7.258   7.465  10.120  0.4844 -0.1344 -0.0983
  299loPI    C2 4770   7.353   7.657  10.458  0.0344 -0.0527 -0.0116
  299loPI    C3 4771   7.482   7.283  10.396  0.1070 -0.0739  0.2571
  299loPI   PO4 4772   7.278   7.582   9.951 -0.0029  0.1744 -0.2308
  299loPI   GL1 4773   7.235   7.669   9.617 -0.4702 -0.0114 -0.0005
  299loPI   GL2 4774   7.470   7.336   9.595 -0.3333  0.1736  0.3224
  299loPI   C1A 4775   7.555   7.924   9.343  0.1424 -0.2131 -0.1071
  299loPI   C2A 4776   7.605   7.853   8.860 -0.1623 -0.0828 -0.0066
  299loPI   C3A 4777   7.733   7.528   8.457  0.3085  0.3021  0.2700
  299loPI   C4A 4778   7.860   7.355   8.107 -0.1258  0.0722  0.0651
  299loPI   C5A 4779   7.484   7.239   7.958 -0.0643 -0.0121 -0.3135
  299loPI   C6A 4780   7.058   7.371   7.800  0.0475  0.1746  0.1081
  299loPI   C1B 4781   7.522   7.343   9.141  0.1742 -0.1648  0.2040
  299loPI   C2B 4782   7.757   7.210   8.859  0.0943  0.0955 -0.1379
  299loPI   C3B 4783   7.591   7.071   8.490  0.4073 -0.2291 -0.0065
  299loPI   C4B 4784   7.080   7.097   8.242  0.0515  0.1929 -0.1508
  300loPI    C1 4785  17.902  10.205  10.668  0.0295  0.0876  0.0855
  300loPI    C2 4786  17.718   9.950  10.915 -0.0868  0.1300  0.0434
  300loPI    C3 4787  17.906  10.270  11.063  0.0291  0.0399  0.0934
  300loPI   PO4 4788  17.769  10.218  10.426 -0.0344  0.1540  0.0201
  300loPI   GL1 4789  17.772  10.434   9.996 -0.1825  0.1473  0.0767
  300loPI   GL2 4790  17.346  10.495   9.923 -0.2181  0.1842  0.1996
  300loPI   C1A 4791  18.020  10.461   9.612 -0.0534  0.1976  0.0531
  300loPI   C2A 4792  18.452  10.371   9.480  0.1679  0.1852 -0.1676
  300loPI   C3A 4793  18.633  10.473   9.154  0.4045 -0.1290  0.0663
  300loPI   C4A 4794  18.447  10.629   8.710 -0.0608  0.1780 -0.0847
  300loPI   C5A 4795  18.380  10.796   8.365  0.1904 -0.0691  0.1059
  300loPI   C6A 4796  18.335  11.071   8.005 -0.0008  0.1551  0.3927
  300loPI   C1B 4797  17.416  10.799   9.566 -0.1303  0.3763  0.0187
  300loPI   C2B 4798  17.297  11.170   9.422  0.0769  0.1271 -0.1796
  300loPI   C3B 4799  17.465  11.396   9.129  0.1848 -0.2736 -0.0432
  300loPI   C4B 4800  17.671  11.761   9.098  0.1932  0.1335  0.3333
  301loPI    C1 4801   8.544   0.551  10.347 -0.0920 -0.0069 -0.1369
  301loPI    C2 4802   8.908   0.525  10.512 -0.0242  0.0152 -0.2817
  301loPI    C3 4803   8.734   0.883  10.464 -0.0681  0.0041 -0.2063
  301loPI   PO4 4804   8.466   0.325  10.104  0.1694  0.4104 -0.0570
  301loPI   GL1 4805   8.767   0.222   9.753  0.0880  0.4601  0.2728
  301loPI   GL2 4806   9.044  -0.050   9.691 -0.1335 -0.2252 -0.0697
  301loPI   C1A 4807   8.877   0.287   9.262  0.1812 -0.1828 -0.0490
  301loPI   C2A 4808   8.817   0.300   8.835  0.3943 -0.2780  0.2172
  301loPI   C3A 4809   8.921   0.403   8.368 -0.0935 -0.2785  0.1985
  301loPI   C4A 4810   8.982   0.305   8.077 -0.3984 -0.0426  0.0669
  301loPI   C5A 4811   9.217   0.426   7.685 -0.1654  0.1941 -0.1314
  301loPI   C6A 4812   9.354   0.321   7.235  0.0297 -0.1917 -0.2816
  301loPI   C1B 4813   8.704  -0.149   9.359  0.1713  0.0040 -0.2441
  301loPI   C2B 4814   8.537  -0.135   8.952 -0.1106 -0.0755 -0.2794
  301loPI   C3B 4815   8.418  -0.056   8.575  0.0606 -0.2263 -0.3807
  301loPI   C4B 4816   8.186  -0.163   8.281  0.1064 -0.0405  0.3099
  302loPI    C1 4817   2.271   2.363  10.066 -0.2774  0.0079 -0.3129
  302loPI    C2 4818   2.109   2.618  10.328  0.1847  0.0231 -0.0306
  302loPI    C3 4819   2.213   2.745   9.963 -0.2656  0.0532 -0.1541
  302loPI   PO4 4820   2.159   2.226   9.983 -0.0512 -0.0491  0.0996
  302loPI   GL1 4821   1.998   2.190   9.649  0.0961 -0.1805  0.3628
  302loPI   GL2 4822   1.723   2.121   9.777 -0.1975  0.1492 -0.2816
  302loPI   C1A 4823   2.148   2.203   9.204 -0.2597 -0.0980  0.1170
  302loPI   C2A 4824   2.288   1.924   8.848  0.1366 -0.0963  0.1815
  302loPI   C3A 4825   2.097   1.625   8.599 -0.0311  0.0640 -0.1042
  302loPI   C4A 4826   1.834   1.496   8.401  0.3102 -0.0453 -0.1056
  302loPI   C5A 4827   1.635   1.396   8.089  0.0763  0.1320 -0.1450
  302loPI   C6A 4828   1.345   1.339   7.923  0.4215 -0.1947  0.0093
  302loPI   C1B 4829   1.611   2.193   9.317 -0.2707 -0.0286  0.2256
  302loPI   C2B 4830   1.685   1.970   8.896 -0.0076  0.1083 -0.1213
  302loPI   C3B 4831   1.840   1.995   8.468 -0.1719  0.3554 -0.3220
  302loPI   C4B 4832   2.189   2.100   8.324 -0.0867 -0.0084  0.1387
  303loPI    C1 4833   2.424  13.040  10.213  0.1253 -0.0454  0.0131
  303loPI    C2 4834   2.414  13.406  10.052 -0.2318 -0.0341  0.0539
  303loPI    C3 4835   2.373  13.360  10.448  0.0856 -0.1014  0.0815
  303loPI   PO4 4836   2.468  12.896  10.000  0.1520  0.1482 -0.1060
  303loPI   GL1 4837   2.382  12.880   9.653  0.1762 -0.2161  0.0439
  303loPI   GL2 4838   2.065  12.689   9.695 -0.1560 -0.3499  0.0994
  303loPI   C1A 4839   2.305  13.244   9.378 -0.2973  0.1427 -0.2264
  303loPI   C2A 4840   2.078  13.329   8.955  0.1790 -0.2063  0.1175
  303loPI   C3A 4841   1.698  13.312   8.590  0.0859 -0.0861  0.1514
  303loPI   C4A 4842   1.611  13.530   8.205  0.3074 -0.1216 -0.4528
  303loPI   C5A 4843   1.654  13.842   7.781  0.2932 -0.1610  0.1298
  303loPI   C6A 4844   1.833  13.526   7.490 -0.0057 -0.2415  0.2027
  303loPI   C1B 4845   2.005  12.807   9.233 -0.4180 -0.1523  0.1063
  303loPI   C2B 4846   2.019  12.796   8.803  0.1103 -0.1117  0.1361
  303loPI   C3B 4847   1.878  12.756   8.380  0.2420  0.2802  0.1399
  303loPI   C4B 4848   1.875  12.753   8.011 -0.2565 -0.1166 -0.0314
  304loPI    C1 4849  12.698  15.742  10.459 -0.1780  0.0983 -0.0401
  304loPI    C2 4850  12.298  15.745  10.465 -0.1893 -0.3823 -0.1759
  304loPI    C3 4851  12.503  15.717  10.807 -0.2641  0.0185 -0.0937
  304loPI   PO4 4852  12.738  15.925  10.209  0.0547  0.0226  0.1440
  304loPI   GL1 4853  13.173  16.049   9.979 -0.1363  0.4186  0.0748
  304loPI   GL2 4854  13.336  15.841   9.993 -0.0700 -0.0253  0.0477
  304loPI   C1A 4855  13.214  16.069   9.512  0.0572  0.0660 -0.1645
  304loPI   C2A 4856  13.291  16.016   9.059  0.1415 -0.1001 -0.1461
  304loPI   C3A 4857  13.427  15.899   8.670 -0.1186 -0.1945 -0.0253
  304loPI   C4A 4858  13.303  16.052   8.258 -0.0787  0.0737  0.1778
  304loPI   C5A 4859  13.378  15.931   7.877  0.2141  0.0037 -0.1370
  304loPI   C6A 4860  13.608  16.130   7.518 -0.1357  0.1099  0.1222
  304loPI   C1B 4861  13.671  15.851   9.733 -0.4183  0.2847  0.0619
  304loPI   C2B 4862  13.840  15.757   9.405 -0.1000  0.0473 -0.2244
  304loPI   C3B 4863  13.818  15.777   8.975  0.0724  0.1520  0.1008
  304loPI   C4B 4864  13.879  15.672   8.548  0.0108  0.1121  0.4577
  305loPI    C1 4865  13.780  18.762  10.074  0.0362  0.1787 -0.2977
  305loPI    C2 4866  13.975  18.452  10.234 -0.2965 -0.0020 -0.2337
  305loPI    C3 4867  13.694  18.642  10.446 -0.2349  0.2178 -0.3457
  305loPI   PO4 4868  13.738  18.590   9.803 -0.0722  0.0766 -0.0454
  305loPI   GL1 4869  13.860  18.498   9.529 -0.0582  0.3379  0.1642
  305loPI   GL2 4870  13.794  18.150   9.575  0.5008  0.2977 -0.2059
  305loPI   C1A 4871  14.044  18.478   9.146 -0.0925 -0.3703 -0.0886
  305loPI   C2A 4872  14.066  18.306   8.749  0.2169  0.1940 -0.3667
  305loPI   C3A 4873  14.095  18.389   8.364 -0.3905  0.0650 -0.0677
  305loPI   C4A 4874  14.009  18.394   7.867  0.3582 -0.1721 -0.0207
  305loPI   C5A 4875  14.228  18.197   7.643  0.3738 -0.0346  0.2708
  305loPI   C6A 4876  14.346  17.756   7.602  0.0064 -0.2718 -0.0788
  305loPI   C1B 4877  13.691  17.829   9.265 -0.1065  0.0167  0.2092
  305loPI   C2B 4878  13.646  17.808   8.773 -0.2250  0.0362  0.0675
  305loPI   C3B 4879  13.717  17.838   8.301 -0.0688 -0.0576 -0.1379
  305loPI   C4B 4880  13.764  17.585   7.859 -0.2818 -0.0342 -0.0586
  306loPI    C1 4881  17.880   7.813  10.191  0.0794  0.1992 -0.0046
  306loPI    C2 4882  17.910   7.779  10.588 -0.0270  0.0175 -0.0110
  306loPI    C3 4883  17.801   8.127  10.425 -0.1774  0.0377  0.1301
  306loPI   PO4 4884  17.861   7.576  10.126 -0.1107  0.3226 -0.0059
  306loPI   GL1 4885  17.741   7.493   9.680  0.3893  0.0016 -0.0448
  306loPI   GL2 4886  17.571   7.809   9.729 -0.1347 -0.1007  0.1646
  306loPI   C1A 4887  17.533   7.447   9.267 -0.2748 -0.0346 -0.1733
  306loPI   C2A 4888  17.171   7.378   8.901 -0.1813  0.1252 -0.1698
  306loPI   C3A 4889  17.028   7.544   8.526 -0.0077 -0.1985  0.1012
  306loPI   C4A 4890  17.229   7.299   8.206  0.1688 -0.0648  0.1374
  306loPI   C5A 4891  17.349   6.948   7.850 -0.3096  0.1180 -0.1566
  306loPI   C6A 4892  17.656   6.618   7.879  0.1175 -0.3274 -0.2126
  306loPI   C1B 4893  17.289   7.755   9.641  0.2509 -0.0175 -0.1889
  306loPI   C2B 4894  17.115   7.660   9.333 -0.0840  0.0239 -0.2679
  306loPI   C3B 4895  16.937   7.750   8.986  0.4453  0.3484  0.4013
  306loPI   C4B 4896  17.004   8.124   8.714  0.0028 -0.0418  0.1189
  307loPI    C1 4897   9.244   9.004  10.442  0.0202 -0.0057  0.0030
  307loPI    C2 4898   9.436   8.869  10.766  0.2196 -0.0852 -0.1459
  307loPI    C3 4899   9.230   8.615  10.536  0.0561 -0.0245 -0.0683
  307loPI   PO4 4900   9.487   9.131  10.347  0.2058  0.0362 -0.1877
  307loPI   GL1 4901   9.745   8.973  10.055  0.2647  0.2836  0.0096
  307loPI   GL2 4902   9.700   9.223   9.785  0.3699 -0.3154 -0.3492
  307loPI   C1A 4903  10.088   8.886   9.732  0.3256 -0.0818  0.3280
  307loPI   C2A 4904  10.465   8.819   9.428 -0.0192  0.2324  0.2665
  307loPI   C3A 4905  10.716   8.792   9.085 -0.0445  0.1250 -0.0054
  307loPI   C4A 4906  11.161   8.863   8.896  0.0928  0.1093 -0.4770
  307loPI   C5A 4907  11.149   8.875   8.416 -0.0432  0.2401 -0.0600
  307loPI   C6A 4908  10.922   8.689   8.186  0.1387  0.0369  0.0321
  307loPI   C1B 4909   9.956   9.281   9.411 -0.3298  0.0096  0.1256
  307loPI   C2B 4910  10.321   9.274   9.200  0.0964  0.0521  0.0077
  307loPI   C3B 4911  10.433   9.091   8.782 -0.1751  0.0819  0.3208
  307loPI   C4B 4912  10.655   8.759   8.613 -0.1805 -0.1696  0.1698
  308loPI    C1 4913   7.308   0.014  10.166  0.1262  0.0279 -0.1063
  308loPI    C2 4914   7.399   0.267   9.870 -0.3200  0.3558  0.0246
  308loPI    C3 4915   7.632   0.247  10.194 -0.0661  0.3066 -0.1575
  308loPI   PO4 4916   7.298  -0.254   9.988 -0.2275 -0.2279 -0.4040
  308loPI   GL1 4917   7.355  -0.313   9.502 -0.1471  0.3025 -0.2559
  308loPI   GL2 4918   7.236  -0.029   9.421 -0.3197  0.0822 -0.0258
  308loPI   C1A 4919   7.314  -0.549   9.091  0.1471 -0.1155 -0.0596
  308loPI   C2A 4920   7.199  -0.329   8.607  0.1431 -0.1216  0.1291
  308loPI   C3A 4921   7.185  -0.330   8.239 -0.0430 -0.1537  0.0365
  308loPI   C4A 4922   6.972  -0.440   7.940 -0.0445  0.1948  0.2337
  308loPI   C5A 4923   6.930  -0.599   7.445  0.0364 -0.0872  0.1090
  308loPI   C6A 4924   6.560  -0.602   7.244 -0.0061 -0.0211 -0.3700
  308loPI   C1B 4925   7.373  -0.030   9.020 -0.0590  0.2432  0.0108
  308loPI   C2B 4926   7.299   0.158   8.637 -0.0754  0.0695 -0.0063
  308loPI   C3B 4927   7.334   0.131   8.202 -0.2835 -0.0915  0.1058
  308loPI   C4B 4928   7.473  -0.121   7.801  0.0013  0.1918  0.1248
  309loPI    C1 4929   3.438   0.596  10.261  0.0294 -0.0927 -0.0147
  309loPI    C2 4930   3.750   0.357  10.333  0.1449  0.0761  0.0525
  309loPI    C3 4931   3.651   0.640  10.597  0.0901  0.1882 -0.0870
  309loPI   PO4 4932   3.364   0.579  10.036 -0.2276 -0.0326 -0.0509
  309loPI   GL1 4933   3.287   0.879   9.709 -0.3730  0.2800  0.1616
  309loPI   GL2 4934   3.022   0.991   9.664  0.2844 -0.2387 -0.1426
  309loPI   C1A 4935   3.461   1.106   9.309 -0.1804 -0.1540  0.1247
  309loPI   C2A 4936   3.437   1.186   8.840  0.1287  0.1079 -0.0917
  309loPI   C3A 4937   3.491   1.268   8.392  0.2486  0.0764  0.0064
  309loPI   C4A 4938   3.621   1.107   8.038 -0.0647 -0.2747 -0.0108
  309loPI   C5A 4939   3.645   0.820   7.682 -0.0705 -0.2788  0.0177
  309loPI   C6A 4940   3.757   0.761   7.280 -0.1546 -0.2956  0.0779
  309loPI   C1B 4941   3.017   0.846   9.271 -0.1244  0.1153 -0.0270
  309loPI   C2B 4942   2.875   0.894   8.862 -0.2613  0.0361 -0.0967
  309loPI   C3B 4943   3.073   0.927   8.466  0.0887  0.0861 -0.0564
  309loPI   C4B 4944   3.117   1.128   8.058  0.2022  0.2450  0.0284
  310loPI    C1 4945   8.363   2.977  10.188 -0.0460 -0.0157 -0.1374
  310loPI    C2 4946   8.081   3.105  10.441  0.0173  0.0529 -0.1010
  310loPI    C3 4947   8.344   2.827  10.558  0.0646  0.1056 -0.0817
  310loPI   PO4 4948   8.277   2.967   9.996 -0.1111  0.4211  0.3003
  310loPI   GL1 4949   8.468   2.849   9.561 -0.2792 -0.0507 -0.0371
  310loPI   GL2 4950   8.700   2.835   9.327 -0.0301  0.3979 -0.2345
  310loPI   C1A 4951   8.310   2.989   9.080  0.0032  0.2891  0.2578
  310loPI   C2A 4952   8.198   2.820   8.690  0.1163 -0.4677  0.0500
  310loPI   C3A 4953   8.152   3.088   8.315 -0.1370  0.1813 -0.0555
  310loPI   C4A 4954   7.871   3.276   8.135  0.3837 -0.1778  0.2651
  310loPI   C5A 4955   7.753   3.656   8.024  0.0610 -0.0388  0.0475
  310loPI   C6A 4956   7.792   4.148   7.787  0.1440  0.2186 -0.0234
  310loPI   C1B 4957   8.725   2.666   8.990  0.1757 -0.1334  0.4096
  310loPI   C2B 4958   8.693   2.711   8.556  0.0656  0.1144  0.2008
  310loPI   C3B 4959   8.722   2.378   8.368 -0.1914 -0.0228 -0.2677
  310loPI   C4B 4960   8.859   2.281   7.997 -0.2154 -0.0813 -0.0989
  311loPI    C1 4961   8.261  12.707   9.870 -0.2401  0.1291  0.0502
  311loPI    C2 4962   8.325  12.647  10.260 -0.0571  0.0309  0.0062
  311loPI    C3 4963   8.284  13.019  10.119  0.0555  0.0765  0.0925
  311loPI   PO4 4964   8.298  12.441   9.800 -0.0315  0.2430 -0.0160
  311loPI   GL1 4965   8.518  12.171   9.532  0.0209 -0.1598 -0.1370
  311loPI   GL2 4966   8.688  12.058   9.690  0.0028  0.0612 -0.1025
  311loPI   C1A 4967   8.831  12.176   9.114 -0.1414  0.0485 -0.1337
  311loPI   C2A 4968   9.087  12.067   8.649 -0.3127 -0.2937  0.3253
  311loPI   C3A 4969   9.200  11.889   8.336  0.3365  0.0495 -0.2264
  311loPI   C4A 4970   9.280  11.796   7.890  0.0779  0.1220  0.1194
  311loPI   C5A 4971   9.366  11.965   7.423  0.0050 -0.1686  0.1092
  311loPI   C6A 4972   9.449  11.900   6.972  0.0696  0.0586 -0.1056
  311loPI   C1B 4973   9.060  11.908   9.472 -0.1244  0.0990 -0.0142
  311loPI   C2B 4974   9.278  11.813   9.047 -0.1282  0.2277 -0.1200
  311loPI   C3B 4975   9.187  11.552   8.746 -0.1972  0.0901 -0.1240
  311loPI   C4B 4976   9.432  11.425   8.544 -0.4061  0.1905 -0.0629
  312loPI    C1 4977   6.126  13.999   9.792  0.0306  0.1182  0.0593
  312loPI    C2 4978   5.948  14.045  10.147 -0.2496  0.0952 -0.0760
  312loPI    C3 4979   5.932  14.338   9.875 -0.0802  0.0923 -0.0901
  312loPI   PO4 4980   6.091  13.753   9.688  0.3194 -0.0386  0.0185
  312loPI   GL1 4981   5.975  13.377   9.514  0.0843  0.0927  0.0129
  312loPI   GL2 4982   6.319  13.454   9.341 -0.2211  0.1559 -0.2328
  312loPI   C1A 4983   5.762  13.547   9.124 -0.1056  0.0935  0.1570
  312loPI   C2A 4984   5.746  13.457   8.732 -0.1348 -0.0903  0.0977
  312loPI   C3A 4985   5.711  13.181   8.347  0.3655 -0.4410 -0.2478
  312loPI   C4A 4986   5.720  12.862   8.006 -0.0318 -0.4017  0.3903
  312loPI   C5A 4987   5.922  13.020   7.619 -0.1850 -0.0240 -0.0759
  312loPI   C6A 4988   6.127  13.184   7.282  0.2047  0.1335 -0.0782
  312loPI   C1B 4989   6.191  13.249   8.952 -0.0293 -0.0491 -0.1742
  312loPI   C2B 4990   6.146  13.169   8.573  0.3023  0.3009 -0.0140
  312loPI   C3B 4991   6.135  12.978   8.141  0.1873 -0.0478 -0.0190
  312loPI   C4B 4992   6.342  12.855   7.814 -0.2444 -0.2207  0.2680
  313loPI    C1 4993   6.862   0.151   9.943  0.1471 -0.1312  0.1680
  313loPI    C2 4994   6.588   0.420  10.054 -0.0912 -0.3270  0.0636
  313loPI    C3 4995   6.776   0.200  10.330  0.1470 -0.0167  0.1537
  313loPI   PO4 4996   6.888   0.222   9.671  0.2157  0.3026  0.0710
  313loPI   GL1 4997   6.935   0.369   9.268 -0.1551  0.0479 -0.3614
  313loPI   GL2 4998   6.881   0.074   9.038 -0.3372  0.1285  0.1681
  313loPI   C1A 4999   6.918   0.509   8.820 -0.0578  0.0988 -0.0553
  313loPI   C2A 5000   6.991   0.502   8.410 -0.0263 -0.1957  0.0831
  313loPI   C3A 5001   7.062   0.456   7.954 -0.1864 -0.3801 -0.0148
  313loPI   C4A 5002   7.231   0.418   7.569 -0.0319 -0.0362  0.0031
  313loPI   C5A 5003   7.184   0.302   7.122 -0.1173 -0.0109  0.0715
  313loPI   C6A 5004   6.926   0.223   6.820  0.0293 -0.0704 -0.0122
  313loPI   C1B 5005   6.789  -0.040   8.605 -0.0802 -0.1587 -0.5528
  313loPI   C2B 5006   6.773  -0.026   8.178  0.1852 -0.1691  0.1141
  313loPI   C3B 5007   6.848   0.080   7.687  0.0553 -0.2469  0.0503
  313loPI   C4B 5008   6.657   0.332   7.278 -0.2242  0.0128  0.2769
  314loPI    C1 5009  16.457   9.347  11.037  0.1564 -0.1046  0.0046
  314loPI    C2 5010  16.345   9.492  11.393  0.0053 -0.0906 -0.0479
  314loPI    C3 5011  16.404   9.099  11.347 -0.0418 -0.1004 -0.0248
  314loPI   PO4 5012  16.218   9.475  10.863 -0.0142 -0.2399 -0.1793
  314loPI   GL1 5013  16.086   9.541  10.392  0.1175  0.1248 -0.0282
  314loPI   GL2 5014  16.218   9.261  10.140  0.3303 -0.1114 -0.2289
  314loPI   C1A 5015  16.185   9.699   9.892 -0.2046  0.1462  0.0019
  314loPI   C2A 5016  15.980   9.708   9.461  0.0043 -0.1339 -0.0140
  314loPI   C3A 5017  15.917   9.744   9.056  0.0219 -0.1526 -0.0337
  314loPI   C4A 5018  16.047   9.631   8.810 -0.0163  0.0257 -0.1628
  314loPI   C5A 5019  15.796   9.528   8.418 -0.0239 -0.1434  0.1547
  314loPI   C6A 5020  15.889   9.355   7.948 -0.1411  0.0652  0.0262
  314loPI   C1B 5021  16.290   9.244   9.748  0.1877  0.3825  0.2429
  314loPI   C2B 5022  16.454   9.581   9.478  0.2479  0.1098  0.0497
  314loPI   C3B 5023  16.544   9.808   9.029  0.1100 -0.2956 -0.2189
  314loPI   C4B 5024  16.646  10.112   8.705 -0.3849 -0.0018  0.1290
  315loPI    C1 5025   5.208  15.742   9.608 -0.0405  0.0126  0.0757
  315loPI    C2 5026   5.075  15.605   9.959 -0.2672 -0.1234 -0.0608
  315loPI    C3 5027   4.936  15.951   9.814  0.2337  0.2153  0.2380
  315loPI   PO4 5028   5.393  15.724   9.545 -0.2965  0.1374 -0.1273
  315loPI   GL1 5029   5.559  15.831   9.205 -0.0613 -0.1978  0.0921
  315loPI   GL2 5030   5.740  16.054   9.206  0.1662 -0.1505  0.3992
  315loPI   C1A 5031   5.533  15.527   8.777 -0.0894  0.0632 -0.1413
  315loPI   C2A 5032   5.701  15.490   8.331 -0.0200 -0.0458  0.2375
  315loPI   C3A 5033   5.780  15.831   7.997 -0.0761 -0.0594  0.1423
  315loPI   C4A 5034   5.847  15.849   7.572 -0.3711  0.0716  0.2458
  315loPI   C5A 5035   6.079  16.144   7.294  0.2074  0.0927 -0.0483
  315loPI   C6A 5036   6.386  16.381   7.343 -0.4938  0.1533 -0.1666
  315loPI   C1B 5037   5.976  15.601   9.098 -0.0033 -0.1300  0.0629
  315loPI   C2B 5038   5.919  15.150   9.062 -0.0260 -0.2085 -0.1034
  315loPI   C3B 5039   5.933  14.732   8.880  0.0415 -0.2835  0.1217
  315loPI   C4B 5040   5.669  14.436   8.833  0.0610  0.0660 -0.2195
  316loPI    C1 5041   7.520  10.737  10.095 -0.0634 -0.1693  0.2531
  316loPI    C2 5042   7.731  10.854  10.414  0.3105 -0.1054 -0.0108
  316loPI    C3 5043   7.592  10.479  10.392  0.1893 -0.0796  0.2717
  316loPI   PO4 5044   7.345  10.887  10.073 -0.1485  0.1398 -0.2282
  316loPI   GL1 5045   7.044  11.114   9.823 -0.0590  0.0906 -0.1251
  316loPI   GL2 5046   6.720  11.330   9.767 -0.0626  0.0533 -0.0864
  316loPI   C1A 5047   7.123  10.932   9.341 -0.2045  0.0659  0.1939
  316loPI   C2A 5048   7.216  10.958   8.916  0.1799 -0.2699 -0.3027
  316loPI   C3A 5049   7.284  11.069   8.483 -0.0783 -0.1648 -0.1869
  316loPI   C4A 5050   7.232  10.968   8.031 -0.0035  0.0560  0.0548
  316loPI   C5A 5051   7.461  11.195   7.743  0.1008  0.1438 -0.1447
  316loPI   C6A 5052   7.456  11.511   7.662  0.0796 -0.1528  0.2903
  316loPI   C1B 5053   6.600  11.226   9.440 -0.0618  0.1295 -0.0683
  316loPI   C2B 5054   6.667  11.134   8.990  0.0918 -0.0330  0.1691
  316loPI   C3B 5055   6.324  11.113   8.751 -0.3311  0.1611  0.0818
  316loPI   C4B 5056   6.186  11.122   8.356  0.2270  0.1976 -0.2999
  317loPI    C1 5057  12.192   3.444  10.612  0.1502 -0.2390 -0.0163
  317loPI    C2 5058  12.232   3.758  10.856  0.1979 -0.0673 -0.2419
  317loPI    C3 5059  12.365   3.399  10.970  0.1822  0.0018  0.0001
  317loPI   PO4 5060  12.198   3.555  10.335  0.0255  0.1751  0.1259
  317loPI   GL1 5061  12.249   3.456   9.839 -0.4166  0.2580  0.1322
  317loPI   GL2 5062  12.462   3.709   9.731 -0.2186  0.2241 -0.0915
  317loPI   C1A 5063  12.251   3.369   9.399 -0.1149  0.1671 -0.0368
  317loPI   C2A 5064  12.293   3.586   9.007  0.0088 -0.2348 -0.0962
  317loPI   C3A 5065  12.333   3.702   8.588 -0.0884 -0.1060  0.1095
  317loPI   C4A 5066  12.273   3.852   8.186 -0.0905 -0.2192  0.1082
  317loPI   C5A 5067  12.384   3.710   7.792  0.3070  0.0330 -0.1402
  317loPI   C6A 5068  12.364   3.830   7.388  0.0001 -0.0015 -0.1785
  317loPI   C1B 5069  12.656   3.747   9.339  0.1260 -0.1916  0.0610
  317loPI   C2B 5070  12.876   3.977   8.898  0.0868  0.0252 -0.1233
  317loPI   C3B 5071  12.831   3.820   8.454  0.0263 -0.0542 -0.0146
  317loPI   C4B 5072  12.830   3.864   8.026 -0.0991 -0.0714  0.1022
  318loPI    C1 5073  11.312  10.963  10.345  0.1796  0.0439 -0.1777
  318loPI    C2 5074  10.932  10.965  10.470  0.1463 -0.0330 -0.2763
  318loPI    C3 5075  11.223  10.842  10.715  0.1142  0.0774 -0.1821
  318loPI   PO4 5076  11.343  11.225  10.206 -0.1879  0.0001 -0.0421
  318loPI   GL1 5077  11.392  11.583   9.843 -0.3053 -0.0030  0.1179
  318loPI   GL2 5078  11.677  11.704   9.755 -0.0901  0.0028  0.1541
  318loPI   C1A 5079  11.282  11.846   9.441  0.0147  0.0423  0.2694
  318loPI   C2A 5080  11.368  11.921   8.972 -0.1472  0.0953 -0.0585
  318loPI   C3A 5081  11.321  12.143   8.587  0.1353  0.0978  0.3528
  318loPI   C4A 5082  11.105  12.033   8.220  0.2227 -0.3532  0.1575
  318loPI   C5A 5083  11.043  12.063   7.909  0.1277 -0.0331 -0.4341
  318loPI   C6A 5084  11.075  12.406   7.677  0.0876 -0.1882  0.1533
  318loPI   C1B 5085  11.840  11.821   9.327 -0.1376 -0.0595  0.0919
  318loPI   C2B 5086  11.837  11.977   8.955 -0.0950 -0.1197  0.3413
  318loPI   C3B 5087  11.737  11.968   8.539 -0.1900 -0.0037 -0.0914
  318loPI   C4B 5088  11.738  11.867   8.097  0.0307 -0.0257 -0.2341
  319loPI    C1 5089  11.282  14.807  10.669  0.1126  0.1774 -0.0170
  319loPI    C2 5090  10.985  14.540  10.655  0.0894  0.2073 -0.1070
  319loPI    C3 5091  10.990  14.818  10.942  0.2180 -0.0096  0.1052
  319loPI   PO4 5092  11.307  14.628  10.294 -0.0254 -0.0563  0.0534
  319loPI   GL1 5093  11.488  14.477   9.922 -0.1123  0.4459 -0.3402
  319loPI   GL2 5094  11.337  14.101   9.762 -0.3342 -0.3767  0.0950
  319loPI   C1A 5095  11.609  14.674   9.545 -0.0682  0.0035 -0.3804
  319loPI   C2A 5096  11.631  14.573   9.111  0.1093  0.1957  0.0354
  319loPI   C3A 5097  11.719  14.438   8.643  0.0347  0.1573  0.0420
  319loPI   C4A 5098  11.862  14.593   8.228 -0.3074 -0.0283 -0.2379
  319loPI   C5A 5099  12.133  14.555   7.845  0.2007 -0.0007  0.2805
  319loPI   C6A 5100  12.283  14.451   7.490 -0.0733 -0.0149  0.0116
  319loPI   C1B 5101  11.280  14.324   9.384  0.2160  0.0138 -0.0599
  319loPI   C2B 5102  11.155  14.528   9.056  0.1516 -0.0139  0.1011
  319loPI   C3B 5103  11.475  14.869   8.751 -0.0647 -0.0629  0.7259
  319loPI   C4B 5104  11.482  15.015   8.316 -0.0096  0.3051 -0.1606
  320loPI    C1 5105   9.278  14.592  10.214 -0.0216  0.0196 -0.2314
  320loPI    C2 5106   9.135  14.963  10.254 -0.0948 -0.0353  0.0359
  320loPI    C3 5107   9.355  14.801  10.546  0.0026 -0.1745 -0.1131
  320loPI   PO4 5108   9.082  14.415  10.027 -0.1064  0.1276 -0.1193
  320loPI   GL1 5109   9.248  14.230   9.695 -0.0879  0.0138 -0.2240
  320loPI   GL2 5110   9.520  14.063   9.624  0.1721  0.0523 -0.2489
  320loPI   C1A 5111   9.233  14.201   9.200 -0.1790 -0.1388  0.1105
  320loPI   C2A 5112   9.291  14.234   8.822 -0.1538 -0.0282  0.2114
  320loPI   C3A 5113   9.387  14.361   8.390 -0.1400 -0.0408  0.4744
  320loPI   C4A 5114   9.486  14.354   8.021  0.0919  0.0358 -0.2984
  320loPI   C5A 5115   9.576  13.949   7.809 -0.2717 -0.1384 -0.1981
  320loPI   C6A 5116   9.481  13.514   7.858  0.1403  0.3862 -0.2590
  320loPI   C1B 5117   9.731  14.082   9.272  0.1429  0.1109  0.0533
  320loPI   C2B 5118   9.770  14.215   8.929 -0.0325 -0.2166 -0.0867
  320loPI   C3B 5119   9.897  14.192   8.456 -0.0007 -0.2090  0.0823
  320loPI   C4B 5120  10.092  14.064   8.011  0.1047  0.0142  0.1028
  321loPI    C1 5121  14.640   2.701  10.141 -0.1498  0.2590  0.0410
  321loPI    C2 5122  14.978   2.865  10.279  0.0668 -0.1829  0.0536
  321loPI    C3 5123  14.872   2.497  10.396 -0.3533 -0.1019 -0.0554
  321loPI   PO4 5124  14.600   2.701   9.891  0.0216 -0.0392 -0.6157
  321loPI   GL1 5125  14.285   2.701   9.612  0.0372 -0.0393 -0.0856
  321loPI   GL2 5126  14.313   2.990   9.612 -0.1175  0.1294 -0.0956
  321loPI   C1A 5127  14.487   2.729   9.137 -0.1441 -0.1367  0.2397
  321loPI   C2A 5128  14.484   2.633   8.689  0.3697  0.0494  0.0333
  321loPI   C3A 5129  14.517   2.588   8.227 -0.0989 -0.0906 -0.3449
  321loPI   C4A 5130  14.623   2.633   7.765 -0.1830  0.0824 -0.1499
  321loPI   C5A 5131  14.818   2.615   7.395 -0.2119 -0.0298  0.2144
  321loPI   C6A 5132  14.921   2.328   7.107 -0.1264 -0.0376 -0.1892
  321loPI   C1B 5133  14.226   3.345   9.336  0.2227  0.0839  0.0838
  321loPI   C2B 5134  14.266   3.520   8.897  0.0920 -0.0905 -0.0573
  321loPI   C3B 5135  14.256   3.627   8.511  0.0259 -0.2024 -0.2224
  321loPI   C4B 5136  14.407   3.717   8.110 -0.0477 -0.2705  0.2775
  322loPI    C1 5137  15.649  13.418  10.551 -0.0468 -0.0288  0.1072
  322loPI    C2 5138  15.318  13.193  10.547 -0.2428  0.2555  0.0220
  322loPI    C3 5139  15.397  13.425  10.863  0.1475 -0.1989  0.2710
  322loPI   PO4 5140  15.638  13.590  10.362 -0.3121  0.0563  0.1795
  322loPI   GL1 5141  15.315  13.603   9.965  0.2293 -0.0265 -0.0663
  322loPI   GL2 5142  15.303  13.345  10.053 -0.1799 -0.0167 -0.0825
  322loPI   C1A 5143  15.425  13.688   9.492  0.1305 -0.2279 -0.0412
  322loPI   C2A 5144  15.327  13.408   9.101  0.2410 -0.3805  0.2009
  322loPI   C3A 5145  15.648  13.280   8.752  0.0078  0.3567  0.1697
  322loPI   C4A 5146  15.973  13.012   8.626  0.1282  0.1715 -0.0006
  322loPI   C5A 5147  16.137  12.623   8.362 -0.1625  0.4093 -0.2965
  322loPI   C6A 5148  16.293  12.245   8.067  0.1058 -0.0066  0.1664
  322loPI   C1B 5149  15.169  13.234   9.555  0.0024  0.1229 -0.0679
  322loPI   C2B 5150  14.897  13.090   9.308  0.1313 -0.0236  0.0980
  322loPI   C3B 5151  14.787  13.260   8.968  0.0766  0.0967  0.1345
  322loPI   C4B 5152  15.051  13.520   8.746  0.2307  0.0550 -0.0329
  323loPI    C1 5153  13.825  15.557  10.705 -0.1867  0.1895  0.0304
  323loPI    C2 5154  14.194  15.604  10.851 -0.2600 -0.0308  0.2957
  323loPI    C3 5155  13.880  15.607  11.098 -0.4213 -0.0270  0.0932
  323loPI   PO4 5156  13.767  15.596  10.482 -0.3445  0.0283  0.0729
  323loPI   GL1 5157  13.505  15.416  10.057  0.2418  0.1357  0.0768
  323loPI   GL2 5158  13.349  15.174  10.051 -0.3865  0.1813 -0.1602
  323loPI   C1A 5159  13.778  15.337   9.771 -0.0073 -0.1010 -0.1066
  323loPI   C2A 5160  13.775  15.225   9.402  0.2422 -0.3399  0.4050
  323loPI   C3A 5161  13.964  15.170   9.012  0.0739 -0.0297 -0.2857
  323loPI   C4A 5162  14.062  15.214   8.598 -0.0956 -0.2408 -0.1959
  323loPI   C5A 5163  14.247  15.169   8.142  0.2702  0.2897  0.2337
  323loPI   C6A 5164  14.200  15.219   7.764  0.0246  0.2669  0.1987
  323loPI   C1B 5165  13.384  14.902   9.720  0.1565  0.1608  0.1529
  323loPI   C2B 5166  13.302  14.955   9.296  0.0712  0.1782  0.0315
  323loPI   C3B 5167  13.499  14.959   8.897  0.0759 -0.1175  0.1206
  323loPI   C4B 5168  13.562  15.108   8.389 -0.3147 -0.1018 -0.2285
  324loPI    C1 5169  11.211   7.641  10.679  0.0156 -0.0269  0.0254
  324loPI    C2 5170  11.485   7.672  10.969 -0.0452  0.1752  0.0633
  324loPI    C3 5171  11.116   7.818  11.025 -0.0916  0.1129 -0.0739
  324loPI   PO4 5172  11.310   7.738  10.477  0.1024 -0.0483  0.3542
  324loPI   GL1 5173  11.426   7.450  10.209 -0.0133 -0.1952  0.0752
  324loPI   GL2 5174  11.660   7.252  10.066  0.0283  0.0037  0.2235
  324loPI   C1A 5175  11.236   7.469   9.806  0.1667 -0.2152 -0.0813
  324loPI   C2A 5176  11.388   7.772   9.581  0.2427 -0.1183  0.2278
  324loPI   C3A 5177  11.389   8.007   9.170  0.1197  0.3295  0.1869
  324loPI   C4A 5178  11.456   8.254   8.811 -0.2704  0.1541  0.1182
  324loPI   C5A 5179  11.403   8.341   8.381  0.0566 -0.1750  0.0520
  324loPI   C6A 5180  11.234   8.128   8.061  0.4292  0.3354  0.0792
  324loPI   C1B 5181  11.674   7.328   9.640  0.0926  0.0080  0.1609
  324loPI   C2B 5182  11.658   7.488   9.203 -0.0435 -0.0081 -0.2362
  324loPI   C3B 5183  11.684   7.329   8.731  0.5044  0.1654 -0.0212
  324loPI   C4B 5184  11.603   7.376   8.212  0.0351 -0.0083  0.1191
  325loPI    C1 5185  17.471  13.104  10.727  0.0370 -0.1261 -0.3465
  325loPI    C2 5186  17.622  13.362  10.462  0.0217  0.0394 -0.1958
  325loPI    C3 5187  17.539  13.483  10.834 -0.0608 -0.1635 -0.1469
  325loPI   PO4 5188  17.459  12.835  10.577  0.0350  0.0453 -0.1927
  325loPI   GL1 5189  17.248  12.674  10.228  0.0244 -0.0332 -0.1124
  325loPI   GL2 5190  17.415  13.027  10.117 -0.2696  0.2275  0.0453
  325loPI   C1A 5191  17.334  12.741   9.741  0.3936  0.0809 -0.0025
  325loPI   C2A 5192  17.429  12.716   9.292  0.0815  0.0880  0.1859
  325loPI   C3A 5193  17.667  12.861   9.060 -0.1003  0.0170  0.5044
  325loPI   C4A 5194  17.606  13.216   8.761  0.3753  0.0083 -0.0494
  325loPI   C5A 5195  17.691  13.423   8.371 -0.2808 -0.0438 -0.0460
  325loPI   C6A 5196  17.825  13.689   8.125 -0.1224  0.0605  0.4664
  325loPI   C1B 5197  16.998  13.121   9.978 -0.3257  0.0549 -0.1519
  325loPI   C2B 5198  16.543  13.224   9.858 -0.2422  0.1573  0.3169
  325loPI   C3B 5199  16.109  13.067   9.759  0.0364  0.4137 -0.1784
  325loPI   C4B 5200  15.708  13.255   9.608  0.1518 -0.0042  0.0347
  326loPI    C1 5201   7.531  14.160  10.161  0.0160  0.2384 -0.1909
  326loPI    C2 5202   7.336  14.397  10.419 -0.2285 -0.1982  0.0361
  326loPI    C3 5203   7.642  14.172  10.545 -0.0707 -0.0921 -0.1524
  326loPI   PO4 5204   7.268  13.972  10.032 -0.5057 -0.3203  0.2138
  326loPI   GL1 5205   7.220  14.169   9.521  0.1187 -0.0365 -0.1181
  326loPI   GL2 5206   7.545  14.028   9.537  0.0705  0.2028 -0.3244
  326loPI   C1A 5207   7.198  14.082   9.063  0.0322 -0.2090  0.1819
  326loPI   C2A 5208   7.313  14.179   8.649  0.0673 -0.2658 -0.0078
  326loPI   C3A 5209   7.148  14.141   8.264  0.1588 -0.1179  0.4164
  326loPI   C4A 5210   6.777  14.162   8.000 -0.2983 -0.0266  0.1144
  326loPI   C5A 5211   6.592  14.238   7.705  0.0518 -0.2263  0.0424
  326loPI   C6A 5212   6.513  14.176   7.237 -0.0245  0.1974  0.0206
  326loPI   C1B 5213   7.663  14.064   9.053 -0.0929 -0.0903 -0.1525
  326loPI   C2B 5214   7.807  13.942   8.748  0.2912  0.1453 -0.0439
  326loPI   C3B 5215   7.694  14.124   8.320 -0.1225  0.0411  0.4024
  326loPI   C4B 5216   7.608  14.123   7.873 -0.0954  0.0365 -0.2004
  327loPI    C1 5217   5.684   1.153   9.877 -0.0788 -0.1112 -0.0087
  327loPI    C2 5218   5.300   1.212   9.970 -0.0902 -0.3617  0.1099
  327loPI    C3 5219   5.561   1.111  10.255  0.1846  0.3750  0.1402
  327loPI   PO4 5220   5.687   1.405   9.596 -0.0832  0.0310  0.0251
  327loPI   GL1 5221   5.964   1.443   9.243  0.1785  0.0407  0.0282
  327loPI   GL2 5222   6.034   1.843   9.375 -0.1434  0.0483  0.2299
  327loPI   C1A 5223   5.813   1.450   8.898 -0.0361  0.2983  0.4514
  327loPI   C2A 5224   5.852   1.330   8.457  0.0572  0.0213 -0.0678
  327loPI   C3A 5225   5.770   1.303   7.986 -0.0373  0.0276 -0.1057
  327loPI   C4A 5226   5.551   1.447   7.624 -0.2998 -0.0756 -0.0654
  327loPI   C5A 5227   5.455   1.687   7.371  0.2741  0.0646  0.1682
  327loPI   C6A 5228   5.546   1.915   7.041 -0.0700  0.0256  0.0826
  327loPI   C1B 5229   6.089   1.886   8.932  0.0921 -0.1557  0.1789
  327loPI   C2B 5230   5.969   1.892   8.560  0.2675 -0.1871 -0.1723
  327loPI   C3B 5231   6.099   1.740   8.126 -0.3213  0.2567 -0.0161
  327loPI   C4B 5232   6.065   1.623   7.735 -0.0471  0.0975 -0.1932
  328loPI    C1 5233  10.510   2.971  10.222  0.2306  0.2165 -0.1071
  328loPI    C2 5234  10.798   2.935  10.497 -0.0697 -0.0322  0.1834
  328loPI    C3 5235  10.515   3.215  10.538  0.0455  0.1182 -0.0267
  328loPI   PO4 5236  10.619   2.904   9.960  0.2457 -0.0469  0.0346
  328loPI   GL1 5237  10.559   2.943   9.606  0.1547 -0.2426  0.0677
  328loPI   GL2 5238  10.841   3.005   9.438  0.2151 -0.2073 -0.0405
  328loPI   C1A 5239  10.359   3.069   9.192 -0.3416 -0.0670  0.0650
  328loPI   C2A 5240  10.247   3.149   8.764  0.1493  0.1083  0.0138
  328loPI   C3A 5241  10.284   3.205   8.323 -0.2910  0.3195 -0.1066
  328loPI   C4A 5242  10.520   3.137   7.959 -0.2123  0.0990  0.0357
  328loPI   C5A 5243  10.891   3.083   7.680 -0.1946 -0.1009 -0.2502
  328loPI   C6A 5244  11.184   3.180   7.264 -0.1094 -0.0386  0.1865
  328loPI   C1B 5245  10.822   3.047   9.052 -0.0007 -0.3121  0.0740
  328loPI   C2B 5246  10.775   3.242   8.687  0.0567  0.0447 -0.1552
  328loPI   C3B 5247  10.759   3.388   8.393 -0.1320  0.1697 -0.1180
  328loPI   C4B 5248  10.912   3.440   8.057  0.1292 -0.0389 -0.0739
  329loPI    C1 5249  15.343   1.424  10.290  0.0749  0.2169  0.0258
  329loPI    C2 5250  15.346   1.291  10.667  0.1844 -0.0738 -0.0747
  329loPI    C3 5251  15.196   1.652  10.584  0.2142  0.0179  0.2540
  329loPI   PO4 5252  15.289   1.144  10.214  0.2405 -0.3428 -0.0465
  329loPI   GL1 5253  15.292   0.986   9.864  0.1170 -0.0296 -0.0347
  329loPI   GL2 5254  15.490   0.731   9.762  0.1831 -0.1151 -0.0646
  329loPI   C1A 5255  15.233   1.138   9.359 -0.3370  0.1043  0.0988
  329loPI   C2A 5256  15.411   1.265   8.969 -0.2564  0.0953  0.2257
  329loPI   C3A 5257  15.735   1.200   8.558  0.2077 -0.0190 -0.1392
  329loPI   C4A 5258  16.047   1.131   8.261 -0.1967 -0.0635 -0.0875
  329loPI   C5A 5259  16.375   1.289   8.002  0.1736  0.0725 -0.1572
  329loPI   C6A 5260  16.372   1.697   7.886  0.3203  0.2240  0.0121
  329loPI   C1B 5261  15.727   0.788   9.384  0.1255 -0.0605  0.0333
  329loPI   C2B 5262  15.706   0.839   9.020  0.0516  0.1087 -0.2415
  329loPI   C3B 5263  15.624   0.717   8.586  0.0260  0.2646 -0.0128
  329loPI   C4B 5264  15.597   0.895   8.189 -0.0330  0.3035  0.1638
  330loPI    C1 5265  15.245  10.348  10.931 -0.0196 -0.3978 -0.2481
  330loPI    C2 5266  14.862  10.308  11.042  0.0434 -0.3092  0.0075
  330loPI    C3 5267  15.155  10.262  11.311  0.1893  0.1833 -0.0560
  330loPI   PO4 5268  15.222  10.532  10.713  0.0531 -0.1773  0.3623
  330loPI   GL1 5269  15.169  10.348  10.300  0.1631  0.1848 -0.2562
  330loPI   GL2 5270  15.364  10.194  10.327  0.2635  0.1433  0.0742
  330loPI   C1A 5271  15.421  10.546   9.974  0.3276 -0.0765 -0.0812
  330loPI   C2A 5272  15.326  10.430   9.617 -0.0473 -0.2585  0.0185
  330loPI   C3A 5273  15.275  10.459   9.172 -0.0125  0.2078  0.3315
  330loPI   C4A 5274  15.333  10.353   8.672  0.0135 -0.0370  0.0384
  330loPI   C5A 5275  15.446  10.198   8.173  0.0104  0.1297  0.2075
  330loPI   C6A 5276  15.737  10.293   7.927 -0.2679 -0.0775 -0.0918
  330loPI   C1B 5277  15.172  10.039   9.878 -0.0725  0.0482  0.0134
  330loPI   C2B 5278  15.067  10.009   9.487 -0.3832  0.0210 -0.3373
  330loPI   C3B 5279  14.862   9.846   9.106 -0.1850 -0.1582 -0.0413
  330loPI   C4B 5280  14.565   9.672   8.781  0.0263  0.0498  0.1677
  331loPI    C1 5281   2.359  12.392  10.054  0.2880 -0.0696 -0.0649
  331loPI    C2 5282   2.470  12.161  10.361 -0.0250 -0.0089  0.0985
  331loPI    C3 5283   2.493  12.559  10.392 -0.0194 -0.0036  0.0277
  331loPI   PO4 5284   2.125  12.232   9.994 -0.1162  0.1324 -0.3047
  331loPI   GL1 5285   1.787  12.303   9.749  0.1856 -0.1545  0.1014
  331loPI   GL2 5286   1.451  12.140   9.617 -0.0768  0.2777 -0.0811
  331loPI   C1A 5287   2.006  12.313   9.351  0.2597  0.1464 -0.1869
  331loPI   C2A 5288   1.885  12.363   9.011  0.0017  0.3318  0.0675
  331loPI   C3A 5289   1.984  12.332   8.619  0.2568  0.2750  0.2702
  331loPI   C4A 5290   1.981  12.254   8.175  0.4192 -0.2177 -0.3142
  331loPI   C5A 5291   1.679  12.214   7.741 -0.2545 -0.1478  0.1513
  331loPI   C6A 5292   1.370  11.964   7.634  0.2234 -0.1543 -0.1554
  331loPI   C1B 5293   1.543  12.039   9.236 -0.0081  0.0099  0.1411
  331loPI   C2B 5294   1.514  12.186   8.771  0.3539 -0.5854  0.0331
  331loPI   C3B 5295   1.503  12.399   8.501 -0.1390  0.1130  0.2073
  331loPI   C4B 5296   1.439  12.544   8.062 -0.0156  0.3470  0.2208
  332loPI    C1 5297   2.225  11.121  10.379 -0.1218  0.1287 -0.0909
  332loPI    C2 5298   2.616  11.204  10.375 -0.0815 -0.0546 -0.0535
  332loPI    C3 5299   2.421  11.175  10.723 -0.1162 -0.0210 -0.0700
  332loPI   PO4 5300   2.189  11.099  10.068  0.0483  0.0728 -0.0055
  332loPI   GL1 5301   2.139  11.204   9.668 -0.1349 -0.0780 -0.2996
  332loPI   GL2 5302   2.494  11.262   9.389 -0.0143 -0.1235 -0.0769
  332loPI   C1A 5303   2.030  11.402   9.305 -0.2482 -0.0882  0.1556
  332loPI   C2A 5304   2.011  11.357   8.809  0.2675  0.0895 -0.0405
  332loPI   C3A 5305   2.358  11.330   8.490  0.0631 -0.0924 -0.0410
  332loPI   C4A 5306   2.415  11.399   8.134 -0.0755 -0.0017 -0.1153
  332loPI   C5A 5307   2.321  11.758   7.834  0.2603  0.1763  0.1435
  332loPI   C6A 5308   2.021  11.844   7.630  0.1198  0.0344  0.1953
  332loPI   C1B 5309   2.489  11.181   8.908  0.0723 -0.1769  0.0329
  332loPI   C2B 5310   2.838  11.321   8.674  0.0106  0.1483 -0.0255
  332loPI   C3B 5311   2.846  11.428   8.356  0.4250  0.0970 -0.3555
  332loPI   C4B 5312   2.856  11.241   7.814 -0.1424  0.0899  0.1954
  333loPI    C1 5313  17.560   1.970  10.282 -0.0734  0.2620 -0.1648
  333loPI    C2 5314  17.334   2.236  10.478  0.0173  0.0265  0.2721
  333loPI    C3 5315  17.733   2.265  10.490  0.0227  0.0905  0.0018
  333loPI   PO4 5316  17.440   1.943  10.103 -0.0773  0.0013 -0.3721
  333loPI   GL1 5317  17.210   1.696   9.828 -0.0846  0.0551 -0.1440
  333loPI   GL2 5318  16.962   1.860   9.601 -0.0386  0.3123  0.0620
  333loPI   C1A 5319  17.075   1.401   9.401  0.0554  0.3199  0.1194
  333loPI   C2A 5320  17.030   1.340   8.947  0.1399  0.0531  0.0364
  333loPI   C3A 5321  17.074   1.485   8.585 -0.0312 -0.0905  0.3274
  333loPI   C4A 5322  16.996   1.240   8.308  0.1183  0.0500 -0.1244
  333loPI   C5A 5323  16.800   1.000   8.100 -0.2291 -0.1668 -0.1032
  333loPI   C6A 5324  16.520   0.857   7.623 -0.1863 -0.1665 -0.0998
  333loPI   C1B 5325  17.216   1.841   9.249 -0.2584 -0.2108 -0.0096
  333loPI   C2B 5326  17.037   1.986   8.817  0.4089 -0.2265  0.0724
  333loPI   C3B 5327  17.025   1.969   8.328  0.0776 -0.0637  0.1660
  333loPI   C4B 5328  16.933   2.238   7.872  0.1820 -0.0007 -0.1012
  334loPI    C1 5329  13.612   7.043  10.661  0.0570 -0.1419 -0.2128
  334loPI    C2 5330  13.804   6.696  10.607  0.3104 -0.0396  0.0118
  334loPI    C3 5331  13.477   6.710  10.837  0.1147 -0.1865 -0.2522
  334loPI   PO4 5332  13.421   7.184  10.466 -0.5640 -0.2348  0.0461
  334loPI   GL1 5333  13.188   7.348  10.192  0.1416 -0.0030  0.0343
  334loPI   GL2 5334  13.089   7.189  10.053 -0.0839 -0.1263  0.1080
  334loPI   C1A 5335  12.978   7.539   9.728 -0.2629  0.0641 -0.0163
  334loPI   C2A 5336  12.958   7.523   9.250  0.1411 -0.0456 -0.1459
  334loPI   C3A 5337  13.115   7.437   8.878  0.1297  0.1523  0.3792
  334loPI   C4A 5338  13.075   7.193   8.443  0.3378 -0.0699 -0.1899
  334loPI   C5A 5339  13.131   6.976   8.040  0.0777 -0.1330 -0.4893
  334loPI   C6A 5340  13.286   6.550   7.980 -0.1566 -0.0363  0.0436
  334loPI   C1B 5341  13.080   7.059   9.576 -0.1224 -0.0048  0.1333
  334loPI   C2B 5342  12.833   6.794   9.336  0.1980  0.0611  0.0081
  334loPI   C3B 5343  12.323   6.829   9.361  0.2222 -0.0902 -0.0879
  334loPI   C4B 5344  12.043   6.918   9.639 -0.2721  0.1786  0.0102
  335loPI    C1 5345  12.015  17.764  10.174 -0.1372  0.0050 -0.0214
  335loPI    C2 5346  11.992  17.916   9.805 -0.1090  0.0813  0.0081
  335loPI    C3 5347  12.181  18.119  10.094  0.0087 -0.0516  0.0256
  335loPI   PO4 5348  11.761  17.565  10.143 -0.0322 -0.0235 -0.2103
  335loPI   GL1 5349  11.654  17.594   9.742 -0.1021 -0.0121  0.0445
  335loPI   GL2 5350  11.381  17.423   9.699  0.5463  0.2349 -0.1637
  335loPI   C1A 5351  11.933  17.476   9.374 -0.0115  0.4170 -0.3028
  335loPI   C2A 5352  11.842  17.391   8.863 -0.1497  0.0595  0.1144
  335loPI   C3A 5353  11.814  17.259   8.423  0.0485 -0.1676 -0.0694
  335loPI   C4A 5354  11.988  17.102   8.113 -0.0806 -0.2044  0.1743
  335loPI   C5A 5355  12.192  17.311   7.824  0.0497 -0.1783 -0.2076
  335loPI   C6A 5356  12.223  17.648   7.558 -0.4373  0.2140 -0.1568
  335loPI   C1B 5357  11.381  17.352   9.216  0.2771  0.3696 -0.1343
  335loPI   C2B 5358  11.383  17.179   8.780 -0.2052  0.0123  0.4598
  335loPI   C3B 5359  11.320  17.224   8.310 -0.1673 -0.1238 -0.0622
  335loPI   C4B 5360  11.017  17.479   8.076  0.1971 -0.1029  0.3753
  336loPI    C1 5361  14.492  13.843  10.725  0.2826  0.1101  0.0086
  336loPI    C2 5362  14.096  13.804  10.772  0.2444  0.1044 -0.2970
  336loPI    C3 5363  14.347  13.582  10.992  0.0805  0.1476 -0.0628
  336loPI   PO4 5364  14.641  13.909  10.489  0.0338 -0.2487 -0.0308
  336loPI   GL1 5365  14.897  14.116  10.149  0.1780  0.2037  0.2013
  336loPI   GL2 5366  14.622  14.278  10.108  0.2367 -0.0194 -0.2423
  336loPI   C1A 5367  14.987  14.060   9.703  0.2491 -0.2370 -0.1981
  336loPI   C2A 5368  15.098  14.194   9.382 -0.1066 -0.2296  0.0531
  336loPI   C3A 5369  15.203  14.341   8.918 -0.0504 -0.1320 -0.1153
  336loPI   C4A 5370  15.277  14.407   8.395 -0.2851  0.0004 -0.1463
  336loPI   C5A 5371  15.236  14.107   8.045  0.1508  0.1584  0.2509
  336loPI   C6A 5372  15.041  14.080   7.651  0.2756  0.2856  0.0030
  336loPI   C1B 5373  14.483  14.112   9.696  0.0561  0.2375  0.0748
  336loPI   C2B 5374  14.490  13.915   9.294 -0.0176  0.0344  0.1219
  336loPI   C3B 5375  14.535  13.965   8.855  0.5699 -0.1381 -0.0610
  336loPI   C4B 5376  14.502  14.043   8.460  0.0701  0.2620 -0.1141
  337loPI    C1 5377  11.672   8.952  10.753  0.0806 -0.0569 -0.0379
  337loPI    C2 5378  11.866   9.177  11.021 -0.1292  0.0791  0.0024
  337loPI    C3 5379  11.993   8.806  10.941 -0.0283  0.0600  0.2445
  337loPI   PO4 5380  11.542   9.104  10.433 -0.1645  0.1641 -0.0350
  337loPI   GL1 5381  11.713   9.422  10.058  0.0353  0.3775 -0.0954
  337loPI   GL2 5382  11.880   9.169  10.042 -0.3354  0.2800 -0.1402
  337loPI   C1A 5383  11.823   9.453   9.574 -0.0278 -0.2036  0.0025
  337loPI   C2A 5384  11.877   9.557   9.106 -0.1343 -0.1214  0.1588
  337loPI   C3A 5385  11.877   9.458   8.688 -0.1009 -0.0658  0.0023
  337loPI   C4A 5386  12.070   9.173   8.413  0.1794 -0.0235 -0.0006
  337loPI   C5A 5387  11.984   8.862   8.119  0.2689 -0.1342 -0.1838
  337loPI   C6A 5388  12.164   8.751   7.700 -0.0561  0.0916  0.0124
  337loPI   C1B 5389  12.195   9.433   9.863 -0.1206 -0.0549  0.3386
  337loPI   C2B 5390  12.336   9.445   9.464  0.1027  0.0030 -0.3087
  337loPI   C3B 5391  12.481   9.449   8.990 -0.0726 -0.1124 -0.2352
  337loPI   C4B 5392  12.468   9.158   8.681  0.0929 -0.1872  0.0959
  338loPI    C1 5393  17.360  13.883  10.554  0.0028  0.4329  0.1132
  338loPI    C2 5394  16.989  14.019  10.611 -0.2867 -0.3299  0.1617
  338loPI    C3 5395  17.221  13.935  10.926 -0.0892  0.0829  0.1317
  338loPI   PO4 5396  17.401  13.870  10.289 -0.0423 -0.0048  0.0130
  338loPI   GL1 5397  17.563  13.592  10.002  0.1316 -0.1151  0.0606
  338loPI   GL2 5398  17.397  13.443   9.796  0.6015 -0.0737 -0.2051
  338loPI   C1A 5399  17.700  13.727   9.535 -0.3087  0.0567  0.1429
  338loPI   C2A 5400  17.503  13.700   9.078 -0.0212 -0.0190 -0.2132
  338loPI   C3A 5401  17.657  13.860   8.642  0.0453 -0.0806  0.0350
  338loPI   C4A 5402  17.522  13.947   8.409  0.0134 -0.4615 -0.1953
  338loPI   C5A 5403  17.546  14.064   8.114  0.1054 -0.3704 -0.0259
  338loPI   C6A 5404  17.313  14.178   7.700  0.1771 -0.3704 -0.2247
  338loPI   C1B 5405  17.172  13.132   9.516 -0.2999 -0.3981  0.2315
  338loPI   C2B 5406  16.886  12.938   9.186 -0.1479  0.2197 -0.0752
  338loPI   C3B 5407  17.235  12.899   8.781  0.2504 -0.0851 -0.2335
  338loPI   C4B 5408  17.268  13.100   8.442 -0.2060  0.4094 -0.0680
  339loPI    C1 5409  12.458   8.791  10.652  0.2892 -0.2402 -0.0917
  339loPI    C2 5410  12.699   8.473  10.623  0.1624 -0.3485  0.0294
  339loPI    C3 5411  12.516   8.554  10.969  0.1086 -0.2055 -0.0318
  339loPI   PO4 5412  12.577   8.943  10.454 -0.2454  0.0011 -0.0943
  339loPI   GL1 5413  12.724   8.847  10.110 -0.2197 -0.1012  0.0993
  339loPI   GL2 5414  12.357   8.853  10.010  0.1853 -0.2384  0.0174
  339loPI   C1A 5415  12.745   8.575   9.828  0.1368 -0.0299 -0.2201
  339loPI   C2A 5416  12.670   8.560   9.378  0.0192 -0.0335  0.1306
  339loPI   C3A 5417  12.717   8.376   8.924 -0.4342  0.0118  0.0645
  339loPI   C4A 5418  12.716   8.244   8.517  0.2130 -0.0906 -0.4586
  339loPI   C5A 5419  12.776   8.501   8.118  0.2442 -0.0191  0.1590
  339loPI   C6A 5420  12.682   8.801   7.776  0.0720  0.0459 -0.1597
  339loPI   C1B 5421  12.568   9.012   9.691  0.1848  0.1109 -0.4285
  339loPI   C2B 5422  12.653   9.064   9.286 -0.0438 -0.2459 -0.0009
  339loPI   C3B 5423  12.787   8.884   8.915  0.2944  0.3844  0.0309
  339loPI   C4B 5424  12.933   8.707   8.512 -0.1759 -0.0214  0.1275
  340loPI    C1 5425   4.674  11.925  10.251 -0.1831  0.0212  0.2419
  340loPI    C2 5426   5.052  11.948  10.122 -0.2140 -0.2366  0.0994
  340loPI    C3 5427   4.967  11.750  10.459 -0.1931  0.0336  0.2664
  340loPI   PO4 5428   4.489  11.787  10.032  0.0531 -0.0389 -0.0891
  340loPI   GL1 5429   4.514  11.854   9.656 -0.1581  0.0368 -0.0846
  340loPI   GL2 5430   4.488  12.116   9.430 -0.1396 -0.3261 -0.1457
  340loPI   C1A 5431   4.641  11.695   9.176 -0.0556 -0.1612 -0.2287
  340loPI   C2A 5432   4.421  11.949   8.873 -0.0699 -0.0507 -0.1761
  340loPI   C3A 5433   4.391  12.008   8.524 -0.3133  0.3062  0.1449
  340loPI   C4A 5434   4.462  11.969   8.072 -0.1830  0.0273 -0.2008
  340loPI   C5A 5435   4.420  12.187   7.775 -0.1660  0.1412 -0.0436
  340loPI   C6A 5436   4.332  12.281   7.405  0.3105 -0.0108  0.0566
  340loPI   C1B 5437   4.450  12.353   9.103  0.2274  0.2868 -0.0478
  340loPI   C2B 5438   4.513  12.461   8.653 -0.0762  0.1426  0.3888
  340loPI   C3B 5439   4.614  12.441   8.260 -0.1494 -0.0292 -0.3613
  340loPI   C4B 5440   4.949  12.542   8.052 -0.0793  0.0433  0.0968
  341loPI    C1 5441   1.101   5.365  10.203  0.0795  0.0156 -0.0908
  341loPI    C2 5442   1.071   5.655  10.477  0.0413 -0.0660 -0.0081
  341loPI    C3 5443   0.775   5.597  10.214  0.0312 -0.0562  0.0011
  341loPI   PO4 5444   1.280   5.441  10.073 -0.0743 -0.1183  0.0108
  341loPI   GL1 5445   1.263   5.596   9.689  0.0080 -0.5265  0.0490
  341loPI   GL2 5446   0.970   5.604   9.727  0.0157 -0.1204  0.0626
  341loPI   C1A 5447   1.233   5.671   9.127  0.1099 -0.0182 -0.1719
  341loPI   C2A 5448   0.998   6.037   8.873  0.0904  0.0849 -0.2102
  341loPI   C3A 5449   0.913   6.132   8.500  0.1594  0.2151 -0.1150
  341loPI   C4A 5450   0.792   6.256   8.104 -0.0857  0.1937 -0.0451
  341loPI   C5A 5451   0.644   5.982   7.882  0.0824 -0.2709 -0.0224
  341loPI   C6A 5452   0.468   5.584   7.717 -0.0934  0.1706 -0.0168
  341loPI   C1B 5453   0.914   5.965   9.435  0.0887 -0.4254 -0.0213
  341loPI   C2B 5454   1.285   6.248   9.338 -0.0749  0.1638  0.1127
  341loPI   C3B 5455   1.639   6.338   9.038  0.2258  0.0709  0.3406
  341loPI   C4B 5456   1.631   6.472   8.560  0.1318  0.0329 -0.1279
  342loPI    C1 5457  13.192  12.657  10.738  0.0217 -0.2154 -0.0035
  342loPI    C2 5458  12.824  12.763  10.625  0.0203 -0.0734  0.1309
  342loPI    C3 5459  12.874  12.478  10.901  0.0167 -0.2204 -0.0186
  342loPI   PO4 5460  13.380  12.760  10.534  0.0009 -0.3005  0.0783
  342loPI   GL1 5461  13.664  12.881  10.176 -0.2488 -0.2249  0.1341
  342loPI   GL2 5462  13.684  12.615  10.083  0.2651 -0.1225  0.2084
  342loPI   C1A 5463  13.433  12.963   9.787  0.0349 -0.0183  0.1281
  342loPI   C2A 5464  13.345  13.204   9.335 -0.0659  0.0807 -0.0464
  342loPI   C3A 5465  13.277  13.054   8.960 -0.1349 -0.1149  0.0639
  342loPI   C4A 5466  13.443  13.055   8.532  0.0860  0.1122  0.1482
  342loPI   C5A 5467  13.506  12.650   8.356  0.1093 -0.0848  0.4740
  342loPI   C6A 5468  13.501  12.395   7.957 -0.2152 -0.0568 -0.1327
  342loPI   C1B 5469  13.863  12.762   9.739 -0.3772 -0.3251 -0.0553
  342loPI   C2B 5470  13.802  12.931   9.353  0.3596 -0.0373 -0.0696
  342loPI   C3B 5471  13.799  12.833   8.889  0.0218  0.3221 -0.0444
  342loPI   C4B 5472  13.985  12.648   8.611 -0.1433  0.0204 -0.0059
  343loPI    C1 5473   1.507   8.253   9.931  0.1001  0.0048  0.2084
  343loPI    C2 5474   1.198   8.204  10.180 -0.0791  0.1190  0.0124
  343loPI    C3 5475   1.555   8.316  10.323 -0.1550  0.0924  0.2272
  343loPI   PO4 5476   1.383   8.526   9.660  0.2734 -0.0212  0.4336
  343loPI   GL1 5477   1.438   8.587   9.215  0.1862 -0.0478 -0.1073
  343loPI   GL2 5478   1.490   8.877   9.201  0.0514 -0.0835 -0.0556
  343loPI   C1A 5479   1.448   8.514   8.759 -0.2160  0.0105  0.0347
  343loPI   C2A 5480   1.454   8.208   8.464  0.0900  0.0463 -0.2249
  343loPI   C3A 5481   1.300   7.902   8.326  0.1399  0.0996 -0.1285
  343loPI   C4A 5482   1.424   7.800   8.009  0.0499 -0.2018 -0.0460
  343loPI   C5A 5483   1.603   8.112   7.725  0.0809  0.0998 -0.0163
  343loPI   C6A 5484   1.900   8.466   7.723  0.0154  0.1483  0.2673
  343loPI   C1B 5485   1.413   9.158   8.956  0.2291  0.0951  0.2116
  343loPI   C2B 5486   1.209   9.260   8.549 -0.0518 -0.0180  0.1259
  343loPI   C3B 5487   1.130   9.504   8.092 -0.0664  0.0341 -0.2517
  343loPI   C4B 5488   1.106   9.811   7.770 -0.2483 -0.0070  0.1231
  344loPI    C1 5489   3.031  11.364  10.128  0.1060  0.0795 -0.0301
  344loPI    C2 5490   3.319  11.497  10.372  0.0075 -0.0773  0.1749
  344loPI    C3 5491   3.370  11.156  10.168  0.1375  0.1135 -0.1186
  344loPI   PO4 5492   3.019  11.621   9.962  0.4501  0.1304 -0.1343
  344loPI   GL1 5493   2.842  11.614   9.500 -0.0132  0.2421 -0.1902
  344loPI   GL2 5494   2.875  11.921   9.431 -0.0603 -0.0072  0.4143
  344loPI   C1A 5495   3.082  11.465   9.135  0.2145 -0.2282  0.0941
  344loPI   C2A 5496   3.311  11.419   8.728  0.0258 -0.0021  0.1276
  344loPI   C3A 5497   3.283  11.373   8.317 -0.0076  0.3852  0.2919
  344loPI   C4A 5498   3.222  11.546   8.025  0.2903  0.4292 -0.0287
  344loPI   C5A 5499   3.213  11.417   7.542  0.0176 -0.2420 -0.0365
  344loPI   C6A 5500   3.550  11.152   7.352  0.0331 -0.1462  0.1366
  344loPI   C1B 5501   2.911  11.903   8.923  0.1395 -0.0538  0.1311
  344loPI   C2B 5502   3.020  11.919   8.538  0.1124 -0.0766 -0.4550
  344loPI   C3B 5503   2.955  11.977   8.136  0.1413 -0.0813  0.0726
  344loPI   C4B 5504   2.803  11.741   7.798  0.0253 -0.3705  0.1225
  345loPI    C1 5505   1.057   4.897  10.341  0.2546 -0.0977  0.1998
  345loPI    C2 5506   0.671   4.992  10.386  0.1775 -0.2037 -0.1992
  345loPI    C3 5507   0.947   5.156  10.625 -0.0920  0.0171 -0.0334
  345loPI   PO4 5508   1.007   4.757  10.071  0.3877  0.0738  0.0896
  345loPI   GL1 5509   0.831   4.616   9.780 -0.0406 -0.1456  0.1564
  345loPI   GL2 5510   0.971   4.595   9.473  0.1389  0.2634 -0.0998
  345loPI   C1A 5511   0.437   4.559   9.460 -0.3084 -0.0584  0.0137
  345loPI   C2A 5512   0.124   4.320   9.144  0.2049 -0.1086  0.0030
  345loPI   C3A 5513   0.144   4.294   8.729 -0.2549 -0.1520  0.0099
  345loPI   C4A 5514   0.330   3.994   8.381 -0.1733 -0.0118  0.1117
  345loPI   C5A 5515   0.364   3.875   8.001  0.0331  0.0673  0.0742
  345loPI   C6A 5516   0.530   3.795   7.482  0.0042  0.1095 -0.0271
  345loPI   C1B 5517   0.781   4.633   9.066 -0.3117  0.1326 -0.0132
  345loPI   C2B 5518   0.398   4.664   8.962 -0.0096 -0.0049  0.2437
  345loPI   C3B 5519   0.313   4.757   8.485  0.1726 -0.1471  0.0603
  345loPI   C4B 5520  -0.000   4.720   8.178  0.1362 -0.3493  0.1204
  346loPI    C1 5521  15.670  13.037  10.925  0.1921 -0.1123 -0.0760
  346loPI    C2 5522  15.739  12.811  11.248 -0.0565 -0.2874 -0.1422
  346loPI    C3 5523  15.364  12.906  11.148  0.0378  0.0361 -0.1985
  346loPI   PO4 5524  15.744  12.962  10.660  0.0035 -0.0689 -0.2491
  346loPI   GL1 5525  15.822  13.136  10.217  0.0035 -0.1606 -0.0206
  346loPI   GL2 5526  16.039  13.342  10.181  0.4339 -0.0258  0.0303
  346loPI   C1A 5527  15.707  12.764   9.865 -0.1514  0.1319 -0.1882
  346loPI   C2A 5528  15.940  12.599   9.479  0.2435  0.1361 -0.2025
  346loPI   C3A 5529  16.119  12.725   9.095 -0.2920 -0.1630 -0.2190
  346loPI   C4A 5530  16.479  12.654   8.784 -0.1118  0.0924 -0.0609
  346loPI   C5A 5531  16.506  12.292   8.517 -0.0027  0.0664 -0.0055
  346loPI   C6A 5532  16.774  12.071   8.218 -0.2409  0.1651 -0.0620
  346loPI   C1B 5533  16.108  13.636   9.830 -0.2094 -0.2224  0.1322
  346loPI   C2B 5534  16.299  13.487   9.379  0.1711  0.2358  0.0795
  346loPI   C3B 5535  16.713  13.493   9.316  0.1689 -0.0616 -0.1542
  346loPI   C4B 5536  17.142  13.624   9.418 -0.0973  0.1753 -0.3765
  347loPI    C1 5537   2.969  12.551  10.318 -0.2374 -0.3321 -0.0817
  347loPI    C2 5538   3.285  12.405  10.515  0.0053  0.0120 -0.2075
  347loPI    C3 5539   3.044  12.670  10.693 -0.0907 -0.0888 -0.1863
  347loPI   PO4 5540   2.900  12.393  10.155 -0.3164 -0.3256 -0.0378
  347loPI   GL1 5541   2.763  12.553   9.752  0.1637 -0.0923 -0.1012
  347loPI   GL2 5542   3.036  12.392   9.583  0.0451  0.0702  0.0163
  347loPI   C1A 5543   2.685  12.745   9.307 -0.2447 -0.0667 -0.0160
  347loPI   C2A 5544   2.422  12.954   9.025  0.2210 -0.0103  0.3060
  347loPI   C3A 5545   2.362  13.147   8.583  0.2629 -0.0266 -0.3962
  347loPI   C4A 5546   2.108  13.156   8.193 -0.1292  0.0070  0.2171
  347loPI   C5A 5547   1.986  13.295   7.901  0.1405 -0.1762 -0.3352
  347loPI   C6A 5548   1.506  13.240   7.701  0.0203  0.0554 -0.0653
  347loPI   C1B 5549   2.991  12.340   9.097  0.0027 -0.0354 -0.0279
  347loPI   C2B 5550   3.071  12.423   8.665 -0.1287  0.1515  0.0292
  347loPI   C3B 5551   2.888  12.468   8.313  0.1594 -0.0622 -0.0312
  347loPI   C4B 5552   2.864  12.725   7.963 -0.2608 -0.0585  0.4337
  348loPI    C1 5553   2.272   1.681  10.042  0.1982  0.3308  0.1054
  348loPI    C2 5554   2.064   1.821  10.353  0.0843 -0.1266  0.2425
  348loPI    C3 5555   2.451   1.915  10.313  0.0315  0.1573  0.3690
  348loPI   PO4 5556   2.094   1.717   9.819 -0.0860 -0.2676 -0.1576
  348loPI   GL1 5557   1.920   1.647   9.290  0.0636 -0.1567 -0.2886
  348loPI   GL2 5558   2.306   1.662   9.372 -0.1606  0.0615  0.2212
  348loPI   C1A 5559   1.753   1.462   8.907 -0.0834 -0.1481  0.2034
  348loPI   C2A 5560   1.646   1.121   8.651  0.5804 -0.2276 -0.2153
  348loPI   C3A 5561   1.798   0.775   8.265  0.1803  0.2486  0.0669
  348loPI   C4A 5562   1.820   0.789   7.868 -0.2520 -0.0623  0.0350
  348loPI   C5A 5563   1.631   1.058   7.580 -0.2055 -0.0447  0.1979
  348loPI   C6A 5564   1.590   1.534   7.497  0.1957 -0.0705 -0.0870
  348loPI   C1B 5565   2.176   1.226   9.168 -0.1506 -0.1256 -0.2734
  348loPI   C2B 5566   1.736   0.915   9.183  0.1665  0.0391  0.0156
  348loPI   C3B 5567   1.719   0.669   8.863  0.0402  0.1932  0.1394
  348loPI   C4B 5568   1.775   0.400   8.524  0.2379  0.0195 -0.2420
  349loPI    C1 5569  12.448  18.507  10.265 -0.0338 -0.0828  0.1868
  349loPI    C2 5570  12.691  18.266  10.059  0.3124  0.2367  0.2104
  349loPI    C3 5571  12.587  18.172  10.434 -0.0554 -0.1800  0.0133
  349loPI   PO4 5572  12.269  18.620  10.006  0.2529 -0.0929  0.0896
  349loPI   GL1 5573  12.324  18.528   9.587 -0.3546  0.2401  0.0996
  349loPI   GL2 5574  12.637  18.401   9.594  0.0059  0.0207  0.0492
  349loPI   C1A 5575  12.293  18.580   9.031  0.0659 -0.1392  0.1823
  349loPI   C2A 5576  12.026  18.522   8.607 -0.3263 -0.0239 -0.1495
  349loPI   C3A 5577  11.966  18.718   8.240  0.0853 -0.1163  0.1569
  349loPI   C4A 5578  12.026  19.014   7.941 -0.0275  0.1787 -0.0101
  349loPI   C5A 5579  12.006  19.213   7.579  0.1302 -0.2100 -0.0383
  349loPI   C6A 5580  12.027  19.438   7.184  0.1458 -0.3098 -0.1421
  349loPI   C1B 5581  12.737  18.370   9.113  0.0051  0.2322 -0.1274
  349loPI   C2B 5582  12.632  18.560   8.674 -0.1290  0.0498  0.1708
  349loPI   C3B 5583  12.402  18.455   8.268  0.0822  0.1153 -0.0318
  349loPI   C4B 5584  12.037  18.254   8.204  0.3874  0.1576 -0.2545
  350loPI    C1 5585  17.061   2.613  10.286  0.0485  0.0758  0.0662
  350loPI    C2 5586  16.692   2.476  10.214  0.0560  0.0794  0.0207
  350loPI    C3 5587  16.862   2.414  10.570  0.0780 -0.0722 -0.0156
  350loPI   PO4 5588  17.165   2.716  10.045  0.2788  0.1793 -0.0670
  350loPI   GL1 5589  17.251   2.801   9.696 -0.1637  0.1503  0.1994
  350loPI   GL2 5590  17.272   3.122   9.553 -0.1459 -0.0040 -0.1402
  350loPI   C1A 5591  17.174   2.690   9.239  0.3829  0.0080 -0.0915
  350loPI   C2A 5592  17.350   2.759   8.798  0.0989 -0.1847 -0.0531
  350loPI   C3A 5593  17.595   2.867   8.414  0.0821 -0.3087 -0.1477
  350loPI   C4A 5594  17.639   3.060   7.939  0.1939  0.3002 -0.0452
  350loPI   C5A 5595  17.669   2.850   7.475  0.0241 -0.0444 -0.0128
  350loPI   C6A 5596  17.714   2.417   7.402 -0.1259 -0.2633  0.2864
  350loPI   C1B 5597  17.542   3.106   9.169  0.0716 -0.2489  0.1496
  350loPI   C2B 5598  17.482   3.254   8.632 -0.0234 -0.0147  0.1686
  350loPI   C3B 5599  17.335   3.254   8.250 -0.0060  0.2021 -0.0863
  350loPI   C4B 5600  17.106   3.263   7.869  0.1782  0.3640  0.3415
  351loPI    C1 5601  10.559   2.176  10.139  0.1710  0.2514 -0.2311
  351loPI    C2 5602  10.668   2.187  10.524 -0.1262 -0.1455 -0.1291
  351loPI    C3 5603  10.734   2.503  10.288  0.1621  0.0591  0.2167
  351loPI   PO4 5604  10.613   1.989   9.977 -0.1323  0.2407 -0.0520
  351loPI   GL1 5605  10.662   1.864   9.613 -0.1874  0.3652 -0.1988
  351loPI   GL2 5606  10.838   1.924   9.457 -0.1066  0.0948  0.0145
  351loPI   C1A 5607  10.388   2.004   9.300 -0.1216  0.0480  0.0016
  351loPI   C2A 5608  10.333   2.139   8.973  0.4239 -0.0074  0.1154
  351loPI   C3A 5609  10.226   2.300   8.576 -0.2891 -0.2560 -0.0321
  351loPI   C4A 5610  10.093   2.278   8.185  0.1028  0.3298 -0.0236
  351loPI   C5A 5611  10.320   2.441   7.771 -0.2874  0.1259 -0.0153
  351loPI   C6A 5612  10.449   2.850   7.561  0.0302 -0.3294  0.1205
  351loPI   C1B 5613  10.934   2.114   9.045  0.3483 -0.0962 -0.0664
  351loPI   C2B 5614  10.760   2.195   8.659  0.2637 -0.1026  0.1854
  351loPI   C3B 5615  10.666   2.427   8.303  0.0027  0.1457 -0.3828
  351loPI   C4B 5616  10.709   2.692   7.991 -0.0275  0.0646  0.2257
  352loPI    C1 5617   8.267   5.536  10.118  0.0577 -0.2196 -0.1303
  352loPI    C2 5618   8.163   5.279  10.406  0.1309 -0.0393  0.0598
  352loPI    C3 5619   8.537   5.281  10.266  0.0930 -0.1330 -0.0444
  352loPI   PO4 5620   8.210   5.501   9.878 -0.1686  0.1739 -0.2438
  352loPI   GL1 5621   8.142   5.555   9.525 -0.0165  0.0654  0.2758
  352loPI   GL2 5622   7.819   5.523   9.447  0.3043  0.1856  0.1052
  352loPI   C1A 5623   8.029   5.660   9.010  0.1294  0.2556 -0.0277
  352loPI   C2A 5624   7.745   5.683   8.575  0.0633  0.2359 -0.3259
  352loPI   C3A 5625   7.853   5.655   8.133  0.0694  0.1680 -0.0628
  352loPI   C4A 5626   8.012   5.698   7.647 -0.1311 -0.0889  0.2213
  352loPI   C5A 5627   7.988   6.035   7.283 -0.1123 -0.0515  0.1645
  352loPI   C6A 5628   8.342   6.228   7.151  0.1104  0.2309 -0.3645
  352loPI   C1B 5629   7.681   5.873   9.270 -0.3036 -0.0381  0.1590
  352loPI   C2B 5630   7.513   6.112   8.841  0.0035 -0.0872 -0.1922
  352loPI   C3B 5631   7.346   6.362   8.623  0.2250 -0.3182  0.1170
  352loPI   C4B 5632   7.327   6.700   8.402 -0.3163  0.0430  0.1646
  353loPI    C1 5633  18.466  13.759  10.477  0.1074  0.2236  0.1458
  353loPI    C2 5634  18.214  13.918  10.744  0.1810 -0.0460  0.3807
  353loPI    C3 5635  18.571  14.086  10.681  0.0184  0.2322  0.1781
  353loPI   PO4 5636  18.341  13.669  10.230  0.0046 -0.2890  0.0315
  353loPI   GL1 5637  18.279  13.796   9.869  0.1389  0.2467 -0.0872
  353loPI   GL2 5638  17.931  13.958   9.909  0.1758 -0.1106 -0.1044
  353loPI   C1A 5639  18.234  13.563   9.484  0.0306  0.0647  0.0649
  353loPI   C2A 5640  18.430  13.299   9.126  0.0435  0.1429  0.1969
  353loPI   C3A 5641  18.571  13.245   8.677  0.3375 -0.0767  0.1406
  353loPI   C4A 5642  18.639  13.047   8.271  0.1295 -0.1973  0.1622
  353loPI   C5A 5643  18.640  13.242   7.881  0.0534  0.0617  0.0986
  353loPI   C6A 5644  18.590  13.442   7.513 -0.1138  0.3293  0.0209
  353loPI   C1B 5645  18.014  14.307   9.568 -0.2375 -0.1208 -0.3445
  353loPI   C2B 5646  18.182  14.428   9.206 -0.0170  0.2346  0.0953
  353loPI   C3B 5647  18.455  14.240   8.850  0.1197  0.0717 -0.0264
  353loPI   C4B 5648  18.607  14.178   8.456  0.1757  0.0601  0.0228
  354loPI    C1 5649   3.545  14.559   9.721  0.0371 -0.1297 -0.1690
  354loPI    C2 5650   3.160  14.653   9.778  0.0718 -0.0456 -0.0691
  354loPI    C3 5651   3.445  14.923   9.854  0.1520 -0.1145 -0.1230
  354loPI   PO4 5652   3.487  14.458   9.475  0.3495 -0.3011  0.1338
  354loPI   GL1 5653   3.597  14.373   9.126  0.1602 -0.0346 -0.0626
  354loPI   GL2 5654   3.796  14.389   8.876 -0.3231  0.1041 -0.2038
  354loPI   C1A 5655   3.252  14.334   8.870  0.2036 -0.2027 -0.3559
  354loPI   C2A 5656   3.143  14.378   8.465 -0.2598  0.0891  0.1772
  354loPI   C3A 5657   3.150  14.155   8.072 -0.0231  0.0594 -0.0827
  354loPI   C4A 5658   3.131  14.126   7.732  0.0563 -0.0691 -0.1289
  354loPI   C5A 5659   3.414  14.317   7.312  0.0780 -0.0521 -0.3593
  354loPI   C6A 5660   3.661  14.640   7.035 -0.0055 -0.1223 -0.4352
  354loPI   C1B 5661   3.643  14.152   8.606 -0.0041  0.0215  0.0382
  354loPI   C2B 5662   3.507  13.831   8.312 -0.1927  0.1238  0.0360
  354loPI   C3B 5663   3.347  13.646   7.960 -0.0795 -0.1453 -0.1634
  354loPI   C4B 5664   3.168  13.618   7.540 -0.4720  0.2432 -0.0512
  355loPI    C1 5665  17.319   4.411   9.893 -0.2139  0.1346 -0.1062
  355loPI    C2 5666  17.113   4.481  10.228 -0.2876 -0.0066 -0.1216
  355loPI    C3 5667  17.119   4.754   9.937  0.0810  0.2805  0.1449
  355loPI   PO4 5668  17.199   4.177   9.724 -0.0124 -0.1859 -0.0475
  355loPI   GL1 5669  17.031   4.422   9.404 -0.2117 -0.1394 -0.0468
  355loPI   GL2 5670  16.929   4.735   9.421 -0.1280 -0.0104 -0.3120
  355loPI   C1A 5671  17.216   4.218   8.913  0.1222 -0.0200 -0.0703
  355loPI   C2A 5672  17.467   4.169   8.619 -0.0794 -0.1469  0.4053
  355loPI   C3A 5673  17.774   4.030   8.337  0.0166  0.0215 -0.1952
  355loPI   C4A 5674  18.041   3.975   8.064  0.0750 -0.2422  0.1028
  355loPI   C5A 5675  18.300   3.956   7.824 -0.0954  0.1206 -0.0337
  355loPI   C6A 5676  18.579   3.788   7.856 -0.2611  0.0402  0.3912
  355loPI   C1B 5677  17.119   4.807   9.033  0.0395 -0.3922  0.1544
  355loPI   C2B 5678  17.231   4.639   8.614 -0.0597  0.0336  0.0892
  355loPI   C3B 5679  17.421   4.582   8.210 -0.2693  0.2612  0.0715
  355loPI   C4B 5680  17.766   4.517   8.079 -0.0695  0.4781  0.2715
  356loPI    C1 5681   7.354   1.640  10.147 -0.1976  0.0429  0.2536
  356loPI    C2 5682   7.119   1.878  10.368 -0.0987  0.2396  0.1496
  356loPI    C3 5683   7.517   1.898  10.406 -0.0823  0.2473 -0.0186
  356loPI   PO4 5684   7.281   1.717   9.840 -0.2346  0.2841 -0.1368
  356loPI   GL1 5685   7.425   1.794   9.495  0.1966 -0.1431 -0.0235
  356loPI   GL2 5686   7.716   1.525   9.412 -0.1825  0.3111  0.1295
  356loPI   C1A 5687   7.438   1.716   8.986 -0.2326 -0.0083  0.2262
  356loPI   C2A 5688   7.429   1.701   8.543 -0.3222 -0.1400 -0.0160
  356loPI   C3A 5689   7.393   1.856   8.265  0.1978 -0.0140  0.0915
  356loPI   C4A 5690   7.423   2.089   7.874  0.0467 -0.0322 -0.0948
  356loPI   C5A 5691   7.752   1.990   7.559 -0.3373  0.1407  0.0149
  356loPI   C6A 5692   8.126   1.742   7.639  0.2421 -0.1549  0.0890
  356loPI   C1B 5693   7.941   1.522   9.032  0.2318  0.2226  0.1757
  356loPI   C2B 5694   8.081   1.462   8.649  0.0218 -0.0537 -0.0494
  356loPI   C3B 5695   7.943   1.524   8.287  0.3068  0.1139 -0.1781
  356loPI   C4B 5696   7.767   1.682   7.922  0.0074  0.0250 -0.2366
  357loPI    C1 5697   3.840  15.362   9.716  0.0250 -0.1201 -0.0781
  357loPI    C2 5698   3.481  15.510   9.814  0.1394 -0.0447  0.2386
  357loPI    C3 5699   3.796  15.573  10.053  0.3019 -0.3609  0.1141
  357loPI   PO4 5700   3.887  15.432   9.526  0.1383  0.3773  0.3967
  357loPI   GL1 5701   3.960  15.340   9.097  0.1156  0.1521 -0.1181
  357loPI   GL2 5702   4.238  15.418   9.075 -0.0513  0.0945 -0.2815
  357loPI   C1A 5703   3.951  15.247   8.686  0.1646  0.0677  0.0382
  357loPI   C2A 5704   4.063  15.123   8.314 -0.0770 -0.1049 -0.4061
  357loPI   C3A 5705   3.875  14.690   8.267  0.2218 -0.2072  0.1033
  357loPI   C4A 5706   3.594  14.386   8.119  0.2169 -0.2513  0.0755
  357loPI   C5A 5707   3.660  14.130   7.913  0.0102  0.0718 -0.2254
  357loPI   C6A 5708   3.629  13.871   7.590 -0.0218 -0.0861 -0.0192
  357loPI   C1B 5709   4.476  15.215   8.717 -0.0376  0.1767  0.0307
  357loPI   C2B 5710   4.554  15.108   8.279  0.0294  0.1072  0.4012
  357loPI   C3B 5711   4.422  15.145   7.960 -0.1176 -0.0401  0.1929
  357loPI   C4B 5712   4.390  15.305   7.648  0.1739 -0.0693 -0.0683
  358loPI    C1 5713   3.303  17.787  10.090  0.0746  0.2715 -0.2095
  358loPI    C2 5714   3.055  18.074  10.218 -0.0813  0.0385  0.0193
  358loPI    C3 5715   2.979  17.690  10.303  0.1763 -0.0649 -0.2021
  358loPI   PO4 5716   3.311  17.879   9.884  0.1258 -0.1370  0.0859
  358loPI   GL1 5717   3.299  17.728   9.474 -0.0287  0.0034 -0.2765
  358loPI   GL2 5718   2.955  17.714   9.431  0.2051  0.1183 -0.1013
  358loPI   C1A 5719   3.371  17.583   9.018  0.3781 -0.3014 -0.2385
  358loPI   C2A 5720   3.198  17.455   8.666  0.0659 -0.2289 -0.3352
  358loPI   C3A 5721   3.414  17.391   8.265  0.1007  0.1213  0.1121
  358loPI   C4A 5722   3.457  17.434   7.816 -0.4745  0.0947 -0.1875
  358loPI   C5A 5723   3.683  17.601   7.512 -0.0903 -0.1484 -0.1190
  358loPI   C6A 5724   4.191  17.732   7.653 -0.0957  0.2476 -0.0397
  358loPI   C1B 5725   2.816  17.751   9.057 -0.2322  0.0437 -0.0789
  358loPI   C2B 5726   2.835  17.787   8.671  0.2929  0.0953  0.1026
  358loPI   C3B 5727   2.661  17.398   8.423  0.3051 -0.2973 -0.1180
  358loPI   C4B 5728   2.861  17.012   8.708 -0.1989  0.0470 -0.1001
  359loPI    C1 5729  10.858   8.025  10.658  0.0285 -0.0390  0.0038
  359loPI    C2 5730  10.586   8.269  10.819  0.0970  0.0250  0.0230
  359loPI    C3 5731  10.974   8.322  10.898  0.1083 -0.1215  0.0681
  359loPI   PO4 5732  10.769   8.012  10.372 -0.3656  0.3675  0.0039
  359loPI   GL1 5733  11.139   7.967  10.032 -0.1450 -0.0138  0.2019
  359loPI   GL2 5734  11.393   8.101   9.978  0.0932  0.0647 -0.1029
  359loPI   C1A 5735  11.162   8.254   9.558  0.0705  0.3301 -0.4167
  359loPI   C2A 5736  11.088   8.439   9.230 -0.2733 -0.3382 -0.2713
  359loPI   C3A 5737  10.917   8.432   8.883 -0.3857  0.0373  0.0575
  359loPI   C4A 5738  10.823   8.270   8.455 -0.0638 -0.1126 -0.2399
  359loPI   C5A 5739  10.743   8.239   7.991  0.3752  0.0950 -0.0855
  359loPI   C6A 5740  10.613   8.303   7.500  0.1235 -0.2717  0.1044
  359loPI   C1B 5741  11.748   8.245   9.769 -0.3204  0.0511  0.2142
  359loPI   C2B 5742  11.666   8.321   9.347  0.1928 -0.0701  0.1171
  359loPI   C3B 5743  11.731   8.606   8.980  0.0584 -0.3557  0.1283
  359loPI   C4B 5744  11.954   8.603   8.543 -0.0536  0.1227  0.1316
  360loPI    C1 5745   7.152   3.808   9.786  0.0071 -0.1991 -0.1552
  360loPI    C2 5746   7.188   3.949  10.159  0.0281  0.0167 -0.2374
  360loPI    C3 5747   7.282   3.569  10.079  0.0565 -0.0210 -0.0295
  360loPI   PO4 5748   6.942   3.978   9.628  0.1877 -0.0425  0.0864
  360loPI   GL1 5749   6.766   3.851   9.274 -0.2124 -0.0352  0.1637
  360loPI   GL2 5750   6.724   3.573   9.205  0.0470 -0.1873 -0.0881
  360loPI   C1A 5751   6.687   4.230   9.016  0.1250  0.0734 -0.1631
  360loPI   C2A 5752   6.699   4.324   8.526 -0.2061  0.2104  0.1045
  360loPI   C3A 5753   6.583   4.348   8.123  0.0232 -0.0385  0.1635
  360loPI   C4A 5754   6.506   4.566   7.735 -0.2313  0.0181  0.2301
  360loPI   C5A 5755   6.775   4.664   7.325  0.3177  0.0223 -0.0030
  360loPI   C6A 5756   7.186   4.587   7.128 -0.3390  0.2387  0.2033
  360loPI   C1B 5757   6.494   3.805   8.857  0.1047  0.2750  0.1486
  360loPI   C2B 5758   6.358   3.936   8.483 -0.1854 -0.1630  0.0500
  360loPI   C3B 5759   6.210   4.035   8.151 -0.0258  0.0636  0.1063
  360loPI   C4B 5760   6.298   4.071   7.773 -0.3033  0.0653 -0.1192
  361loPI    C1 5761  16.456   0.611  10.586  0.0569 -0.0776 -0.0562
  361loPI    C2 5762  16.127   0.454  10.421  0.0559 -0.0074 -0.1220
  361loPI    C3 5763  16.095   0.738  10.701  0.0614  0.0476 -0.1772
  361loPI   PO4 5764  16.660   0.632  10.308  0.2299 -0.2506  0.2592
  361loPI   GL1 5765  16.652   0.572   9.886 -0.1180  0.3328 -0.1953
  361loPI   GL2 5766  16.563   0.902   9.809 -0.4576  0.0982  0.1545
  361loPI   C1A 5767  16.529   0.601   9.394 -0.3961  0.2479  0.0990
  361loPI   C2A 5768  16.403   0.449   8.988  0.2143  0.0115  0.0933
  361loPI   C3A 5769  16.478   0.293   8.554 -0.1848  0.0731  0.0133
  361loPI   C4A 5770  16.462   0.252   8.134 -0.1354  0.2587 -0.0107
  361loPI   C5A 5771  16.677   0.163   7.838  0.1184 -0.2294 -0.0594
  361loPI   C6A 5772  16.685   0.020   7.362 -0.0513  0.0846  0.0090
  361loPI   C1B 5773  16.686   1.060   9.404  0.2634  0.3159  0.0339
  361loPI   C2B 5774  16.751   0.934   9.031  0.1988  0.0426 -0.0398
  361loPI   C3B 5775  16.787   0.677   8.688 -0.0554  0.3343  0.0057
  361loPI   C4B 5776  16.956   0.392   8.247  0.3412  0.1105  0.0321
  362loPI    C1 5777  11.738  12.169  10.340  0.1811 -0.2095 -0.1097
  362loPI    C2 5778  11.907  12.502  10.483  0.1217 -0.2087 -0.0408
  362loPI    C3 5779  11.524  12.506  10.366  0.1447 -0.2318 -0.1176
  362loPI   PO4 5780  11.991  12.062  10.221 -0.1190 -0.0822 -0.1940
  362loPI   GL1 5781  11.907  12.294   9.866 -0.4046  0.0269  0.0611
  362loPI   GL2 5782  12.177  12.428   9.715 -0.0812 -0.1896 -0.0611
  362loPI   C1A 5783  11.630  12.189   9.592 -0.1966  0.1794  0.0783
  362loPI   C2A 5784  11.459  12.320   9.289 -0.1329  0.0503  0.2131
  362loPI   C3A 5785  11.605  12.452   8.967 -0.0431  0.1795  0.0522
  362loPI   C4A 5786  11.678  12.510   8.456 -0.1160 -0.3066  0.0451
  362loPI   C5A 5787  11.912  12.558   8.038 -0.3420 -0.1896 -0.3101
  362loPI   C6A 5788  12.405  12.502   7.850  0.2206 -0.1733  0.3478
  362loPI   C1B 5789  12.041  12.287   9.250  0.1807  0.0946 -0.1702
  362loPI   C2B 5790  12.093  12.355   8.699 -0.0669 -0.2554  0.1209
  362loPI   C3B 5791  12.213  12.577   8.403 -0.2386 -0.0922  0.0436
  362loPI   C4B 5792  12.166  12.951   8.136 -0.0837  0.1388  0.0164
  363loPI    C1 5793   8.819   2.214  10.141  0.0596  0.0612 -0.1295
  363loPI    C2 5794   8.584   2.042  10.414 -0.1791  0.1220 -0.2934
  363loPI    C3 5795   8.651   2.436  10.427  0.1935  0.0560 -0.0457
  363loPI   PO4 5796   8.755   2.109   9.907 -0.1448  0.0704  0.1928
  363loPI   GL1 5797   8.712   1.844   9.499 -0.0784  0.4143  0.0379
  363loPI   GL2 5798   8.762   1.605   9.576 -0.1226 -0.1673 -0.0080
  363loPI   C1A 5799   8.860   1.881   9.117  0.0157  0.1813  0.0295
  363loPI   C2A 5800   8.792   1.947   8.631  0.0823 -0.1308  0.1166
  363loPI   C3A 5801   8.765   1.833   8.154  0.1014  0.1293 -0.1000
  363loPI   C4A 5802   8.773   1.837   7.709  0.0626 -0.1613 -0.2573
  363loPI   C5A 5803   8.910   1.653   7.361 -0.2883 -0.0338  0.1116
  363loPI   C6A 5804   8.992   1.120   7.334 -0.3096 -0.0648  0.0892
  363loPI   C1B 5805   8.801   1.411   9.181  0.0636 -0.0559  0.1252
  363loPI   C2B 5806   8.757   1.298   8.757  0.2655 -0.0461  0.3040
  363loPI   C3B 5807   8.518   1.449   8.398  0.0512  0.1415 -0.3450
  363loPI   C4B 5808   8.402   1.572   7.999 -0.2255 -0.4012  0.0354
  364loPI    C1 5809   3.175   1.875   9.803 -0.1723 -0.1060  0.1556
  364loPI    C2 5810   2.869   1.797  10.048 -0.0919  0.1493  0.3419
  364loPI    C3 5811   3.211   1.940  10.196  0.0699  0.0013  0.1172
  364loPI   PO4 5812   3.057   2.029   9.641  0.0505 -0.2103 -0.1092
  364loPI   GL1 5813   2.749   2.106   9.272 -0.0023 -0.2128  0.1816
  364loPI   GL2 5814   3.014   1.981   9.140  0.0464 -0.2163 -0.2238
  364loPI   C1A 5815   2.647   2.295   8.956  0.2209  0.0923 -0.0370
  364loPI   C2A 5816   2.745   2.317   8.557 -0.1621 -0.3463 -0.1069
  364loPI   C3A 5817   2.714   2.512   8.193 -0.1002 -0.2975 -0.2767
  364loPI   C4A 5818   2.769   2.470   7.800  0.2322  0.1574 -0.0827
  364loPI   C5A 5819   2.891   2.126   7.490  0.0210  0.0875 -0.0883
  364loPI   C6A 5820   2.943   2.156   6.998  0.2480 -0.2358 -0.0917
  364loPI   C1B 5821   2.829   1.860   8.745 -0.0487 -0.1951 -0.0663
  364loPI   C2B 5822   2.519   1.685   8.470 -0.0851  0.0444  0.1022
  364loPI   C3B 5823   2.228   1.654   8.105 -0.3194  0.0650  0.0455
  364loPI   C4B 5824   1.919   1.848   7.861 -0.1844 -0.2315 -0.2064
  365loPI    C1 5825   5.604  15.430   9.875 -0.1598 -0.2532  0.2466
  365loPI    C2 5826   5.804  15.653  10.139 -0.2578  0.0763  0.0482
  365loPI    C3 5827   5.449  15.497  10.237 -0.1733 -0.0230  0.1999
  365loPI   PO4 5828   5.880  15.298   9.723  0.0711  0.1142 -0.1744
  365loPI   GL1 5829   6.254  15.203   9.483  0.0423 -0.0735 -0.1749
  365loPI   GL2 5830   6.296  14.914   9.308 -0.0231 -0.2270  0.0867
  365loPI   C1A 5831   6.439  15.287   8.995 -0.1672  0.0578 -0.0776
  365loPI   C2A 5832   6.673  15.306   8.623 -0.3082  0.0115  0.1128
  365loPI   C3A 5833   6.489  15.058   8.227  0.3137  0.0029  0.1814
  365loPI   C4A 5834   6.606  15.130   7.889 -0.2073  0.0447 -0.0201
  365loPI   C5A 5835   6.557  15.074   7.484 -0.0276  0.3215  0.0367
  365loPI   C6A 5836   6.543  14.628   7.376  0.2218  0.0991 -0.1150
  365loPI   C1B 5837   6.233  14.491   9.128 -0.0842 -0.2351  0.2013
  365loPI   C2B 5838   6.135  14.304   8.737  0.0716  0.2354  0.0404
  365loPI   C3B 5839   5.836  14.470   8.350  0.0445  0.1885  0.1708
  365loPI   C4B 5840   5.733  14.530   7.930 -0.1934  0.1185 -0.0664
  366loPI    C1 5841  17.099  18.760  10.675 -0.2021 -0.0193  0.1351
  366loPI    C2 5842  16.833  19.031  10.550 -0.2320 -0.1511 -0.0922
  366loPI    C3 5843  16.730  18.645  10.573 -0.1825 -0.1492  0.2071
  366loPI   PO4 5844  17.391  18.777  10.497  0.0298 -0.3770  0.0797
  366loPI   GL1 5845  17.536  18.910  10.119 -0.0395 -0.2257  0.3608
  366loPI   GL2 5846  17.375  19.097   9.822 -0.4154 -0.2855 -0.2211
  366loPI   C1A 5847  17.920  19.000   9.755  0.1081  0.1548  0.1389
  366loPI   C2A 5848  17.886  18.968   9.276  0.1073  0.0412 -0.0949
  366loPI   C3A 5849  18.117  18.993   8.977 -0.0285 -0.0306 -0.1739
  366loPI   C4A 5850  18.368  19.089   8.618 -0.0765  0.1325  0.2024
  366loPI   C5A 5851  18.645  19.169   8.246  0.2421  0.1612 -0.0541
  366loPI   C6A 5852  18.868  19.591   8.091  0.2475 -0.2828 -0.3289
  366loPI   C1B 5853  17.566  18.719   9.602  0.1847 -0.1225 -0.1629
  366loPI   C2B 5854  17.732  18.346   9.619  0.0104 -0.0282 -0.0458
  366loPI   C3B 5855  17.927  17.946   9.318  0.0365  0.1237 -0.1947
  366loPI   C4B 5856  17.752  17.664   9.111  0.0360  0.0138  0.2274
  367loPI    C1 5857  16.440   3.650  10.053 -0.1022  0.0211 -0.0207
  367loPI    C2 5858  16.379   4.043  10.006  0.3090  0.0865 -0.0495
  367loPI    C3 5859  16.542   3.906  10.344  0.0836 -0.0721 -0.0026
  367loPI   PO4 5860  16.550   3.562   9.844 -0.1299 -0.4182  0.2150
  367loPI   GL1 5861  16.401   3.675   9.450 -0.2581 -0.0714  0.0982
  367loPI   GL2 5862  16.148   3.838   9.281 -0.2334 -0.1367 -0.0064
  367loPI   C1A 5863  16.454   3.396   9.069 -0.0536  0.0914 -0.1588
  367loPI   C2A 5864  16.326   3.481   8.616  0.0169  0.0346  0.2435
  367loPI   C3A 5865  16.281   3.625   8.209 -0.2939 -0.1469  0.3147
  367loPI   C4A 5866  16.398   3.793   7.793 -0.2857 -0.1189 -0.1726
  367loPI   C5A 5867  15.952   3.812   7.731 -0.1184 -0.4371  0.0775
  367loPI   C6A 5868  15.496   3.797   7.857  0.3397 -0.2682  0.1293
  367loPI   C1B 5869  16.334   3.899   8.918 -0.0201 -0.1958  0.0320
  367loPI   C2B 5870  16.412   4.046   8.514  0.1727 -0.0169  0.2761
  367loPI   C3B 5871  16.628   4.097   8.173  0.0281  0.0141 -0.0515
  367loPI   C4B 5872  16.617   4.229   7.863 -0.1268 -0.0299 -0.0205
  368loPI    C1 5873   9.239  15.523  10.283 -0.1942 -0.0272 -0.0338
  368loPI    C2 5874   9.190  15.710  10.632 -0.0351 -0.1843  0.0743
  368loPI    C3 5875   9.319  15.332  10.625  0.0438 -0.1543 -0.1579
  368loPI   PO4 5876   9.013  15.514  10.160 -0.1963 -0.3112  0.1731
  368loPI   GL1 5877   8.929  15.214   9.868  0.0555  0.3033 -0.0438
  368loPI   GL2 5878   9.107  14.942   9.767 -0.0139 -0.2537  0.1262
  368loPI   C1A 5879   8.768  15.253   9.447 -0.0155 -0.2159 -0.0344
  368loPI   C2A 5880   8.577  15.436   9.061  0.1102 -0.3046 -0.1633
  368loPI   C3A 5881   8.551  15.247   8.626 -0.0592  0.1016 -0.0306
  368loPI   C4A 5882   8.560  15.139   8.136  0.1975  0.1857 -0.0909
  368loPI   C5A 5883   8.523  15.250   7.755 -0.2858  0.0990  0.1345
  368loPI   C6A 5884   8.550  15.516   7.472  0.1851  0.0095  0.0343
  368loPI   C1B 5885   9.259  15.046   9.338  0.0484  0.0788  0.0627
  368loPI   C2B 5886   9.039  15.118   8.950  0.0262  0.1485  0.0419
  368loPI   C3B 5887   9.002  15.185   8.448  0.1705 -0.0261 -0.1624
  368loPI   C4B 5888   9.013  15.278   7.993 -0.2285 -0.1578 -0.0834
  369loPI    C1 5889   6.940  11.483  10.332  0.2581 -0.3108 -0.0491
  369loPI    C2 5890   6.905  11.666  10.686 -0.0356 -0.1811 -0.1423
  369loPI    C3 5891   6.932  11.267  10.669  0.3813 -0.1669  0.0476
  369loPI   PO4 5892   7.081  11.628  10.178  0.2963  0.0789  0.3457
  369loPI   GL1 5893   7.115  11.636   9.703 -0.0448  0.4953 -0.0422
  369loPI   GL2 5894   7.411  11.729   9.610  0.0784 -0.1863 -0.1012
  369loPI   C1A 5895   7.028  11.461   9.334  0.2992 -0.0159  0.1030
  369loPI   C2A 5896   7.063  11.573   8.913  0.2088 -0.0898 -0.1868
  369loPI   C3A 5897   7.041  11.710   8.484 -0.0579  0.1629  0.1092
  369loPI   C4A 5898   6.902  11.682   8.145  0.2284 -0.2431  0.2236
  369loPI   C5A 5899   6.781  11.848   7.732  0.1299 -0.1361  0.0722
  369loPI   C6A 5900   7.004  11.761   7.423  0.0290 -0.0203 -0.1679
  369loPI   C1B 5901   7.293  11.866   9.214  0.0147  0.0769 -0.1714
  369loPI   C2B 5902   7.428  11.926   8.757 -0.1217  0.0100  0.1031
  369loPI   C3B 5903   7.506  11.943   8.358 -0.1515 -0.2698 -0.3114
  369loPI   C4B 5904   7.298  11.961   7.923 -0.1878  0.0417  0.3022
  370loPI    C1 5905   4.694   8.352   9.782  0.0190  0.0087 -0.0967
  370loPI    C2 5906   4.736   8.634  10.062  0.2461  0.0465 -0.1671
  370loPI    C3 5907   4.561   8.286  10.153 -0.1610  0.2586 -0.1136
  370loPI   PO4 5908   4.641   8.367   9.539  0.2978  0.2935 -0.0202
  370loPI   GL1 5909   4.315   8.156   9.195  0.1284  0.0792 -0.0846
  370loPI   GL2 5910   4.221   8.459   9.338  0.4439 -0.3269 -0.1252
  370loPI   C1A 5911   4.465   8.152   8.850  0.0767  0.0636  0.0882
  370loPI   C2A 5912   4.302   8.297   8.471 -0.0054 -0.0057  0.1232
  370loPI   C3A 5913   4.554   8.389   8.032 -0.2189 -0.2675  0.2887
  370loPI   C4A 5914   4.821   8.291   7.678 -0.0920 -0.0560  0.2472
  370loPI   C5A 5915   4.954   8.112   7.406  0.1891 -0.1413 -0.3328
  370loPI   C6A 5916   5.364   8.166   7.455  0.0866 -0.1316 -0.1226
  370loPI   C1B 5917   4.209   8.557   8.929  0.2378 -0.5123 -0.3173
  370loPI   C2B 5918   4.685   8.514   8.573  0.2023  0.0599 -0.1008
  370loPI   C3B 5919   4.984   8.344   8.272  0.1748 -0.1964  0.0206
  370loPI   C4B 5920   5.292   8.221   7.961 -0.0907 -0.3998  0.1369
  371loPI    C1 5921  14.273  17.377  10.538 -0.0357 -0.1470  0.2329
  371loPI    C2 5922  14.576  17.291  10.784  0.0364 -0.3464  0.0771
  371loPI    C3 5923  14.244  17.460  10.928  0.3269  0.1356  0.2051
  371loPI   PO4 5924  14.321  17.456  10.344 -0.1236  0.1031  0.1738
  371loPI   GL1 5925  14.177  17.507   9.863  0.0440 -0.0013 -0.1654
  371loPI   GL2 5926  14.486  17.353   9.862  0.0984  0.2688  0.2390
  371loPI   C1A 5927  14.182  17.524   9.467 -0.1463  0.0781  0.1077
  371loPI   C2A 5928  13.945  17.240   9.276  0.1128  0.1000 -0.0721
  371loPI   C3A 5929  14.056  17.056   8.904  0.1493  0.1353 -0.1741
  371loPI   C4A 5930  14.037  16.970   8.530 -0.3100  0.0014 -0.0478
  371loPI   C5A 5931  13.978  16.574   8.146  0.1122  0.1443 -0.2424
  371loPI   C6A 5932  13.633  16.374   7.995 -0.2119  0.2794 -0.2399
  371loPI   C1B 5933  14.696  17.439   9.452  0.2047  0.0730  0.0255
  371loPI   C2B 5934  14.468  17.408   9.035  0.0664  0.0138 -0.1512
  371loPI   C3B 5935  14.427  17.287   8.558  0.2226  0.0032 -0.1358
  371loPI   C4B 5936  14.585  17.621   8.240 -0.2915  0.3375  0.0421
  372loPI    C1 5937   6.871  15.266  10.012 -0.0528 -0.0837 -0.0898
  372loPI    C2 5938   6.764  15.242  10.397  0.1140 -0.0277 -0.0392
  372loPI    C3 5939   6.519  15.104  10.113 -0.0319 -0.0237  0.0834
  372loPI   PO4 5940   7.194  15.058  10.041  0.0218 -0.0346  0.1867
  372loPI   GL1 5941   7.323  14.981   9.637 -0.2040 -0.2380 -0.1135
  372loPI   GL2 5942   7.548  14.844   9.506 -0.1070  0.3107  0.1736
  372loPI   C1A 5943   7.203  15.055   9.128  0.2728  0.0578  0.0793
  372loPI   C2A 5944   7.130  15.021   8.694  0.0217 -0.3370 -0.0444
  372loPI   C3A 5945   7.026  15.121   8.192  0.1482  0.0633  0.0171
  372loPI   C4A 5946   7.100  15.169   7.755 -0.0983  0.1277 -0.0509
  372loPI   C5A 5947   7.012  15.182   7.222  0.1332 -0.1655  0.0833
  372loPI   C6A 5948   6.867  15.539   6.966  0.1718 -0.0691  0.2541
  372loPI   C1B 5949   7.710  14.896   9.108  0.0794 -0.2430 -0.1887
  372loPI   C2B 5950   7.976  14.948   8.737  0.1204  0.3854 -0.0346
  372loPI   C3B 5951   8.044  14.901   8.306  0.2084 -0.2326 -0.0147
  372loPI   C4B 5952   8.087  15.088   7.861 -0.2497 -0.1872  0.1019
  373loPI    C1 5953  12.586  13.191  10.619 -0.0575 -0.3599  0.0357
  373loPI    C2 5954  12.734  13.407  10.921  0.2643  0.0044 -0.3705
  373loPI    C3 5955  12.620  13.029  10.984 -0.0568  0.1963  0.2927
  373loPI   PO4 5956  12.587  13.428  10.403  0.2297  0.0943  0.0434
  373loPI   GL1 5957  12.704  13.561  10.062  0.0645 -0.1433  0.1181
  373loPI   GL2 5958  12.634  13.406   9.688 -0.1853  0.2601 -0.0214
  373loPI   C1A 5959  12.926  13.992   9.799 -0.0256  0.1881 -0.2008
  373loPI   C2A 5960  13.016  14.088   9.273 -0.2604  0.0238 -0.1999
  373loPI   C3A 5961  13.063  13.936   8.874 -0.1662 -0.0205 -0.0431
  373loPI   C4A 5962  13.157  14.262   8.606 -0.1185 -0.2949  0.0633
  373loPI   C5A 5963  13.183  14.508   8.195  0.2559  0.0534  0.0065
  373loPI   C6A 5964  13.169  14.700   7.833  0.0611 -0.1134 -0.2734
  373loPI   C1B 5965  12.568  13.558   9.339  0.0866  0.1408  0.4603
  373loPI   C2B 5966  12.610  13.724   8.960 -0.0728  0.2693 -0.1545
  373loPI   C3B 5967  12.680  13.928   8.546  0.1416 -0.2908  0.0396
  373loPI   C4B 5968  12.711  14.340   8.323 -0.0216 -0.1543  0.3917
  374loPI    C1 5969   1.657  13.574  10.647  0.0922 -0.0519  0.0016
  374loPI    C2 5970   1.679  13.917  10.443  0.0255 -0.0063  0.0704
  374loPI    C3 5971   2.006  13.766  10.617  0.0873 -0.0566 -0.0876
  374loPI   PO4 5972   1.504  13.371  10.418 -0.0023  0.0325 -0.0382
  374loPI   GL1 5973   1.687  13.244   9.954  0.3119  0.1824  0.1136
  374loPI   GL2 5974   1.970  13.139   9.864 -0.3600 -0.4109 -0.1592
  374loPI   C1A 5975   1.352  13.113   9.564  0.1560 -0.0736 -0.7152
  374loPI   C2A 5976   1.119  12.930   9.209 -0.0676  0.1986 -0.0979
  374loPI   C3A 5977   1.013  12.860   8.836 -0.1827 -0.0602  0.1145
  374loPI   C4A 5978   1.125  12.773   8.390 -0.0507 -0.1555 -0.0233
  374loPI   C5A 5979   0.881  12.609   8.076 -0.0555  0.2435  0.0598
  374loPI   C6A 5980   0.598  12.341   7.998 -0.0315 -0.2863 -0.0413
  374loPI   C1B 5981   1.820  13.253   9.455 -0.1671  0.1614 -0.3859
  374loPI   C2B 5982   1.618  13.124   9.113 -0.0667  0.1140 -0.2352
  374loPI   C3B 5983   1.482  12.907   8.660  0.1354  0.0214 -0.0465
  374loPI   C4B 5984   1.520  13.043   8.177  0.1535  0.2275 -0.2110
  375loPI    C1 5985   7.001  13.500   9.941  0.0645  0.2236  0.0124
  375loPI    C2 5986   6.800  13.768  10.159 -0.2294 -0.1303  0.1871
  375loPI    C3 5987   7.107  13.569  10.320 -0.1995 -0.1120  0.1530
  375loPI   PO4 5988   7.056  13.712   9.683 -0.1814  0.1605 -0.4463
  375loPI   GL1 5989   7.034  13.675   9.341 -0.0685  0.0354  0.0201
  375loPI   GL2 5990   6.796  13.806   9.228 -0.1075 -0.0111 -0.0424
  375loPI   C1A 5991   7.082  13.338   9.087  0.2507  0.0226  0.2697
  375loPI   C2A 5992   7.211  13.166   8.759  0.4403  0.1722  0.0702
  375loPI   C3A 5993   7.170  13.281   8.282 -0.3756 -0.1124  0.2870
  375loPI   C4A 5994   7.414  13.203   7.963 -0.1829 -0.3327  0.1257
  375loPI   C5A 5995   7.726  13.050   7.833 -0.3077 -0.2396  0.3202
  375loPI   C6A 5996   8.031  13.098   7.622  0.1012 -0.2835 -0.2191
  375loPI   C1B 5997   6.900  13.781   8.770  0.1543 -0.0697  0.0657
  375loPI   C2B 5998   6.797  13.773   8.318 -0.2078 -0.3061  0.3191
  375loPI   C3B 5999   6.465  13.699   8.046 -0.0194  0.2569  0.0634
  375loPI   C4B 6000   6.317  13.367   7.739 -0.2887 -0.2873  0.0468
  376loPI    C1 6001  16.880  12.162  11.143  0.1526  0.2110 -0.0099
  376loPI    C2 6002  16.524  11.984  11.185  0.2931 -0.1272 -0.2104
  376loPI    C3 6003  16.617  12.301  11.410 -0.0177 -0.2195  0.0548
  376loPI   PO4 6004  16.904  12.107  10.802  0.2050 -0.0849  0.1667
  376loPI   GL1 6005  16.929  12.212  10.343  0.1611 -0.1981 -0.0374
  376loPI   GL2 6006  16.758  12.012  10.250  0.0609 -0.0144 -0.1300
  376loPI   C1A 6007  16.985  12.367   9.952  0.0446 -0.2976  0.1107
  376loPI   C2A 6008  16.994  12.476   9.516  0.1308  0.1504  0.2031
  376loPI   C3A 6009  16.950  12.377   9.043 -0.0307 -0.2633  0.0852
  376loPI   C4A 6010  17.069  12.067   8.674  0.0381  0.1267 -0.1246
  376loPI   C5A 6011  17.225  12.116   8.185 -0.0424  0.1131  0.1417
  376loPI   C6A 6012  17.006  11.836   7.853  0.0637 -0.0982 -0.2615
  376loPI   C1B 6013  17.004  11.789   9.912  0.3051  0.0637  0.2471
  376loPI   C2B 6014  16.831  11.478   9.526 -0.0537 -0.0109 -0.1524
  376loPI   C3B 6015  16.866  11.459   9.110  0.0518  0.0442 -0.1309
  376loPI   C4B 6016  17.113  11.490   8.768 -0.0184  0.0759 -0.1968
  377loPI    C1 6017   7.186   6.936  10.037  0.0014 -0.3266 -0.2346
  377loPI    C2 6018   6.893   6.975  10.307  0.0344 -0.2559 -0.2087
  377loPI    C3 6019   7.104   6.635  10.287  0.1570 -0.1925 -0.0191
  377loPI   PO4 6020   7.108   6.916   9.821  0.4049 -0.4528 -0.1116
  377loPI   GL1 6021   7.116   7.047   9.456 -0.0368 -0.1256  0.1761
  377loPI   GL2 6022   6.950   7.235   9.367 -0.0722  0.0397 -0.0622
  377loPI   C1A 6023   7.208   6.867   9.097  0.1708 -0.0151 -0.0631
  377loPI   C2A 6024   7.073   6.948   8.714 -0.0082 -0.1805  0.1689
  377loPI   C3A 6025   6.854   6.614   8.458  0.0267 -0.1047 -0.0082
  377loPI   C4A 6026   6.833   6.505   8.083  0.0522  0.1512 -0.1117
  377loPI   C5A 6027   6.970   6.380   7.762 -0.0095 -0.1591  0.0533
  377loPI   C6A 6028   6.982   6.452   7.347 -0.1464 -0.1733  0.1870
  377loPI   C1B 6029   7.069   7.507   9.106  0.1479 -0.0282  0.1998
  377loPI   C2B 6030   7.285   7.451   8.700 -0.0588 -0.0036  0.1483
  377loPI   C3B 6031   7.295   7.542   8.262  0.0242 -0.4394 -0.2855
  377loPI   C4B 6032   7.224   7.794   7.939  0.0633 -0.0264  0.1503
  378loPI    C1 6033   0.353  15.318  10.437  0.0876  0.2743  0.0080
  378loPI    C2 6034   0.631  15.077  10.594 -0.0968 -0.0254 -0.1170
  378loPI    C3 6035   0.385  15.280  10.834 -0.0528 -0.0955 -0.0120
  378loPI   PO4 6036   0.312  15.175  10.226  0.1053  0.0296  0.1859
  378loPI   GL1 6037   0.287  15.175   9.808 -0.0008 -0.1219 -0.1999
  378loPI   GL2 6038   0.265  14.786   9.697 -0.0581 -0.2053  0.2159
  378loPI   C1A 6039  -0.075  15.211   9.535 -0.2712  0.0467  0.0688
  378loPI   C2A 6040  -0.301  15.350   9.172 -0.0181  0.1782 -0.1159
  378loPI   C3A 6041  -0.497  15.153   8.791 -0.0584  0.0289  0.0329
  378loPI   C4A 6042  -0.528  15.222   8.366  0.0542 -0.0600 -0.0691
  378loPI   C5A 6043  -0.545  14.881   7.976  0.1212  0.0696  0.3034
  378loPI   C6A 6044  -0.757  14.408   7.936 -0.0541 -0.0558  0.2226
  378loPI   C1B 6045   0.288  15.025   9.254 -0.1717 -0.0460 -0.2177
  378loPI   C2B 6046   0.081  15.146   8.906 -0.0271 -0.1424 -0.1705
  378loPI   C3B 6047  -0.063  15.311   8.547  0.1566  0.3501  0.1822
  378loPI   C4B 6048  -0.034  15.370   8.150 -0.2711  0.2649 -0.2099
  379loPI    C1 6049   8.596  14.874  10.277  0.0646  0.1816  0.3262
  379loPI    C2 6050   8.342  14.614  10.444  0.2247  0.0289  0.3347
  379loPI    C3 6051   8.517  14.896  10.669  0.0612  0.1370  0.3280
  379loPI   PO4 6052   8.694  14.738  10.062 -0.0141  0.2385  0.0953
  379loPI   GL1 6053   8.685  14.734   9.607 -0.0499  0.1437 -0.2608
  379loPI   GL2 6054   8.659  14.317   9.700  0.0816 -0.0268  0.0024
  379loPI   C1A 6055   8.883  14.686   9.257  0.0797  0.0827  0.0885
  379loPI   C2A 6056   8.984  14.664   8.772 -0.2460 -0.1903 -0.0470
  379loPI   C3A 6057   9.019  14.644   8.369 -0.2301  0.1323 -0.0226
  379loPI   C4A 6058   9.047  14.676   7.817 -0.1364 -0.2327  0.0013
  379loPI   C5A 6059   9.299  14.431   7.527  0.3898 -0.2272  0.1853
  379loPI   C6A 6060   9.475  14.373   7.091  0.0262 -0.1062  0.1307
  379loPI   C1B 6061   8.646  14.254   9.328  0.2033  0.2589  0.1766
  379loPI   C2B 6062   8.600  14.362   8.968  0.0078  0.1249 -0.1128
  379loPI   C3B 6063   8.573  14.235   8.495  0.2891 -0.1318  0.1540
  379loPI   C4B 6064   8.583  14.173   8.085  0.0944  0.1930 -0.2950
  380loPI    C1 6065   0.950   6.160  10.532 -0.0279  0.2514  0.0427
  380loPI    C2 6066   1.139   6.412  10.285  0.1832 -0.0556 -0.1152
  380loPI    C3 6067   1.349   6.187  10.541 -0.0081 -0.0228  0.0739
  380loPI   PO4 6068   0.739   6.078  10.301  0.1045  0.1242 -0.0818
  380loPI   GL1 6069   0.613   5.956   9.909  0.0708 -0.1128 -0.2822
  380loPI   GL2 6070   0.438   5.719   9.776 -0.0690  0.0399 -0.0244
  380loPI   C1A 6071   0.444   6.154   9.443 -0.0055  0.2063  0.1083
  380loPI   C2A 6072   0.136   6.114   9.175 -0.0434 -0.1454 -0.1429
  380loPI   C3A 6073   0.022   6.189   8.792 -0.3406  0.2680 -0.0936
  380loPI   C4A 6074  -0.152   6.284   8.295  0.1158  0.3288  0.4161
  380loPI   C5A 6075  -0.302   6.233   7.873 -0.0648 -0.1722 -0.2367
  380loPI   C6A 6076  -0.220   6.414   7.481 -0.1155 -0.0059 -0.3712
  380loPI   C1B 6077   0.554   5.645   9.446  0.1595  0.2748  0.1206
  380loPI   C2B 6078   0.625   5.781   9.114 -0.1911  0.0805  0.0692
  380loPI   C3B 6079   0.756   5.646   8.598  0.2121  0.0297  0.1076
  380loPI   C4B 6080   0.582   5.678   8.251 -0.1299  0.2619 -0.0093
  381loPI    C1 6081  13.949   6.451  10.219  0.0354 -0.0202 -0.0594
  381loPI    C2 6082  13.968   6.059  10.142  0.2735 -0.0265  0.0262
  381loPI    C3 6083  13.949   6.188  10.520  0.1148  0.0422 -0.0046
  381loPI   PO4 6084  14.096   6.541  10.156  0.2089  0.0575  0.0838
  381loPI   GL1 6085  13.975   6.353   9.672  0.2627 -0.4685 -0.0301
  381loPI   GL2 6086  14.341   6.374   9.743 -0.2072  0.0937  0.0497
  381loPI   C1A 6087  14.117   6.348   9.246  0.2223 -0.1110 -0.1320
  381loPI   C2A 6088  14.189   6.291   8.840  0.1221  0.0679 -0.2483
  381loPI   C3A 6089  14.482   6.311   8.623 -0.0351 -0.1269  0.1356
  381loPI   C4A 6090  14.851   6.242   8.550 -0.0028 -0.2834 -0.0658
  381loPI   C5A 6091  15.050   6.306   8.213 -0.0847  0.2043  0.2491
  381loPI   C6A 6092  15.398   6.520   8.008  0.4091 -0.1976 -0.3276
  381loPI   C1B 6093  14.485   6.771   9.473 -0.2674 -0.0971  0.2656
  381loPI   C2B 6094  14.435   6.789   9.038 -0.2134  0.1958  0.3155
  381loPI   C3B 6095  14.450   6.774   8.573 -0.0518  0.2249 -0.0178
  381loPI   C4B 6096  14.428   6.537   8.188  0.3311 -0.0711  0.2302
  382loPI    C1 6097   8.173   4.402   9.991 -0.0450 -0.0409  0.1487
  382loPI    C2 6098   8.261   4.105   9.738  0.0888  0.0850  0.0463
  382loPI    C3 6099   8.485   4.163  10.064  0.0935  0.1046  0.0395
  382loPI   PO4 6100   8.131   4.590   9.814 -0.0668 -0.2851 -0.1721
  382loPI   GL1 6101   8.084   4.653   9.397 -0.2343  0.0677 -0.1111
  382loPI   GL2 6102   7.994   4.443   9.298 -0.0936  0.0289 -0.4049
  382loPI   C1A 6103   8.293   4.816   9.014 -0.0908 -0.1223  0.0248
  382loPI   C2A 6104   8.483   5.016   8.671  0.1485  0.1418 -0.2459
  382loPI   C3A 6105   8.636   4.992   8.275  0.1211  0.0815  0.0061
  382loPI   C4A 6106   8.546   5.080   7.880  0.0102 -0.0696  0.2265
  382loPI   C5A 6107   8.658   5.278   7.556 -0.3872 -0.0233  0.3050
  382loPI   C6A 6108   8.500   5.720   7.343  0.0075 -0.0495 -0.1816
  382loPI   C1B 6109   8.196   4.167   8.951  0.0482 -0.1790 -0.3314
  382loPI   C2B 6110   8.297   4.025   8.532 -0.1510 -0.1859 -0.1047
  382loPI   C3B 6111   8.597   3.927   8.192 -0.0475  0.2716  0.2773
  382loPI   C4B 6112   8.756   3.996   7.784  0.0472  0.1243 -0.0027
  383loPI    C1 6113   5.764  12.082  10.343  0.1456  0.0450 -0.1541
  383loPI    C2 6114   5.606  11.782  10.556  0.2974 -0.0070 -0.1138
  383loPI    C3 6115   5.764  12.099  10.743  0.1647  0.0846 -0.1559
  383loPI   PO4 6116   5.757  11.993  10.123 -0.1389 -0.2319  0.0738
  383loPI   GL1 6117   5.746  12.101   9.695  0.2880  0.1864 -0.0245
  383loPI   GL2 6118   5.691  12.342   9.604  0.0073 -0.0575  0.3245
  383loPI   C1A 6119   5.614  11.726   9.326  0.0720 -0.1308 -0.1635
  383loPI   C2A 6120   5.392  11.542   9.010 -0.3312  0.3713  0.0720
  383loPI   C3A 6121   5.266  11.299   8.651  0.1665 -0.1489  0.0057
  383loPI   C4A 6122   5.143  11.280   8.258  0.2058  0.0179  0.0001
  383loPI   C5A 6123   5.162  11.266   7.854  0.0272  0.2709  0.0023
  383loPI   C6A 6124   5.486  10.973   7.673  0.2864  0.1670 -0.3959
  383loPI   C1B 6125   5.454  12.302   9.203 -0.2268  0.2107  0.0430
  383loPI   C2B 6126   5.387  12.146   8.850  0.2417  0.0459  0.1492
  383loPI   C3B 6127   5.487  11.814   8.536 -0.1859 -0.2428 -0.1248
  383loPI   C4B 6128   5.513  11.758   8.146 -0.1993 -0.2300  0.0595
  384loPI    C1 6129   7.856   1.530  10.181  0.3146 -0.0661 -0.4793
  384loPI    C2 6130   8.093   1.757  10.409 -0.2225  0.0302  0.0063
  384loPI    C3 6131   8.023   1.376  10.509 -0.0063 -0.1014 -0.3280
  384loPI   PO4 6132   7.966   1.543   9.834 -0.2544  0.0819  0.1060
  384loPI   GL1 6133   8.279   1.307   9.537  0.3717  0.0382  0.1039
  384loPI   GL2 6134   8.570   1.097   9.537  0.0238  0.1721 -0.0560
  384loPI   C1A 6135   8.339   1.208   9.140  0.2102 -0.1987 -0.1510
  384loPI   C2A 6136   8.348   0.970   8.775  0.2428 -0.1477 -0.1170
  384loPI   C3A 6137   8.168   1.042   8.327 -0.1690  0.1766 -0.2343
  384loPI   C4A 6138   7.780   1.066   8.057 -0.1205 -0.1975  0.0521
  384loPI   C5A 6139   7.549   1.051   7.739 -0.4437  0.0823 -0.0343
  384loPI   C6A 6140   7.258   1.164   7.430 -0.0512 -0.0454  0.0975
  384loPI   C1B 6141   8.724   0.908   9.136 -0.1402 -0.1307  0.0206
  384loPI   C2B 6142   8.916   0.768   8.713 -0.1976 -0.1054  0.2177
  384loPI   C3B 6143   8.610   0.808   8.309 -0.0419 -0.0319 -0.3694
  384loPI   C4B 6144   8.544   1.090   7.979  0.2670  0.0185  0.1708
  385loPI    C1 6145  17.853  14.337  10.657 -0.2616  0.1053 -0.1022
  385loPI    C2 6146  17.744  14.005  10.852  0.2250 -0.1151 -0.1905
  385loPI    C3 6147  17.898  14.314  11.054  0.0335 -0.0492 -0.1425
  385loPI   PO4 6148  17.696  14.252  10.411 -0.0540  0.2126  0.0952
  385loPI   GL1 6149  17.583  14.308   9.903 -0.1546 -0.5064  0.3187
  385loPI   GL2 6150  17.614  14.540  10.023  0.4876 -0.1714  0.1589
  385loPI   C1A 6151  17.454  14.283   9.541 -0.1236 -0.0255 -0.0735
  385loPI   C2A 6152  17.658  14.232   9.193 -0.2165  0.1003 -0.2323
  385loPI   C3A 6153  17.785  14.323   8.767  0.1150 -0.0428 -0.2423
  385loPI   C4A 6154  18.068  14.175   8.537 -0.1366  0.1322  0.3141
  385loPI   C5A 6155  18.230  14.041   8.147  0.1882 -0.0121  0.3266
  385loPI   C6A 6156  18.360  13.724   7.901 -0.2157  0.2086 -0.0465
  385loPI   C1B 6157  17.752  14.745   9.634 -0.1830  0.0373 -0.1032
  385loPI   C2B 6158  17.789  14.793   9.224 -0.0402  0.0769 -0.0143
  385loPI   C3B 6159  17.954  14.783   8.789 -0.1933  0.1082  0.2236
  385loPI   C4B 6160  17.847  14.687   8.344  0.0660 -0.0882  0.2428
  386loPI    C1 6161  17.868  15.884  10.498 -0.0515 -0.0135  0.0143
  386loPI    C2 6162  17.564  15.763  10.728 -0.0076 -0.1689 -0.0087
  386loPI    C3 6163  17.874  15.957  10.892 -0.1422  0.0356  0.0067
  386loPI   PO4 6164  17.715  16.013  10.270  0.0972 -0.2491 -0.0820
  386loPI   GL1 6165  17.647  15.942   9.942 -0.1813 -0.2380  0.2820
  386loPI   GL2 6166  17.660  16.062   9.606  0.1537 -0.0051 -0.0501
  386loPI   C1A 6167  17.628  15.597   9.596 -0.3007  0.2346 -0.1179
  386loPI   C2A 6168  17.381  15.292   9.440  0.0219  0.2105 -0.0093
  386loPI   C3A 6169  17.404  15.194   8.992  0.3499  0.0772  0.0663
  386loPI   C4A 6170  17.485  14.912   8.648 -0.1479 -0.1424  0.1618
  386loPI   C5A 6171  17.421  14.975   8.191 -0.5061 -0.1548  0.2216
  386loPI   C6A 6172  17.693  14.993   7.733  0.0266 -0.2510  0.0304
  386loPI   C1B 6173  17.463  16.128   9.186  0.1328  0.3514 -0.3301
  386loPI   C2B 6174  17.443  16.112   8.676  0.0289 -0.0569  0.2424
  386loPI   C3B 6175  17.434  16.149   8.172 -0.2168  0.1566 -0.0337
  386loPI   C4B 6176  17.133  16.224   7.915 -0.0437  0.2531 -0.0688
  387loPI    C1 6177   9.698   2.438  10.093 -0.1350  0.0599 -0.0417
  387loPI    C2 6178   9.642   2.733  10.357 -0.0739 -0.0169  0.0580
  387loPI    C3 6179   9.877   2.423  10.451 -0.1005 -0.0745 -0.0639
  387loPI   PO4 6180   9.730   2.650   9.895 -0.2000 -0.0314 -0.0381
  387loPI   GL1 6181   9.486   2.648   9.556  0.2895  0.0475 -0.2221
  387loPI   GL2 6182   9.214   2.796   9.446  0.0626 -0.2903  0.0434
  387loPI   C1A 6183   9.429   2.436   9.162  0.2816 -0.2319 -0.1192
  387loPI   C2A 6184   9.380   2.736   8.741  0.2057  0.2042 -0.1325
  387loPI   C3A 6185   9.156   2.641   8.405 -0.0717  0.0413 -0.2387
  387loPI   C4A 6186   9.133   2.834   8.010 -0.0412 -0.1486  0.1546
  387loPI   C5A 6187   9.029   3.129   7.717 -0.1394 -0.0257 -0.0614
  387loPI   C6A 6188   8.680   3.374   7.648  0.3609  0.2763  0.2390
  387loPI   C1B 6189   9.076   3.020   9.052  0.0969  0.1019  0.3815
  387loPI   C2B 6190   9.115   3.212   8.641 -0.0713  0.1796  0.3378
  387loPI   C3B 6191   9.296   3.289   8.268 -0.0613  0.0617 -0.1588
  387loPI   C4B 6192   9.507   3.188   7.781  0.1456 -0.0727 -0.0994
  388loPI    C1 6193  10.383  17.881   9.962  0.0501  0.2023  0.2710
  388loPI    C2 6194  10.716  17.758  10.146  0.2564  0.2809 -0.0410
  388loPI    C3 6195  10.382  17.539  10.169  0.4237  0.0248 -0.0088
  388loPI   PO4 6196  10.446  17.963   9.784 -0.3008 -0.0414 -0.0660
  388loPI   GL1 6197  10.725  17.992   9.435 -0.0287  0.1701  0.0874
  388loPI   GL2 6198  10.855  18.322   9.276 -0.2826 -0.1907 -0.1791
  388loPI   C1A 6199  11.136  17.926   9.173  0.0802  0.0332 -0.6196
  388loPI   C2A 6200  11.434  17.804   8.900  0.1660 -0.0557 -0.0613
  388loPI   C3A 6201  11.397  17.626   8.593  0.0956 -0.3636  0.0800
  388loPI   C4A 6202  11.535  17.648   8.164  0.2862  0.2200 -0.2644
  388loPI   C5A 6203  11.331  17.700   7.762  0.0511  0.1850 -0.1665
  388loPI   C6A 6204  11.214  17.791   7.447 -0.0450  0.1284  0.1903
  388loPI   C1B 6205  10.805  18.167   8.844  0.3121 -0.0270 -0.0014
  388loPI   C2B 6206  11.206  18.155   8.537 -0.0780  0.1055 -0.1320
  388loPI   C3B 6207  11.458  18.119   8.140 -0.2551  0.1383 -0.0454
  388loPI   C4B 6208  11.277  18.214   7.742  0.2752  0.0597  0.0963
  389loPI    C1 6209   8.560  17.829   9.934 -0.1936 -0.0739 -0.2455
  389loPI    C2 6210   8.593  18.093  10.232 -0.2445 -0.0620 -0.2504
  389loPI    C3 6211   8.551  17.704  10.314 -0.3351 -0.0503 -0.2407
  389loPI   PO4 6212   8.397  18.021   9.658 -0.0312  0.2550  0.0216
  389loPI   GL1 6213   8.073  18.029   9.298  0.2233 -0.3898  0.0579
  389loPI   GL2 6214   8.269  18.153   9.128  0.3325  0.2660 -0.1275
  389loPI   C1A 6215   7.795  17.990   8.936  0.2333 -0.2614  0.1586
  389loPI   C2A 6216   7.412  18.014   8.572  0.3137  0.1135  0.0536
  389loPI   C3A 6217   7.407  18.016   8.147  0.2065 -0.0900 -0.1672
  389loPI   C4A 6218   7.375  18.107   7.763 -0.0179 -0.0539  0.1995
  389loPI   C5A 6219   7.504  18.083   7.319 -0.0427  0.0307  0.1011
  389loPI   C6A 6220   7.821  18.242   7.089 -0.1890  0.1218 -0.4578
  389loPI   C1B 6221   8.149  18.378   8.837  0.2321  0.1090 -0.0154
  389loPI   C2B 6222   8.101  18.094   8.499 -0.0139 -0.0924 -0.2114
  389loPI   C3B 6223   8.379  17.924   8.078  0.1904 -0.0232  0.0286
  389loPI   C4B 6224   8.745  17.916   7.808  0.2040  0.1748 -0.0976
  390loPI    C1 6225   3.734  10.428   9.905 -0.1092  0.1462  0.0743
  390loPI    C2 6226   3.668  10.704  10.188 -0.0202  0.1135  0.1272
  390loPI    C3 6227   3.498  10.343  10.217  0.0416  0.0880  0.1734
  390loPI   PO4 6228   3.644  10.449   9.612 -0.0800  0.2509 -0.0844
  390loPI   GL1 6229   3.543  10.212   9.237 -0.1306  0.1643  0.1659
  390loPI   GL2 6230   3.267  10.030   9.277 -0.1010  0.0815 -0.2418
  390loPI   C1A 6231   3.865  10.066   8.878  0.0876 -0.0995 -0.1307
  390loPI   C2A 6232   4.045  10.196   8.543  0.1492 -0.1235 -0.3210
  390loPI   C3A 6233   4.265  10.188   8.235  0.1715  0.1058  0.0369
  390loPI   C4A 6234   4.323   9.903   7.979  0.2420  0.1511  0.2253
  390loPI   C5A 6235   3.995   9.537   7.725  0.0003 -0.3332  0.0510
  390loPI   C6A 6236   3.734   9.186   7.555 -0.1261  0.1839  0.2234
  390loPI   C1B 6237   3.018   9.959   8.867 -0.2039 -0.0962 -0.3271
  390loPI   C2B 6238   3.027   9.805   8.444  0.3856  0.0803  0.1102
  390loPI   C3B 6239   3.203   9.827   7.995  0.1484  0.3949 -0.2816
  390loPI   C4B 6240   3.026  10.006   7.585  0.0599 -0.2607 -0.0266
  391loPI    C1 6241   3.180   9.006   9.637 -0.0466  0.0644  0.0423
  391loPI    C2 6242   3.171   8.903  10.024 -0.3049 -0.0962 -0.0039
  391loPI    C3 6243   3.503   9.061   9.866 -0.0412 -0.4593  0.1737
  391loPI   PO4 6244   2.922   8.888   9.567  0.0071  0.2805  0.0904
  391loPI   GL1 6245   2.798   8.891   9.231 -0.1616 -0.2181 -0.1639
  391loPI   GL2 6246   2.758   8.553   9.227  0.2287 -0.0730 -0.2946
  391loPI   C1A 6247   2.720   9.086   8.743  0.1363  0.2630  0.0956
  391loPI   C2A 6248   2.656   9.079   8.327 -0.0158 -0.1793  0.0437
  391loPI   C3A 6249   2.572   9.176   7.851 -0.2948 -0.1216 -0.2075
  391loPI   C4A 6250   2.644   9.226   7.387  0.2843  0.2938  0.1678
  391loPI   C5A 6251   2.445   9.427   7.150  0.0838 -0.2042  0.1753
  391loPI   C6A 6252   2.252   9.501   6.798 -0.0148  0.1289  0.0060
  391loPI   C1B 6253   2.847   8.556   8.728  0.1073  0.1546  0.0477
  391loPI   C2B 6254   2.762   8.604   8.253  0.0220  0.2883 -0.1540
  391loPI   C3B 6255   2.859   8.748   7.791  0.1394 -0.0188 -0.4351
  391loPI   C4B 6256   3.063   8.793   7.379 -0.0412 -0.0427 -0.1550
  392loPI    C1 6257   7.548  12.639   9.982 -0.1149  0.1129 -0.1360
  392loPI    C2 6258   7.819  12.857  10.180 -0.2211  0.0899  0.0365
  392loPI    C3 6259   7.473  12.759  10.356 -0.2303 -0.1064 -0.0870
  392loPI   PO4 6260   7.736  12.460   9.828 -0.0013  0.0029 -0.0142
  392loPI   GL1 6261   7.609  12.212   9.426  0.0929 -0.3168  0.2030
  392loPI   GL2 6262   8.009  12.196   9.438 -0.0489 -0.0216 -0.2786
  392loPI   C1A 6263   7.661  12.316   8.950  0.1881  0.2442 -0.1405
  392loPI   C2A 6264   7.671  12.351   8.483 -0.0876 -0.1755  0.0115
  392loPI   C3A 6265   7.545  12.367   8.061  0.1067  0.0526 -0.2175
  392loPI   C4A 6266   7.519  12.309   7.612 -0.2089  0.0709 -0.4617
  392loPI   C5A 6267   7.320  12.102   7.311  0.1310 -0.0927 -0.1938
  392loPI   C6A 6268   7.258  12.284   6.910  0.1761  0.1364  0.0884
  392loPI   C1B 6269   8.232  12.063   9.079 -0.1220 -0.2647  0.1970
  392loPI   C2B 6270   8.485  11.789   8.755  0.1462  0.3895 -0.0593
  392loPI   C3B 6271   8.638  11.585   8.418 -0.0417 -0.0247  0.0524
  392loPI   C4B 6272   8.913  11.556   8.090  0.4641 -0.0624 -0.0769
  393loPI    C1 6273   9.759  12.102  10.274  0.0484  0.0283 -0.1295
  393loPI    C2 6274   9.706  12.219  10.653  0.1870 -0.0964 -0.0706
  393loPI    C3 6275   9.786  12.489  10.369 -0.1056  0.0194 -0.0460
  393loPI   PO4 6276   9.506  11.990  10.217  0.2272  0.1630  0.0173
  393loPI   GL1 6277   9.438  11.893   9.781 -0.2231  0.1074 -0.1335
  393loPI   GL2 6278   9.744  11.713   9.851 -0.1010  0.0571 -0.0827
  393loPI   C1A 6279   9.485  12.133   9.479 -0.1595  0.1293 -0.0848
  393loPI   C2A 6280   9.455  12.298   9.027  0.1398 -0.3559  0.0932
  393loPI   C3A 6281   9.387  12.561   8.690  0.3829 -0.0832  0.2035
  393loPI   C4A 6282   9.428  12.956   8.425  0.0697 -0.0305 -0.1657
  393loPI   C5A 6283   9.299  13.086   7.998 -0.0724  0.1489  0.1993
  393loPI   C6A 6284   9.047  12.811   7.712  0.5167  0.0107  0.2631
  393loPI   C1B 6285   9.926  11.882   9.466  0.0249 -0.0783 -0.0690
  393loPI   C2B 6286   9.861  11.923   9.012  0.3376 -0.0825  0.0624
  393loPI   C3B 6287   9.646  11.923   8.701  0.0658  0.1116 -0.2505
  393loPI   C4B 6288   9.668  11.788   8.278 -0.0370 -0.0651  0.2699
  394loPI    C1 6289  13.459   2.133  10.013 -0.1791  0.0263 -0.1201
  394loPI    C2 6290  13.277   2.289  10.333 -0.0323  0.0482 -0.0465
  394loPI    C3 6291  13.489   1.951  10.368  0.0066  0.0655 -0.1147
  394loPI   PO4 6292  13.270   2.180   9.812  0.1769  0.2951 -0.1935
  394loPI   GL1 6293  12.945   2.250   9.451 -0.0673 -0.1303 -0.1335
  394loPI   GL2 6294  12.589   2.403   9.512 -0.3655  0.0389  0.0662
  394loPI   C1A 6295  12.697   2.443   9.020  0.1522 -0.0010  0.0627
  394loPI   C2A 6296  12.689   2.683   8.658 -0.3926  0.1042 -0.4264
  394loPI   C3A 6297  12.607   2.915   8.243 -0.1868  0.3011 -0.0350
  394loPI   C4A 6298  12.442   2.663   7.844 -0.0033 -0.3211  0.3548
  394loPI   C5A 6299  12.497   2.317   7.508  0.0391  0.3043  0.0593
  394loPI   C6A 6300  12.826   2.238   7.116 -0.0072  0.0763  0.0318
  394loPI   C1B 6301  12.540   2.778   9.397  0.1509 -0.2211 -0.0889
  394loPI   C2B 6302  12.432   3.081   8.986 -0.2939 -0.1591 -0.0011
  394loPI   C3B 6303  12.258   3.184   8.553  0.0623  0.1850 -0.0820
  394loPI   C4B 6304  12.196   3.251   8.061 -0.1475 -0.1156 -0.0169
  395loPI    C1 6305  17.740   6.420  10.635 -0.2475 -0.2557 -0.1244
  395loPI    C2 6306  17.646   6.604  10.977 -0.1413 -0.1780 -0.1362
  395loPI    C3 6307  17.614   6.207  10.949  0.1297 -0.2165  0.0596
  395loPI   PO4 6308  17.684   6.584  10.417 -0.0607 -0.0552  0.1312
  395loPI   GL1 6309  17.871   6.526  10.009 -0.1419 -0.2042 -0.1861
  395loPI   GL2 6310  18.192   6.453   9.892 -0.0670  0.1753 -0.3915
  395loPI   C1A 6311  17.707   6.581   9.686  0.0927 -0.4732  0.1522
  395loPI   C2A 6312  17.612   6.434   9.374  0.2096 -0.0790 -0.0960
  395loPI   C3A 6313  17.475   6.094   9.095 -0.1446  0.0625 -0.0654
  395loPI   C4A 6314  17.510   5.994   8.663 -0.0660 -0.1834  0.1327
  395loPI   C5A 6315  17.409   6.062   8.238  0.0630  0.0271  0.0856
  395loPI   C6A 6316  17.529   6.141   7.824 -0.0539 -0.1906  0.0586
  395loPI   C1B 6317  18.153   6.473   9.518 -0.0433 -0.2661 -0.0452
  395loPI   C2B 6318  18.027   6.663   9.100 -0.0835 -0.3316  0.0829
  395loPI   C3B 6319  17.794   6.475   8.845 -0.1189 -0.0922  0.1905
  395loPI   C4B 6320  17.623   6.473   8.420 -0.2671  0.2156 -0.2076
  396loPI    C1 6321   1.087   2.584  10.342  0.3260  0.1978  0.0172
  396loPI    C2 6322   1.209   2.279  10.570 -0.2155 -0.0214  0.0282
  396loPI    C3 6323   1.083   2.618  10.740  0.1746  0.1317  0.0220
  396loPI   PO4 6324   1.196   2.646  10.206 -0.1867  0.0949  0.2091
  396loPI   GL1 6325   1.230   2.664   9.717  0.2744  0.3603 -0.0698
  396loPI   GL2 6326   1.322   2.333   9.713  0.1604  0.0058 -0.0237
  396loPI   C1A 6327   1.609   2.716   9.450 -0.0472  0.0584  0.1140
  396loPI   C2A 6328   1.903   2.609   9.074  0.3086 -0.0045 -0.0284
  396loPI   C3A 6329   2.107   2.396   8.763  0.2704  0.0429 -0.0423
  396loPI   C4A 6330   2.241   2.633   8.485 -0.0972  0.0442 -0.3570
  396loPI   C5A 6331   2.280   2.685   8.023  0.1692 -0.0354 -0.1696
  396loPI   C6A 6332   2.353   2.838   7.633 -0.1230 -0.0299  0.3561
  396loPI   C1B 6333   1.110   2.212   9.226  0.3344  0.0713  0.1567
  396loPI   C2B 6334   1.005   1.950   8.820  0.0265 -0.3153 -0.0607
  396loPI   C3B 6335   0.947   2.053   8.554 -0.1403 -0.2555  0.3485
  396loPI   C4B 6336   1.054   2.107   8.123 -0.0924 -0.0112  0.0257
  397loPI    C1 6337   1.336   0.175  10.133 -0.0730  0.0793 -0.1541
  397loPI    C2 6338   1.195   0.105  10.501  0.0638  0.0917 -0.0984
  397loPI    C3 6339   0.942   0.149  10.194 -0.0543  0.1574  0.0074
  397loPI   PO4 6340   1.607   0.000  10.031 -0.1097  0.0043 -0.0737
  397loPI   GL1 6341   1.618  -0.168   9.703  0.3135  0.2518 -0.3289
  397loPI   GL2 6342   1.839  -0.303   9.643  0.0033 -0.0199  0.0949
  397loPI   C1A 6343   1.496  -0.374   9.274  0.1101 -0.3023 -0.2561
  397loPI   C2A 6344   1.496  -0.320   8.810 -0.0667  0.2624  0.0421
  397loPI   C3A 6345   1.319  -0.275   8.464  0.0312  0.0076  0.1755
  397loPI   C4A 6346   1.432  -0.451   8.033 -0.1156  0.2000  0.0192
  397loPI   C5A 6347   1.867  -0.356   7.898  0.3490 -0.0126 -0.1360
  397loPI   C6A 6348   2.078  -0.322   7.570 -0.0963 -0.0515 -0.1419
  397loPI   C1B 6349   2.048  -0.092   9.336 -0.2561  0.0676 -0.1934
  397loPI   C2B 6350   2.088  -0.237   8.912  0.3188 -0.0402  0.2236
  397loPI   C3B 6351   1.902  -0.196   8.515  0.0059 -0.0508  0.0429
  397loPI   C4B 6352   1.977   0.073   8.145 -0.1431  0.4023 -0.1900
  398loPI    C1 6353  14.799   0.421  10.347 -0.0794 -0.0608  0.2010
  398loPI    C2 6354  15.112   0.374  10.103 -0.1252 -0.1940  0.1666
  398loPI    C3 6355  15.106   0.192  10.459  0.0017  0.1074  0.3267
  398loPI   PO4 6356  14.599   0.495  10.179  0.1529  0.1226 -0.0942
  398loPI   GL1 6357  14.780   0.442   9.771 -0.1646 -0.3726 -0.1517
  398loPI   GL2 6358  14.512   0.401   9.679  0.1736 -0.0070 -0.2665
  398loPI   C1A 6359  15.081   0.446   9.479 -0.2736 -0.0936  0.0969
  398loPI   C2A 6360  15.193   0.615   9.137 -0.1090 -0.0822 -0.3375
  398loPI   C3A 6361  15.198   0.899   8.629 -0.0978  0.2691 -0.1795
  398loPI   C4A 6362  15.226   1.223   8.228  0.0466 -0.4144  0.0946
  398loPI   C5A 6363  15.359   1.598   7.951 -0.0313 -0.1578  0.1665
  398loPI   C6A 6364  15.208   1.938   8.138  0.0266  0.2661  0.1712
  398loPI   C1B 6365  14.515   0.557   9.341 -0.3125  0.1034  0.1384
  398loPI   C2B 6366  14.750   0.582   8.956  0.0449  0.3688 -0.2751
  398loPI   C3B 6367  14.766   0.565   8.477 -0.0772  0.2092 -0.0914
  398loPI   C4B 6368  14.519   0.388   8.185  0.0518 -0.2798 -0.0472
  399loPI    C1 6369   8.597   3.708   9.874  0.0505  0.1829 -0.0308
  399loPI    C2 6370   8.673   3.362  10.060  0.2967  0.4047  0.2930
  399loPI    C3 6371   8.317   3.538  10.103  0.1139  0.1189 -0.0004
  399loPI   PO4 6372   8.747   3.673   9.674 -0.1143  0.0272 -0.1926
  399loPI   GL1 6373   8.792   3.822   9.254  0.1206  0.0402  0.0532
  399loPI   GL2 6374   8.679   4.131   9.125 -0.1006 -0.0847  0.0365
  399loPI   C1A 6375   8.768   3.707   8.809 -0.0171  0.1560  0.0765
  399loPI   C2A 6376   8.941   3.632   8.429  0.0666 -0.2761 -0.1851
  399loPI   C3A 6377   8.928   3.597   8.052  0.2486  0.2083 -0.2732
  399loPI   C4A 6378   9.135   3.592   7.618 -0.4036  0.0997 -0.1893
  399loPI   C5A 6379   9.289   3.274   7.344  0.4737 -0.1539 -0.2637
  399loPI   C6A 6380   9.371   2.920   7.091 -0.1222 -0.1728  0.3096
  399loPI   C1B 6381   8.678   4.312   8.727  0.0522  0.1211 -0.1308
  399loPI   C2B 6382   8.665   4.418   8.345  0.1579  0.4230  0.0854
  399loPI   C3B 6383   8.623   4.563   7.954 -0.0569  0.0885 -0.0335
  399loPI   C4B 6384   8.735   4.531   7.611 -0.1090 -0.2913  0.1708
  400loPI    C1 6385   1.145  11.955  10.293 -0.0674  0.0610 -0.2511
  400loPI    C2 6386   0.841  11.697  10.325 -0.0448  0.0525 -0.0987
  400loPI    C3 6387   0.858  12.017  10.565  0.2112 -0.0962  0.0870
  400loPI   PO4 6388   1.146  12.005   9.993 -0.1803  0.0476  0.0412
  400loPI   GL1 6389   0.888  12.091   9.603  0.2587  0.0643 -0.1503
  400loPI   GL2 6390   0.555  12.045   9.529 -0.1465 -0.1649  0.0520
  400loPI   C1A 6391   1.062  11.867   9.290  0.2115  0.1082  0.0011
  400loPI   C2A 6392   1.165  11.833   8.906  0.2655 -0.0399  0.0232
  400loPI   C3A 6393   1.212  11.778   8.482  0.0601 -0.3975  0.1377
  400loPI   C4A 6394   1.192  11.654   8.050 -0.1713  0.0177 -0.1588
  400loPI   C5A 6395   0.936  11.702   7.599 -0.0575 -0.1094  0.0944
  400loPI   C6A 6396   0.955  12.100   7.234 -0.2608 -0.3096  0.0931
  400loPI   C1B 6397   0.619  12.072   9.080  0.1247  0.0308 -0.1647
  400loPI   C2B 6398   0.479  12.117   8.613  0.1796 -0.1578 -0.0354
  400loPI   C3B 6399   0.238  12.004   8.215  0.2021 -0.4171  0.0224
  400loPI   C4B 6400   0.149  12.284   7.876 -0.2521  0.1634  0.0800
  401loPI    C1 6401  16.047   4.260   9.602  0.0316  0.0389 -0.1321
  401loPI    C2 6402  15.906   4.287   9.976  0.0387  0.0682 -0.1315
  401loPI    C3 6403  15.834   4.580   9.713  0.1227  0.0968 -0.1230
  401loPI   PO4 6404  16.258   4.253   9.577 -0.1671  0.0278  0.1653
  401loPI   GL1 6405  16.527   4.194   9.283 -0.1206 -0.2077 -0.0457
  401loPI   GL2 6406  16.203   4.430   9.146 -0.1406  0.0123  0.1237
  401loPI   C1A 6407  16.753   4.343   8.933  0.1398  0.2190 -0.0328
  401loPI   C2A 6408  16.869   4.335   8.550 -0.1171  0.0215 -0.3906
  401loPI   C3A 6409  17.085   4.167   8.263 -0.2398 -0.3228  0.3183
  401loPI   C4A 6410  17.374   4.123   7.953  0.2796 -0.2350 -0.1130
  401loPI   C5A 6411  17.639   4.189   7.634  0.1660  0.0431  0.1865
  401loPI   C6A 6412  18.022   4.459   7.667  0.1243 -0.0580  0.0422
  401loPI   C1B 6413  16.356   4.486   8.712 -0.3419  0.2031 -0.0746
  401loPI   C2B 6414  16.426   4.546   8.257  0.1402 -0.1897 -0.0120
  401loPI   C3B 6415  16.374   4.641   7.881 -0.3503 -0.0040  0.1102
  401loPI   C4B 6416  16.264   4.882   7.488 -0.1923  0.2034  0.1823
  402loPI    C1 6417   2.314  14.886  10.086  0.0866 -0.0888 -0.0056
  402loPI    C2 6418   1.996  14.998  10.300  0.0239 -0.0106 -0.1381
  402loPI    C3 6419   2.213  14.682  10.415 -0.1098 -0.0731 -0.0550
  402loPI   PO4 6420   2.160  14.926   9.791  0.1336  0.1800 -0.2357
  402loPI   GL1 6421   2.239  15.044   9.438 -0.1145 -0.1811 -0.0763
  402loPI   GL2 6422   2.328  14.647   9.371  0.1104  0.0369  0.3199
  402loPI   C1A 6423   2.091  15.108   9.099 -0.0590  0.1362  0.0225
  402loPI   C2A 6424   1.944  14.936   8.697  0.1495 -0.2304 -0.0560
  402loPI   C3A 6425   1.840  15.177   8.383  0.2222 -0.1254  0.2588
  402loPI   C4A 6426   1.747  15.463   8.013  0.1484 -0.1773  0.1232
  402loPI   C5A 6427   1.546  15.429   7.560  0.3309 -0.1682 -0.3660
  402loPI   C6A 6428   1.152  15.342   7.473  0.1664 -0.0675  0.2074
  402loPI   C1B 6429   1.995  14.506   9.061  0.2567  0.0952  0.0819
  402loPI   C2B 6430   1.849  14.487   8.702 -0.2499 -0.1490 -0.1043
  402loPI   C3B 6431   1.756  14.681   8.307 -0.2561  0.1852 -0.0301
  402loPI   C4B 6432   1.729  14.905   7.838  0.1354 -0.2443  0.0672
  403loPI    C1 6433   8.843   5.033  10.054  0.1043  0.0947  0.2075
  403loPI    C2 6434   9.040   4.742  10.246  0.1133  0.0047  0.0629
  403loPI    C3 6435   9.090   5.124  10.356  0.1373 -0.0439  0.2229
  403loPI   PO4 6436   8.884   5.031   9.796 -0.1523  0.1754  0.3766
  403loPI   GL1 6437   8.907   4.790   9.341 -0.1263 -0.0711 -0.1546
  403loPI   GL2 6438   8.843   4.615   9.086 -0.0381 -0.3943  0.2517
  403loPI   C1A 6439   8.528   5.163   9.217  0.0236 -0.0345 -0.0084
  403loPI   C2A 6440   8.485   5.427   8.920  0.0438  0.2346  0.0346
  403loPI   C3A 6441   8.816   5.607   8.521 -0.1553  0.1811 -0.1126
  403loPI   C4A 6442   8.956   5.453   8.066 -0.0428 -0.1716  0.0185
  403loPI   C5A 6443   9.203   5.403   7.753 -0.2959 -0.1187  0.0253
  403loPI   C6A 6444   9.118   5.479   7.354 -0.1118 -0.0395  0.0572
  403loPI   C1B 6445   8.936   4.735   8.611 -0.1958  0.1122  0.0373
  403loPI   C2B 6446   9.152   4.544   8.169  0.1310 -0.1352  0.0395
  403loPI   C3B 6447   9.408   4.582   7.842 -0.2781  0.1517  0.0827
  403loPI   C4B 6448   9.827   4.757   7.859 -0.1893  0.2553  0.1585
  404loPI    C1 6449   6.806   9.681  10.162  0.0788  0.0960 -0.1632
  404loPI    C2 6450   7.056   9.969  10.282  0.0484  0.0569 -0.0040
  404loPI    C3 6451   7.009   9.640  10.504 -0.2550  0.1288  0.0437
  404loPI   PO4 6452   6.609   9.822  10.111 -0.1928 -0.0481 -0.0058
  404loPI   GL1 6453   6.514   9.750   9.685 -0.1178  0.1099  0.1829
  404loPI   GL2 6454   6.833   9.991   9.652  0.0484 -0.0904  0.1193
  404loPI   C1A 6455   6.725   9.503   9.296 -0.1506  0.1291 -0.3884
  404loPI   C2A 6456   6.789   9.572   8.895  0.2011  0.0361  0.2408
  404loPI   C3A 6457   6.651   9.751   8.511  0.0357 -0.0195 -0.0669
  404loPI   C4A 6458   6.243   9.787   8.320  0.1495  0.1504  0.0223
  404loPI   C5A 6459   5.796   9.974   8.211 -0.0066  0.0249  0.0448
  404loPI   C6A 6460   5.530   9.985   7.967  0.1208 -0.1604  0.1058
  404loPI   C1B 6461   7.081   9.819   9.297 -0.0846 -0.1336 -0.2872
  404loPI   C2B 6462   7.269   9.937   8.926  0.0390 -0.4847 -0.1593
  404loPI   C3B 6463   7.188   9.766   8.545 -0.0168 -0.0238 -0.0143
  404loPI   C4B 6464   7.234   9.928   8.153  0.2578  0.1074  0.3960
  405loPI    C1 6465  12.743   5.523  10.770  0.0289 -0.0442  0.0425
  405loPI    C2 6466  12.671   5.134  10.831 -0.3220  0.0399  0.1910
  405loPI    C3 6467  12.906   5.337  11.084  0.1758 -0.1568 -0.0990
  405loPI   PO4 6468  12.879   5.419  10.414 -0.0830  0.4666 -0.0820
  405loPI   GL1 6469  12.676   5.421   9.904 -0.1699 -0.2158  0.0445
  405loPI   GL2 6470  13.044   5.297   9.902  0.7662  0.1192  0.0264
  405loPI   C1A 6471  12.606   5.438   9.556 -0.0049 -0.1313  0.4015
  405loPI   C2A 6472  12.732   5.659   9.160  0.1665 -0.0599  0.5869
  405loPI   C3A 6473  12.675   6.075   8.830 -0.0876 -0.0414  0.3040
  405loPI   C4A 6474  12.559   6.255   8.452  0.1253  0.0845  0.0311
  405loPI   C5A 6475  12.773   6.481   8.151  0.1590  0.0550 -0.1583
  405loPI   C6A 6476  12.782   6.485   7.728  0.0434 -0.0077  0.1631
  405loPI   C1B 6477  13.138   5.274   9.479  0.6292 -0.0669  0.3503
  405loPI   C2B 6478  13.160   5.378   9.095 -0.1635  0.0766  0.0263
  405loPI   C3B 6479  13.321   5.226   8.614  0.1760  0.0960  0.0357
  405loPI   C4B 6480  13.717   5.350   8.529 -0.2932  0.3345  0.1000
  406loPI    C1 6481  13.603  13.842  10.435  0.0010  0.0228 -0.0437
  406loPI    C2 6482  13.916  13.649  10.277  0.0630  0.0764  0.0127
  406loPI    C3 6483  13.571  13.455  10.338  0.1738 -0.0594  0.2169
  406loPI   PO4 6484  13.715  14.084  10.548 -0.1737  0.4415 -0.1459
  406loPI   GL1 6485  13.822  14.252  10.196 -0.1808 -0.1273  0.0395
  406loPI   GL2 6486  14.226  14.090  10.273  0.3067 -0.0308 -0.2673
  406loPI   C1A 6487  13.612  14.238   9.829  0.5383 -0.0923 -0.1040
  406loPI   C2A 6488  13.505  14.041   9.492  0.1872  0.1267  0.2649
  406loPI   C3A 6489  13.506  13.789   9.237  0.2044  0.1506  0.1440
  406loPI   C4A 6490  13.467  13.554   8.929 -0.0750  0.1602  0.0284
  406loPI   C5A 6491  13.636  13.673   8.536  0.1130  0.0531  0.0591
  406loPI   C6A 6492  13.694  14.085   8.419 -0.1920 -0.2179  0.2057
  406loPI   C1B 6493  14.145  13.915   9.924 -0.1956  0.1060 -0.0610
  406loPI   C2B 6494  14.035  13.895   9.554  0.2640 -0.0426  0.0616
  406loPI   C3B 6495  14.015  13.848   9.127  0.0329 -0.0256  0.2394
  406loPI   C4B 6496  14.071  13.839   8.641 -0.0756  0.1317  0.1572
  407loPI    C1 6497  15.496   0.678  10.279 -0.0402 -0.0558 -0.0681
  407loPI    C2 6498  15.527   0.849  10.640 -0.3696  0.1238 -0.1211
  407loPI    C3 6499  15.168   0.741  10.499 -0.2360 -0.0091 -0.3673
  407loPI   PO4 6500  15.737   0.773  10.215 -0.0416 -0.0392 -0.0202
  407loPI   GL1 6501  15.982   0.643   9.812 -0.0918  0.4366  0.5055
  407loPI   GL2 6502  16.201   0.413   9.944  0.2071 -0.3260 -0.0339
  407loPI   C1A 6503  16.078   0.425   9.444  0.1058  0.0206  0.0098
  407loPI   C2A 6504  16.071   0.109   9.222 -0.1767 -0.0976  0.2754
  407loPI   C3A 6505  16.176  -0.085   8.794  0.0897 -0.1544 -0.2779
  407loPI   C4A 6506  16.201  -0.194   8.336  0.2907 -0.0685  0.2797
  407loPI   C5A 6507  16.570  -0.230   8.134  0.0430  0.1200  0.0238
  407loPI   C6A 6508  16.790  -0.319   7.754  0.3854  0.0205  0.0528
  407loPI   C1B 6509  16.428   0.148   9.666  0.2585  0.0123  0.1688
  407loPI   C2B 6510  16.580   0.056   9.263 -0.0773  0.4772  0.2098
  407loPI   C3B 6511  16.826  -0.028   9.019  0.0205 -0.0631 -0.2077
  407loPI   C4B 6512  17.038  -0.324   9.025  0.0353 -0.0009  0.1308
  408loPI    C1 6513   3.894   1.687   9.982 -0.1517  0.0298 -0.0643
  408loPI    C2 6514   3.770   2.016  10.174  0.0616 -0.0229  0.1685
  408loPI    C3 6515   3.676   1.654  10.317  0.2809 -0.0625  0.2157
  408loPI   PO4 6516   4.045   1.790   9.836  0.1292 -0.0431 -0.0389
  408loPI   GL1 6517   4.211   2.153   9.471 -0.1354  0.0149  0.4302
  408loPI   GL2 6518   4.484   2.053   9.237  0.3225  0.1162 -0.1382
  408loPI   C1A 6519   3.770   2.204   9.240 -0.1893  0.0428 -0.1165
  408loPI   C2A 6520   3.775   2.297   8.834  0.0938 -0.2548 -0.0353
  408loPI   C3A 6521   3.724   2.353   8.421  0.0443  0.1073  0.1790
  408loPI   C4A 6522   3.779   2.377   8.000 -0.2170  0.4545  0.1030
  408loPI   C5A 6523   3.810   2.177   7.619  0.4848  0.2315  0.0096
  408loPI   C6A 6524   3.546   1.834   7.474  0.0519 -0.1943 -0.0229
  408loPI   C1B 6525   4.709   2.074   8.871  0.0760  0.0046 -0.1708
  408loPI   C2B 6526   4.657   2.136   8.490  0.2114 -0.1092  0.0404
  408loPI   C3B 6527   4.733   2.234   7.958  0.2887 -0.0581  0.1961
  408loPI   C4B 6528   4.648   2.369   7.509 -0.1587 -0.1087 -0.1264
  409loPI    C1 6529   7.684  17.307   9.960  0.1196 -0.3264  0.0357
  409loPI    C2 6530   7.678  17.455  10.331  0.1211  0.1325 -0.1403
  409loPI    C3 6531   7.772  17.071  10.270 -0.1381 -0.0180  0.3519
  409loPI   PO4 6532   7.705  17.593   9.860 -0.1485  0.1699 -0.1431
  409loPI   GL1 6533   7.808  17.598   9.377 -0.3061  0.5693  0.3383
  409loPI   GL2 6534   7.912  17.349   9.439  0.1377  0.1242  0.2940
  409loPI   C1A 6535   7.463  17.518   9.116  0.0637 -0.1030 -0.2364
  409loPI   C2A 6536   7.198  17.621   8.703  0.0890 -0.1826 -0.0773
  409loPI   C3A 6537   6.833  17.529   8.605 -0.1720 -0.2895 -0.0720
  409loPI   C4A 6538   6.748  17.434   8.248  0.0066 -0.2003  0.0472
  409loPI   C5A 6539   6.611  17.356   7.873  0.3532  0.0901  0.0367
  409loPI   C6A 6540   6.448  17.304   7.506  0.0958  0.0876 -0.0035
  409loPI   C1B 6541   7.944  17.412   8.952 -0.2608 -0.2883  0.0240
  409loPI   C2B 6542   7.742  17.618   8.633  0.2277  0.1048  0.1997
  409loPI   C3B 6543   7.852  17.774   8.211  0.2068  0.0712 -0.3956
  409loPI   C4B 6544   7.804  17.839   7.805  0.0043  0.0664  0.0773
  410loPI    C1 6545   3.775   9.915   9.990  0.1144 -0.0812 -0.1191
  410loPI    C2 6546   3.593   9.572  10.089 -0.0777  0.0240 -0.1037
  410loPI    C3 6547   3.598   9.878  10.347  0.1538  0.0100 -0.0899
  410loPI   PO4 6548   3.729   9.929   9.707  0.3403 -0.0216  0.0733
  410loPI   GL1 6549   3.997   9.879   9.262  0.2864 -0.1959 -0.1231
  410loPI   GL2 6550   3.670   9.738   9.265 -0.0702  0.0095 -0.2629
  410loPI   C1A 6551   4.002   9.616   8.914 -0.3607  0.0040  0.0194
  410loPI   C2A 6552   4.155   9.656   8.488  0.2800 -0.3792 -0.2092
  410loPI   C3A 6553   4.345   9.447   8.117 -0.1008  0.0190 -0.1079
  410loPI   C4A 6554   4.699   9.295   7.808 -0.0011  0.3442  0.0488
  410loPI   C5A 6555   4.902   9.049   7.669 -0.1356  0.0508  0.0114
  410loPI   C6A 6556   4.932   8.923   7.286  0.0310  0.1650  0.2999
  410loPI   C1B 6557   3.443   9.763   8.888 -0.1569 -0.1280 -0.0282
  410loPI   C2B 6558   3.545  10.038   8.542 -0.0696 -0.2698 -0.3458
  410loPI   C3B 6559   3.712   9.941   8.165  0.2100 -0.0788  0.1735
  410loPI   C4B 6560   3.912  10.058   7.727 -0.3244  0.0059  0.1581
  411loPI    C1 6561   7.918  13.901   9.972  0.1683  0.0051  0.0724
  411loPI    C2 6562   8.133  13.824  10.300  0.0308 -0.1853  0.1198
  411loPI    C3 6563   8.079  14.202  10.180  0.2362 -0.1254  0.2102
  411loPI   PO4 6564   8.048  13.734   9.783  0.3350 -0.0817  0.0794
  411loPI   GL1 6565   7.905  13.541   9.471  0.2933 -0.5551 -0.0765
  411loPI   GL2 6566   7.600  13.566   9.306  0.4027  0.2876  0.0191
  411loPI   C1A 6567   8.009  13.553   9.023 -0.0765  0.0460 -0.2107
  411loPI   C2A 6568   8.171  13.417   8.511 -0.3112  0.0121 -0.0366
  411loPI   C3A 6569   8.141  13.143   8.184 -0.1227 -0.0528 -0.1394
  411loPI   C4A 6570   8.449  12.963   7.858 -0.1035  0.0668 -0.0536
  411loPI   C5A 6571   8.394  12.688   7.547  0.1327  0.1629  0.2342
  411loPI   C6A 6572   8.168  12.802   7.212 -0.1207  0.0081 -0.2792
  411loPI   C1B 6573   7.441  13.624   8.899 -0.2028 -0.2515 -0.1847
  411loPI   C2B 6574   7.334  13.726   8.474  0.0106  0.0259 -0.1315
  411loPI   C3B 6575   7.324  13.713   8.058 -0.1322  0.0757 -0.0722
  411loPI   C4B 6576   6.940  13.677   7.727  0.2711 -0.1420 -0.1045
  412loPI    C1 6577   9.918   1.227   9.905 -0.3098 -0.3258 -0.0908
  412loPI    C2 6578  10.271   1.120  10.061 -0.1663 -0.0004 -0.1849
  412loPI    C3 6579   9.960   1.194  10.302 -0.0821  0.0198 -0.0817
  412loPI   PO4 6580   9.935   1.031   9.735  0.0579 -0.2861  0.0578
  412loPI   GL1 6581   9.914   0.994   9.278 -0.1410  0.2574 -0.0205
  412loPI   GL2 6582   9.714   1.187   9.243  0.0130  0.2764  0.1395
  412loPI   C1A 6583  10.116   1.034   8.945 -0.1305 -0.1586  0.3810
  412loPI   C2A 6584  10.110   1.103   8.511 -0.0663 -0.0639 -0.0894
  412loPI   C3A 6585  10.321   1.048   8.066 -0.3454  0.2422  0.1292
  412loPI   C4A 6586  10.361   0.835   7.774  0.1700  0.0212  0.0392
  412loPI   C5A 6587  10.622   0.764   7.458  0.2476 -0.2016 -0.1847
  412loPI   C6A 6588  10.951   0.843   7.279  0.1409  0.2098 -0.4094
  412loPI   C1B 6589   9.714   1.394   8.755  0.3291 -0.0664 -0.3303
  412loPI   C2B 6590   9.597   1.246   8.341 -0.0729  0.2260 -0.0253
  412loPI   C3B 6591   9.357   1.108   8.001 -0.2559  0.1387  0.1053
  412loPI   C4B 6592   8.987   0.896   7.807 -0.0744  0.1227  0.1203
  413loPI    C1 6593   9.740   8.504  10.530  0.0102 -0.1126  0.0748
  413loPI    C2 6594   9.707   8.224  10.813 -0.1948  0.0048  0.1692
  413loPI    C3 6595   9.830   8.593  10.909 -0.1976  0.0255  0.0937
  413loPI   PO4 6596   9.883   8.506  10.399  0.0897  0.2175 -0.2326
  413loPI   GL1 6597   9.843   8.392   9.994 -0.1212  0.0638 -0.1172
  413loPI   GL2 6598  10.143   8.387   9.908 -0.1868  0.2368 -0.0251
  413loPI   C1A 6599   9.619   8.463   9.660 -0.1854 -0.0310 -0.0076
  413loPI   C2A 6600   9.735   8.832   9.367  0.1906  0.1524 -0.0140
  413loPI   C3A 6601  10.054   8.890   9.032  0.2429  0.2617 -0.1749
  413loPI   C4A 6602  10.047   8.988   8.516 -0.1049 -0.1207  0.2456
  413loPI   C5A 6603  10.034   8.889   8.089  0.0721  0.1259 -0.0030
  413loPI   C6A 6604   9.889   8.552   7.871  0.3342  0.2896 -0.3873
  413loPI   C1B 6605  10.120   8.400   9.448 -0.0872 -0.7358 -0.0787
  413loPI   C2B 6606   9.799   8.412   9.133 -0.3191  0.0238  0.2162
  413loPI   C3B 6607   9.693   8.656   8.733  0.2314  0.0374 -0.1006
  413loPI   C4B 6608   9.775   8.550   8.406  0.1178  0.0489  0.0315
  414loPI    C1 6609  13.196  13.582  10.701  0.2942  0.0266 -0.1560
  414loPI    C2 6610  13.425  13.860  10.876 -0.0363  0.2183 -0.0180
  414loPI    C3 6611  13.170  13.643  11.095  0.1083 -0.0914 -0.1488
  414loPI   PO4 6612  13.067  13.720  10.476  0.0217 -0.1771 -0.1592
  414loPI   GL1 6613  13.207  13.728  10.051 -0.0354  0.1422  0.2588
  414loPI   GL2 6614  13.149  13.427  10.001 -0.0159  0.0209 -0.0985
  414loPI   C1A 6615  13.657  13.620   9.843  0.0878 -0.3357 -0.0705
  414loPI   C2A 6616  13.845  13.412   9.471 -0.2301  0.0292 -0.2348
  414loPI   C3A 6617  13.914  13.284   9.070 -0.1716 -0.3625  0.1653
  414loPI   C4A 6618  13.913  13.318   8.691 -0.0013  0.1180  0.0875
  414loPI   C5A 6619  14.102  13.387   8.243  0.0455 -0.1832 -0.2030
  414loPI   C6A 6620  14.419  13.653   8.137 -0.1856  0.1745  0.2964
  414loPI   C1B 6621  13.125  13.565   9.572  0.2041  0.0873  0.0456
  414loPI   C2B 6622  13.016  13.556   9.164 -0.0133 -0.1794  0.2168
  414loPI   C3B 6623  13.028  13.509   8.686  0.1112 -0.1284  0.1742
  414loPI   C4B 6624  13.187  13.859   8.338  0.1880  0.0256 -0.0905
  415loPI    C1 6625  13.016  11.746  10.581 -0.4355 -0.2177  0.2566
  415loPI    C2 6626  12.809  11.746  10.923 -0.2195  0.0215  0.3910
  415loPI    C3 6627  13.133  11.978  10.885  0.0713 -0.3997  0.2115
  415loPI   PO4 6628  12.828  11.627  10.380 -0.1258 -0.0792 -0.0408
  415loPI   GL1 6629  12.763  11.543   9.982  0.1290  0.0435  0.3000
  415loPI   GL2 6630  12.637  11.268   9.823 -0.1661  0.3031 -0.1857
  415loPI   C1A 6631  12.702  11.679   9.556 -0.2944 -0.3711  0.2390
  415loPI   C2A 6632  12.781  11.683   9.103  0.3662 -0.2641 -0.0737
  415loPI   C3A 6633  12.866  11.739   8.718 -0.2017 -0.3310 -0.2213
  415loPI   C4A 6634  12.820  11.913   8.320  0.1464 -0.0645 -0.2268
  415loPI   C5A 6635  12.588  12.071   8.006  0.0406  0.3250 -0.3742
  415loPI   C6A 6636  12.166  12.156   8.116  0.1897 -0.2046  0.0591
  415loPI   C1B 6637  12.757  11.103   9.481 -0.1064 -0.0662 -0.0994
  415loPI   C2B 6638  12.716  11.178   9.087 -0.0964 -0.1245 -0.0998
  415loPI   C3B 6639  12.404  11.392   8.802  0.0571  0.1217  0.1422
  415loPI   C4B 6640  12.192  11.651   9.032  0.1087 -0.2384  0.0772
  416loPI    C1 6641   9.760  15.529  10.314 -0.2469 -0.0761 -0.0346
  416loPI    C2 6642  10.049  15.779  10.434 -0.2583 -0.0509 -0.0593
  416loPI    C3 6643   9.735  15.708  10.671 -0.1359 -0.2308  0.0519
  416loPI   PO4 6644   9.877  15.256  10.189  0.0189  0.0278  0.1376
  416loPI   GL1 6645   9.957  14.967   9.870  0.2119  0.1026  0.0892
  416loPI   GL2 6646  10.186  15.136   9.699 -0.3207 -0.2944  0.0521
  416loPI   C1A 6647   9.725  14.996   9.429 -0.0316  0.0422  0.0289
  416loPI   C2A 6648   9.737  15.104   9.017 -0.2167  0.2365  0.0225
  416loPI   C3A 6649   9.886  15.133   8.460  0.1725  0.1786  0.4235
  416loPI   C4A 6650   9.874  15.078   7.988 -0.2702 -0.1975  0.0703
  416loPI   C5A 6651   9.718  14.754   7.657  0.0875  0.0520  0.1476
  416loPI   C6A 6652   9.757  14.437   7.551 -0.1023  0.0836 -0.2094
  416loPI   C1B 6653  10.152  15.327   9.288 -0.1578  0.1315 -0.0069
  416loPI   C2B 6654   9.967  15.650   9.159  0.0617 -0.0027  0.0259
  416loPI   C3B 6655   9.844  15.693   8.761 -0.1343 -0.1078 -0.0400
  416loPI   C4B 6656   9.945  15.701   8.303 -0.2969 -0.1896  0.1300
  417loPI    C1 6657  17.991   5.228  10.289  0.1645 -0.0681  0.0533
  417loPI    C2 6658  17.810   5.574  10.203 -0.1944 -0.2241  0.1634
  417loPI    C3 6659  18.066   5.553  10.510 -0.1721 -0.0578  0.1569
  417loPI   PO4 6660  18.082   5.129  10.086  0.1224  0.1873 -0.0379
  417loPI   GL1 6661  18.169   5.165   9.673 -0.0839  0.1387  0.2423
  417loPI   GL2 6662  18.323   5.463   9.492 -0.3428  0.3573  0.1056
  417loPI   C1A 6663  18.033   5.090   9.290  0.1602 -0.0900 -0.3718
  417loPI   C2A 6664  18.152   5.066   8.844  0.1888 -0.2397  0.2628
  417loPI   C3A 6665  18.247   4.843   8.411 -0.5396  0.0232 -0.0305
  417loPI   C4A 6666  18.126   4.876   8.068  0.1421 -0.0179 -0.1505
  417loPI   C5A 6667  17.977   4.964   7.733  0.0442  0.1402  0.0936
  417loPI   C6A 6668  17.988   5.311   7.518  0.3953 -0.0082  0.3189
  417loPI   C1B 6669  18.596   5.229   9.301  0.1652  0.3007 -0.2246
  417loPI   C2B 6670  18.848   5.078   9.053 -0.1479 -0.3489  0.0440
  417loPI   C3B 6671  19.169   5.185   8.718  0.0217 -0.0039  0.1962
  417loPI   C4B 6672  19.533   4.840   8.590 -0.3943  0.0028  0.0483
  418loPI    C1 6673  11.085   5.190  10.531 -0.0245  0.0795 -0.0638
  418loPI    C2 6674  11.387   5.024  10.733 -0.0033 -0.2080 -0.3251
  418loPI    C3 6675  11.015   4.887  10.782 -0.0170 -0.1917 -0.3833
  418loPI   PO4 6676  11.129   5.209  10.283  0.0267  0.1456  0.1277
  418loPI   GL1 6677  11.084   5.414   9.797  0.0602  0.2040  0.2010
  418loPI   GL2 6678  10.966   5.218   9.524 -0.1170  0.1723  0.0711
  418loPI   C1A 6679  11.016   5.699   9.609 -0.0088  0.0393  0.4434
  418loPI   C2A 6680  11.173   5.742   9.297  0.0150  0.1931 -0.1899
  418loPI   C3A 6681  11.193   5.655   8.872  0.1322 -0.0031 -0.2570
  418loPI   C4A 6682  11.420   5.554   8.490 -0.0180  0.4236 -0.1571
  418loPI   C5A 6683  11.356   5.809   8.108 -0.0840 -0.0445 -0.0266
  418loPI   C6A 6684  11.096   6.119   7.910 -0.2445  0.0566 -0.0605
  418loPI   C1B 6685  11.021   5.260   9.108  0.1898  0.1451  0.3932
  418loPI   C2B 6686  11.201   5.127   8.783 -0.0631  0.1871  0.0564
  418loPI   C3B 6687  11.259   4.722   8.606  0.1266  0.2619 -0.0182
  418loPI   C4B 6688  11.261   4.466   9.006 -0.0595 -0.1077  0.2120
  419loPI    C1 6689   6.366   5.944   9.884  0.1709 -0.0472 -0.0280
  419loPI    C2 6690   6.419   5.935  10.280  0.1325 -0.0049 -0.0218
  419loPI    C3 6691   6.055   5.875  10.126  0.1236  0.1049 -0.0443
  419loPI   PO4 6692   6.490   6.242   9.832 -0.0817 -0.3063 -0.2340
  419loPI   GL1 6693   6.707   6.405   9.534 -0.0849  0.0563 -0.0359
  419loPI   GL2 6694   6.957   6.570   9.510  0.0442 -0.0133  0.0498
  419loPI   C1A 6695   6.843   6.049   9.234 -0.0319  0.0123  0.0158
  419loPI   C2A 6696   7.172   5.834   9.050  0.0213 -0.3453  0.1399
  419loPI   C3A 6697   7.254   5.713   8.653 -0.0641 -0.1303  0.0193
  419loPI   C4A 6698   7.336   5.668   8.234  0.1667 -0.5657  0.1070
  419loPI   C5A 6699   6.972   5.759   8.021 -0.0605  0.2919  0.1081
  419loPI   C6A 6700   6.659   5.963   7.661  0.2903  0.0396 -0.0062
  419loPI   C1B 6701   6.712   6.839   9.201 -0.1762  0.0662 -0.0374
  419loPI   C2B 6702   6.641   7.159   8.862 -0.0138 -0.2239  0.0125
  419loPI   C3B 6703   6.593   7.206   8.429  0.2155 -0.1799 -0.0838
  419loPI   C4B 6704   6.517   7.213   8.022  0.3246  0.2205 -0.1512
  420loPI    C1 6705  14.182  12.344  10.788  0.2355  0.0772  0.0241
  420loPI    C2 6706  14.515  12.239  10.982  0.0882 -0.1136  0.1777
  420loPI    C3 6707  14.187  12.339  11.187  0.0429  0.0536  0.0273
  420loPI   PO4 6708  14.181  12.177  10.611  0.0721  0.2124  0.4952
  420loPI   GL1 6709  14.144  12.256  10.151  0.0255 -0.0749  0.1174
  420loPI   GL2 6710  14.346  12.037  10.085  0.2323 -0.0155 -0.0523
  420loPI   C1A 6711  14.193  12.428   9.788  0.2470  0.2772 -0.1196
  420loPI   C2A 6712  14.288  12.457   9.364  0.1087 -0.1502  0.0526
  420loPI   C3A 6713  14.135  12.404   9.021 -0.1587 -0.1442  0.1554
  420loPI   C4A 6714  14.415  12.369   8.622  0.0990  0.0475  0.0111
  420loPI   C5A 6715  14.754  12.443   8.351 -0.0137 -0.0356 -0.1435
  420loPI   C6A 6716  15.270  12.469   8.412  0.0877 -0.3109 -0.2331
  420loPI   C1B 6717  14.134  11.906   9.589  0.2873 -0.1096 -0.5066
  420loPI   C2B 6718  14.120  11.927   9.247  0.0434  0.3750  0.1525
  420loPI   C3B 6719  14.160  11.902   8.788  0.2109  0.0448  0.0494
  420loPI   C4B 6720  14.199  12.007   8.378  0.0142  0.0124 -0.1137
  421loPI    C1 6721   3.765  18.726  10.061 -0.0437  0.0501 -0.0402
  421loPI    C2 6722   3.380  18.830  10.099 -0.0447  0.0705 -0.1050
  421loPI    C3 6723   3.548  18.581  10.364  0.0101  0.3894  0.1663
  421loPI   PO4 6724   3.829  18.615   9.864  0.1145 -0.0019  0.2393
  421loPI   GL1 6725   3.495  18.678   9.512  0.4298 -0.1515  0.1902
  421loPI   GL2 6726   3.565  18.395   9.441 -0.3719  0.0362 -0.0017
  421loPI   C1A 6727   3.819  18.752   9.214  0.3201 -0.1317  0.3394
  421loPI   C2A 6728   3.922  18.673   8.769 -0.2466  0.0273  0.0635
  421loPI   C3A 6729   3.761  18.927   8.393  0.0570 -0.1371  0.2862
  421loPI   C4A 6730   3.618  18.997   7.926 -0.0721 -0.0909 -0.1081
  421loPI   C5A 6731   3.699  19.023   7.532  0.0133 -0.0235 -0.3121
  421loPI   C6A 6732   3.345  18.808   7.245  0.2070  0.1904 -0.1989
  421loPI   C1B 6733   3.321  18.616   9.055  0.0111  0.0965  0.1866
  421loPI   C2B 6734   3.017  18.764   8.743 -0.1419  0.1011  0.0710
  421loPI   C3B 6735   2.719  19.145   8.590  0.0869 -0.3683 -0.0252
  421loPI   C4B 6736   2.623  19.515   8.446 -0.1608  0.0295  0.0586
  422loPI    C1 6737   8.831   9.679  10.059 -0.2059 -0.1049 -0.1460
  422loPI    C2 6738   9.136   9.796   9.829 -0.1579  0.0165 -0.0215
  422loPI    C3 6739   9.207   9.619  10.180 -0.2311 -0.0848 -0.0575
  422loPI   PO4 6740   8.691   9.483   9.877  0.4360 -0.0627  0.1354
  422loPI   GL1 6741   8.720   9.618   9.492 -0.0792 -0.2453 -0.2153
  422loPI   GL2 6742   8.476   9.818   9.400 -0.3354  0.0287  0.1362
  422loPI   C1A 6743   9.130   9.567   9.348  0.0007  0.0110 -0.1158
  422loPI   C2A 6744   9.386   9.218   9.298 -0.1068 -0.4164  0.2991
  422loPI   C3A 6745   9.592   9.126   8.892  0.1598 -0.1746  0.0681
  422loPI   C4A 6746   9.499   9.101   8.422 -0.1695 -0.2017  0.1086
  422loPI   C5A 6747   9.452   8.975   7.897  0.0798 -0.2018  0.3438
  422loPI   C6A 6748   9.420   8.802   7.498  0.4424 -0.1659  0.0636
  422loPI   C1B 6749   8.590   9.576   9.049 -0.2223 -0.0050 -0.1388
  422loPI   C2B 6750   8.607   9.210   8.733 -0.3379  0.1491  0.1317
  422loPI   C3B 6751   8.328   9.011   8.498  0.0808  0.1697 -0.2283
  422loPI   C4B 6752   8.308   9.102   8.061 -0.1487 -0.1717 -0.1068
  423loPI    C1 6753   9.890   7.951  10.455  0.0990  0.2384 -0.0194
  423loPI    C2 6754   9.586   7.749  10.620  0.1000  0.0170 -0.2813
  423loPI    C3 6755   9.960   7.612  10.655  0.1557  0.2148 -0.0788
  423loPI   PO4 6756   9.861   7.948  10.213 -0.1595  0.0300 -0.1642
  423loPI   GL1 6757  10.095   7.885   9.831  0.1496  0.0812  0.0229
  423loPI   GL2 6758   9.996   7.600   9.837  0.0201 -0.0117 -0.0819
  423loPI   C1A 6759  10.255   7.861   9.371  0.1580 -0.1060  0.1934
  423loPI   C2A 6760  10.499   7.718   8.990  0.0243 -0.1412  0.1306
  423loPI   C3A 6761  10.503   7.932   8.635  0.0994 -0.2212  0.1662
  423loPI   C4A 6762  10.519   7.888   8.263  0.0496 -0.1534 -0.0457
  423loPI   C5A 6763  10.151   7.549   7.993 -0.3537 -0.1752  0.1938
  423loPI   C6A 6764   9.716   7.578   7.977  0.7985  0.1144 -0.2338
  423loPI   C1B 6765   9.814   7.412   9.389  0.5077  0.1572 -0.0050
  423loPI   C2B 6766   9.551   7.239   9.013  0.1468  0.1085 -0.0833
  423loPI   C3B 6767   9.597   7.197   8.593 -0.2949  0.0385 -0.1091
  423loPI   C4B 6768   9.522   7.104   8.101  0.0482 -0.0457  0.5317
  424loPI    C1 6769  15.148  15.954  10.311  0.1841 -0.2115 -0.0626
  424loPI    C2 6770  15.319  16.048  10.660  0.1398 -0.1160 -0.0664
  424loPI    C3 6771  15.284  15.665  10.552  0.0232 -0.1537  0.1000
  424loPI   PO4 6772  15.351  16.063  10.119 -0.2819  0.2686 -0.1840
  424loPI   GL1 6773  15.289  16.141   9.723 -0.1783 -0.4803 -0.0133
  424loPI   GL2 6774  14.984  16.311   9.661 -0.3534  0.1493  0.0194
  424loPI   C1A 6775  15.614  16.102   9.364  0.2314  0.1743  0.1821
  424loPI   C2A 6776  15.706  16.026   8.919 -0.0448 -0.0065 -0.0520
  424loPI   C3A 6777  15.884  16.105   8.507  0.4250 -0.0021 -0.1229
  424loPI   C4A 6778  15.871  16.405   8.153 -0.1800 -0.0658 -0.1420
  424loPI   C5A 6779  16.059  16.588   7.888  0.3059 -0.2232  0.1281
  424loPI   C6A 6780  16.241  16.662   7.488 -0.1185  0.0227  0.1515
  424loPI   C1B 6781  15.118  16.381   9.234 -0.1512 -0.0009  0.3086
  424loPI   C2B 6782  15.110  16.612   8.878  0.4110 -0.0370  0.5379
  424loPI   C3B 6783  15.073  16.678   8.417 -0.0676  0.2791  0.0627
  424loPI   C4B 6784  15.040  16.816   8.012 -0.1040 -0.1095 -0.3339
  425loPI    C1 6785  11.060  12.350  10.342 -0.0561 -0.0394 -0.1423
  425loPI    C2 6786  10.730  12.279  10.557 -0.0240 -0.0586 -0.0992
  425loPI    C3 6787  11.005  12.536  10.692 -0.1124  0.1062 -0.2277
  425loPI   PO4 6788  11.008  12.454  10.100 -0.1571 -0.0810  0.1468
  425loPI   GL1 6789  10.865  12.824   9.934 -0.0887 -0.0784 -0.0844
  425loPI   GL2 6790  10.658  12.985   9.753 -0.0496  0.0966  0.1219
  425loPI   C1A 6791  11.164  12.817   9.460  0.0881 -0.2182 -0.2525
  425loPI   C2A 6792  10.924  12.558   9.069 -0.0609 -0.1122  0.1260
  425loPI   C3A 6793  11.015  12.637   8.699 -0.0554 -0.1677 -0.1913
  425loPI   C4A 6794  11.101  12.616   8.220 -0.2291 -0.1928 -0.3604
  425loPI   C5A 6795  10.841  12.726   7.933  0.0018  0.0659 -0.0950
  425loPI   C6A 6796  10.545  12.411   7.774  0.0797  0.0267 -0.0829
  425loPI   C1B 6797  10.638  12.971   9.279  0.2122  0.3844  0.4698
  425loPI   C2B 6798  10.791  13.103   8.898 -0.0497 -0.3180 -0.0192
  425loPI   C3B 6799  11.053  13.126   8.526 -0.0163  0.1451  0.0281
  425loPI   C4B 6800  11.148  13.240   8.120 -0.3001 -0.0763  0.0242
  426loPI    C1 6801   6.079   3.356   9.938  0.0356 -0.0914  0.0399
  426loPI    C2 6802   6.229   3.668  10.137 -0.0020  0.0333 -0.1251
  426loPI    C3 6803   5.928   3.457  10.294  0.1909 -0.0776  0.1026
  426loPI   PO4 6804   5.963   3.331   9.652 -0.0817  0.0348 -0.2656
  426loPI   GL1 6805   5.629   3.235   9.429 -0.0950 -0.2452  0.1039
  426loPI   GL2 6806   5.363   3.513   9.486  0.3220  0.1700  0.0050
  426loPI   C1A 6807   5.574   2.993   8.959 -0.0112  0.1052 -0.1921
  426loPI   C2A 6808   5.933   2.986   8.690  0.0193  0.2129  0.0673
  426loPI   C3A 6809   5.936   2.716   8.378 -0.0713  0.0491  0.3175
  426loPI   C4A 6810   6.038   2.706   7.971 -0.1256  0.0122 -0.4371
  426loPI   C5A 6811   6.296   2.776   7.607 -0.0883  0.0240 -0.2598
  426loPI   C6A 6812   6.301   2.639   7.083 -0.0771  0.1359 -0.1655
  426loPI   C1B 6813   5.284   3.411   9.032  0.0478  0.1534 -0.2326
  426loPI   C2B 6814   5.448   3.391   8.618  0.2399 -0.3447  0.3829
  426loPI   C3B 6815   5.450   3.322   8.040  0.3809 -0.0368  0.0297
  426loPI   C4B 6816   5.561   3.386   7.667 -0.2702  0.2942 -0.1266
  427loPI    C1 6817  11.606   8.483  10.563 -0.4399 -0.0005 -0.0771
  427loPI    C2 6818  11.711   8.122  10.427 -0.1806  0.0659 -0.0585
  427loPI    C3 6819  11.465   8.153  10.741 -0.1249 -0.0953  0.0020
  427loPI   PO4 6820  11.559   8.624  10.372 -0.1880  0.0914 -0.0570
  427loPI   GL1 6821  11.623   8.734  10.035 -0.1938 -0.1110 -0.1017
  427loPI   GL2 6822  11.934   8.630  10.037 -0.2405  0.2943 -0.2428
  427loPI   C1A 6823  11.482   8.677   9.600  0.2227 -0.3423  0.1285
  427loPI   C2A 6824  11.585   8.984   9.346  0.1651  0.3173 -0.1547
  427loPI   C3A 6825  11.565   9.178   9.012 -0.0710 -0.0589 -0.1113
  427loPI   C4A 6826  11.375   9.315   8.587  0.1078 -0.0222 -0.1592
  427loPI   C5A 6827  11.518   9.729   8.515  0.1452 -0.2542  0.1182
  427loPI   C6A 6828  11.337  10.151   8.558  0.1288  0.0569  0.0683
  427loPI   C1B 6829  11.980   8.890   9.625  0.0346 -0.1843  0.1853
  427loPI   C2B 6830  12.221   8.831   9.252 -0.0011 -0.0830  0.0259
  427loPI   C3B 6831  12.045   8.994   8.890  0.0580 -0.0181 -0.3050
  427loPI   C4B 6832  11.632   8.923   8.578 -0.0649 -0.0285 -0.1847
  428loPI    C1 6833   2.077  10.521   9.970  0.0051 -0.0671  0.1098
  428loPI    C2 6834   2.452  10.562  10.102 -0.0324 -0.0479  0.2110
  428loPI    C3 6835   2.145  10.617  10.352 -0.1072  0.1097  0.0864
  428loPI   PO4 6836   2.089  10.632   9.814 -0.0985 -0.3169  0.1158
  428loPI   GL1 6837   1.996  10.734   9.447 -0.0628  0.1190  0.0234
  428loPI   GL2 6838   2.094  10.443   9.368 -0.0574 -0.1966  0.1006
  428loPI   C1A 6839   2.005  10.885   9.021 -0.5022  0.0485 -0.1132
  428loPI   C2A 6840   2.135  10.846   8.684 -0.2601 -0.2085 -0.0213
  428loPI   C3A 6841   2.371  10.853   8.286  0.0633 -0.0009 -0.1172
  428loPI   C4A 6842   2.434  10.969   7.862  0.0116 -0.2273 -0.2214
  428loPI   C5A 6843   2.510  10.739   7.517 -0.0537  0.0167  0.2304
  428loPI   C6A 6844   2.651  10.431   7.259  0.0482 -0.5064  0.1633
  428loPI   C1B 6845   2.200  10.450   8.945 -0.1320 -0.0888  0.0229
  428loPI   C2B 6846   2.248  10.397   8.449  0.0410  0.3091 -0.2315
  428loPI   C3B 6847   2.251  10.058   8.108  0.0609  0.0483  0.2365
  428loPI   C4B 6848   1.990   9.948   7.804 -0.1479 -0.1894  0.1054
  429loPI    C1 6849  14.183   8.753  10.947 -0.1883 -0.2140 -0.1302
  429loPI    C2 6850  14.214   8.389  11.110 -0.1962 -0.0812  0.1752
  429loPI    C3 6851  14.294   8.714  11.329 -0.2171  0.1040 -0.0865
  429loPI   PO4 6852  13.995   8.802  10.826 -0.0921 -0.1184  0.2259
  429loPI   GL1 6853  13.985   8.630  10.322 -0.1490 -0.1096  0.0250
  429loPI   GL2 6854  13.907   8.976  10.299  0.0289 -0.1027 -0.0879
  429loPI   C1A 6855  13.862   8.592   9.934 -0.0221  0.1649  0.3717
  429loPI   C2A 6856  13.706   8.357   9.642 -0.3299 -0.0851 -0.2285
  429loPI   C3A 6857  13.836   8.211   9.275 -0.3100  0.3080  0.2158
  429loPI   C4A 6858  13.819   8.265   8.821  0.1107 -0.1698 -0.0739
  429loPI   C5A 6859  13.772   8.241   8.392 -0.2460  0.1934 -0.0825
  429loPI   C6A 6860  13.891   8.285   7.984 -0.1543  0.1322  0.1949
  429loPI   C1B 6861  14.186   8.910   9.836 -0.3713 -0.0549  0.1420
  429loPI   C2B 6862  14.213   8.869   9.349 -0.0676 -0.0548 -0.2528
  429loPI   C3B 6863  14.141   8.664   8.950 -0.2334  0.0065  0.0069
  429loPI   C4B 6864  14.387   8.663   8.581  0.1661  0.0524  0.2653
  430loPI    C1 6865  13.710  11.280  10.563 -0.1687  0.2017  0.3097
  430loPI    C2 6866  13.839  10.904  10.602 -0.0959  0.1924  0.0051
  430loPI    C3 6867  13.957  11.183  10.862 -0.2340 -0.0141  0.2950
  430loPI   PO4 6868  13.725  11.326  10.267 -0.2996 -0.1162 -0.2066
  430loPI   GL1 6869  13.584  11.283   9.858 -0.1509 -0.0594  0.0532
  430loPI   GL2 6870  13.209  11.318   9.791 -0.2337  0.4570  0.1232
  430loPI   C1A 6871  13.730  11.077   9.466  0.0632 -0.2841  0.0040
  430loPI   C2A 6872  13.686  11.110   9.023  0.0525 -0.0313 -0.0858
  430loPI   C3A 6873  13.544  11.199   8.636 -0.0058 -0.0951 -0.0967
  430loPI   C4A 6874  13.565  10.902   8.282  0.1049  0.2456  0.0006
  430loPI   C5A 6875  13.610  10.532   7.995 -0.1584 -0.2249  0.1961
  430loPI   C6A 6876  13.797  10.321   7.699 -0.6275  0.0517  0.2155
  430loPI   C1B 6877  13.228  11.422   9.372  0.2397  0.1249  0.0554
  430loPI   C2B 6878  13.246  11.487   8.930  0.2419 -0.0399  0.4774
  430loPI   C3B 6879  13.345  11.757   8.471  0.0557 -0.0040  0.0260
  430loPI   C4B 6880  13.514  11.460   8.119  0.2611 -0.1533  0.0987
  431loPI    C1 6881   6.979   5.231  10.121  0.0529  0.2147 -0.0228
  431loPI    C2 6882   7.289   5.208  10.373  0.0416  0.0499 -0.0229
  431loPI    C3 6883   6.960   5.411  10.478  0.0434 -0.0039  0.0883
  431loPI   PO4 6884   6.980   5.270   9.880 -0.3337 -0.1784 -0.3789
  431loPI   GL1 6885   7.075   5.179   9.531  0.2182  0.0969 -0.1111
  431loPI   GL2 6886   7.016   4.823   9.595  0.1624 -0.2838  0.1238
  431loPI   C1A 6887   6.851   5.504   9.314  0.1144 -0.1528 -0.3445
  431loPI   C2A 6888   6.737   5.628   8.907 -0.0092  0.1107  0.1182
  431loPI   C3A 6889   6.744   5.747   8.498 -0.3195 -0.1171 -0.0608
  431loPI   C4A 6890   6.516   5.957   8.192 -0.3182  0.2768  0.2140
  431loPI   C5A 6891   6.052   6.122   8.112 -0.1191 -0.0711 -0.1433
  431loPI   C6A 6892   5.629   6.050   7.941 -0.2785  0.1423 -0.0545
  431loPI   C1B 6893   7.145   4.996   9.116 -0.0094 -0.2176 -0.4277
  431loPI   C2B 6894   7.009   5.231   8.734  0.0896  0.0290  0.2151
  431loPI   C3B 6895   7.036   5.237   8.343 -0.3525 -0.0797  0.0441
  431loPI   C4B 6896   7.025   5.157   7.955  0.1443 -0.1171  0.2869
  432loPI    C1 6897  11.794  15.914  10.439  0.1171 -0.1002 -0.1278
  432loPI    C2 6898  11.792  15.520  10.373 -0.1702 -0.1170 -0.0302
  432loPI    C3 6899  11.631  15.667  10.708  0.2029  0.0615  0.0754
  432loPI   PO4 6900  11.879  15.999  10.204 -0.2526 -0.2022 -0.2509
  432loPI   GL1 6901  12.124  15.897   9.910 -0.1175  0.1086 -0.1154
  432loPI   GL2 6902  12.307  15.743   9.999 -0.1783 -0.1153  0.3034
  432loPI   C1A 6903  11.862  15.996   9.543 -0.0306  0.0051  0.1663
  432loPI   C2A 6904  11.966  16.013   9.078 -0.1995  0.0179 -0.1106
  432loPI   C3A 6905  11.977  16.033   8.668 -0.1433 -0.2861  0.1258
  432loPI   C4A 6906  12.098  15.905   8.340  0.2924 -0.2210  0.1295
  432loPI   C5A 6907  12.313  16.132   8.038  0.1922 -0.2152 -0.1269
  432loPI   C6A 6908  12.542  16.464   7.863 -0.2226  0.0064 -0.0330
  432loPI   C1B 6909  12.421  15.926   9.478 -0.1670  0.1074  0.2733
  432loPI   C2B 6910  12.781  15.757   9.208  0.1228  0.1419 -0.2228
  432loPI   C3B 6911  12.956  15.758   8.732  0.1464 -0.0487 -0.2288
  432loPI   C4B 6912  12.851  15.421   8.550 -0.0672 -0.3589  0.1065
  433loPI    C1 6913   3.532  13.053  10.056 -0.0877  0.1981 -0.0097
  433loPI    C2 6914   3.558  12.677  10.191  0.1455  0.1662 -0.1384
  433loPI    C3 6915   3.370  12.955  10.408  0.2086  0.0366  0.0852
  433loPI   PO4 6916   3.460  12.978   9.723 -0.1304  0.1430 -0.0800
  433loPI   GL1 6917   3.616  13.118   9.364 -0.4112 -0.1884  0.2600
  433loPI   GL2 6918   3.417  13.290   9.248  0.0696  0.1950 -0.1556
  433loPI   C1A 6919   3.894  13.061   9.129  0.0511  0.5313  0.1714
  433loPI   C2A 6920   3.919  13.160   8.634 -0.0994  0.0754 -0.0826
  433loPI   C3A 6921   3.808  13.350   8.332 -0.1804 -0.2183 -0.1627
  433loPI   C4A 6922   4.103  13.233   7.985 -0.1705 -0.1395  0.1683
  433loPI   C5A 6923   4.316  13.080   7.660 -0.1290  0.0288  0.2000
  433loPI   C6A 6924   4.450  13.255   7.260 -0.1494  0.0490  0.0501
  433loPI   C1B 6925   3.432  13.270   8.902 -0.2066 -0.0403 -0.0182
  433loPI   C2B 6926   3.291  13.228   8.519 -0.0820  0.0497 -0.0862
  433loPI   C3B 6927   3.461  13.136   8.077 -0.2959  0.1423  0.1998
  433loPI   C4B 6928   3.718  13.380   7.691  0.0462  0.2200 -0.2598
  434loPI    C1 6929  12.854  10.896  10.382  0.0991  0.0627  0.0555
  434loPI    C2 6930  13.027  10.536  10.351  0.0912  0.0371  0.2889
  434loPI    C3 6931  12.891  10.663  10.706 -0.3848  0.0491  0.1093
  434loPI   PO4 6932  12.989  11.072  10.120 -0.3415  0.0303 -0.1122
  434loPI   GL1 6933  13.154  10.762   9.795 -0.1914 -0.0735 -0.3351
  434loPI   GL2 6934  13.332  10.581   9.958  0.2960 -0.0951  0.2160
  434loPI   C1A 6935  13.260  10.880   9.375 -0.2222  0.0787  0.2334
  434loPI   C2A 6936  13.163  10.873   9.035 -0.1361  0.1151 -0.0830
  434loPI   C3A 6937  13.139  10.902   8.667 -0.1895 -0.1484 -0.0546
  434loPI   C4A 6938  12.973  11.293   8.380 -0.2486  0.1707 -0.2245
  434loPI   C5A 6939  12.583  11.420   8.317 -0.0387 -0.1132 -0.0033
  434loPI   C6A 6940  12.298  11.885   8.502  0.0722 -0.0835  0.2958
  434loPI   C1B 6941  13.654  10.621   9.612 -0.1557 -0.1541 -0.2299
  434loPI   C2B 6942  13.655  10.644   9.225 -0.0041  0.2355  0.3136
  434loPI   C3B 6943  13.577  10.649   8.773 -0.1620 -0.1583 -0.0370
  434loPI   C4B 6944  13.457  10.335   8.431  0.3327  0.1319  0.0378
  435loPI    C1 6945  16.715   4.996   9.777  0.2030  0.0597  0.0871
  435loPI    C2 6946  16.442   5.200   9.985  0.0512  0.0991 -0.1464
  435loPI    C3 6947  16.676   4.933  10.169 -0.0672  0.1458  0.0758
  435loPI   PO4 6948  16.838   5.106   9.693  0.0744 -0.0681  0.0390
  435loPI   GL1 6949  16.841   5.468   9.484  0.1073 -0.0120 -0.1051
  435loPI   GL2 6950  17.040   5.624   9.623 -0.0537 -0.1475  0.1086
  435loPI   C1A 6951  17.101   5.256   9.117  0.1112 -0.3110 -0.0233
  435loPI   C2A 6952  17.129   5.217   8.606  0.1952  0.1378  0.1685
  435loPI   C3A 6953  17.185   5.237   8.134 -0.0764 -0.0014  0.2627
  435loPI   C4A 6954  17.263   4.952   7.852 -0.1663 -0.1036  0.1404
  435loPI   C5A 6955  17.260   4.464   7.510  0.4635 -0.1594  0.1294
  435loPI   C6A 6956  17.078   4.147   7.481  0.1245 -0.1695  0.3357
  435loPI   C1B 6957  17.264   5.717   9.274  0.3518 -0.1324 -0.0468
  435loPI   C2B 6958  17.150   5.712   8.881  0.4714  0.0544 -0.0207
  435loPI   C3B 6959  17.059   5.725   8.454  0.2592  0.0378  0.0701
  435loPI   C4B 6960  16.698   5.724   8.216  0.2653 -0.1704  0.3170
  436loPI    C1 6961  17.630  17.384  10.353  0.1285 -0.0092  0.0035
  436loPI    C2 6962  17.277  17.470  10.520  0.2382  0.2325  0.1163
  436loPI    C3 6963  17.403  17.090  10.502 -0.0479  0.1390  0.0310
  436loPI   PO4 6964  17.602  17.613  10.134 -0.1344  0.0090 -0.0829
  436loPI   GL1 6965  17.448  17.729   9.718  0.2979  0.1066  0.1662
  436loPI   GL2 6966  17.666  17.456   9.598  0.2195  0.1214  0.0918
  436loPI   C1A 6967  17.344  17.997   9.297 -0.0059  0.3104  0.2179
  436loPI   C2A 6968  17.418  18.034   8.887  0.0188 -0.1972 -0.0912
  436loPI   C3A 6969  17.462  18.391   8.668  0.2661 -0.1151 -0.2585
  436loPI   C4A 6970  17.646  18.473   8.336 -0.2906 -0.0532  0.1343
  436loPI   C5A 6971  17.912  18.442   8.001  0.1006  0.0821  0.0224
  436loPI   C6A 6972  17.871  18.298   7.578  0.2836  0.1034 -0.3000
  436loPI   C1B 6973  17.532  17.103   9.353  0.1174 -0.4880  0.0153
  436loPI   C2B 6974  17.551  17.068   8.894 -0.3302 -0.0016  0.0438
  436loPI   C3B 6975  17.707  17.113   8.487 -0.2081 -0.3230 -0.0976
  436loPI   C4B 6976  17.691  17.457   8.203 -0.1539  0.0311  0.0476
  437loPI    C1 6977  15.967   5.279  10.328 -0.0019  0.2646 -0.0905
  437loPI    C2 6978  15.588   5.170  10.394  0.1193 -0.1356 -0.0276
  437loPI    C3 6979  15.863   5.119  10.680  0.2570 -0.0171 -0.1374
  437loPI   PO4 6980  15.972   5.417  10.122  0.3407 -0.1514  0.0467
  437loPI   GL1 6981  16.175   5.704   9.800  0.0444  0.0285 -0.0509
  437loPI   GL2 6982  16.418   5.632   9.699 -0.1654  0.2645  0.2160
  437loPI   C1A 6983  15.843   5.905   9.474  0.2735 -0.0410 -0.0311
  437loPI   C2A 6984  15.413   5.817   9.211  0.0118 -0.0946  0.2021
  437loPI   C3A 6985  15.376   5.682   8.780  0.1551  0.0833  0.2746
  437loPI   C4A 6986  15.286   5.286   8.508 -0.1031  0.2542 -0.1182
  437loPI   C5A 6987  15.083   5.436   8.053  0.1003  0.2260  0.0637
  437loPI   C6A 6988  15.208   5.618   7.719  0.2881 -0.0113 -0.0300
  437loPI   C1B 6989  16.301   5.324   9.338 -0.2403  0.1341  0.0773
  437loPI   C2B 6990  16.538   5.370   9.052 -0.0498  0.1224  0.0704
  437loPI   C3B 6991  16.680   5.434   8.698  0.4122  0.1350 -0.3922
  437loPI   C4B 6992  16.707   5.205   8.305 -0.0144 -0.0911  0.0888
  438loPI    C1 6993  17.804   4.459  10.363  0.0750 -0.1496  0.0444
  438loPI    C2 6994  18.126   4.625  10.534  0.0335  0.1581 -0.1678
  438loPI    C3 6995  17.819   4.503  10.760  0.1400  0.2096  0.0056
  438loPI   PO4 6996  17.813   4.426  10.089 -0.2460  0.2214  0.3310
  438loPI   GL1 6997  17.861   4.323   9.689  0.0497 -0.0056 -0.1021
  438loPI   GL2 6998  17.691   4.166   9.606  0.2161  0.2822 -0.2263
  438loPI   C1A 6999  17.988   4.501   9.256  0.0360 -0.1307 -0.0887
  438loPI   C2A 7000  17.999   4.372   8.816 -0.0494  0.2439  0.2207
  438loPI   C3A 7001  18.206   4.319   8.479 -0.0878 -0.3695 -0.2955
  438loPI   C4A 7002  18.325   4.400   8.105 -0.3149  0.4195  0.1588
  438loPI   C5A 7003  18.723   4.322   7.866 -0.1597 -0.1193 -0.1719
  438loPI   C6A 7004  18.902   4.214   7.596  0.0420 -0.2538  0.1019
  438loPI   C1B 7005  17.669   4.136   9.198 -0.1705  0.2948  0.0649
  438loPI   C2B 7006  17.765   3.704   8.983  0.0585 -0.1630  0.1592
  438loPI   C3B 7007  17.830   3.576   8.537  0.0628 -0.1413  0.0698
  438loPI   C4B 7008  17.876   3.375   8.223 -0.1364  0.2065 -0.1312
  439loPI    C1 7009  11.557  10.467  10.513  0.0693 -0.0673 -0.1936
  439loPI    C2 7010  11.866  10.669  10.668  0.0801 -0.0200 -0.2764
  439loPI    C3 7011  11.681  10.389  10.886 -0.0328  0.1853 -0.1043
  439loPI   PO4 7012  11.597  10.409  10.290  0.0550  0.4709 -0.2136
  439loPI   GL1 7013  11.494  10.657   9.927 -0.1003  0.3400  0.1098
  439loPI   GL2 7014  11.280  10.507   9.810 -0.1506  0.0357  0.0481
  439loPI   C1A 7015  11.770  10.364   9.685 -0.0374  0.2007  0.3634
  439loPI   C2A 7016  11.935  10.266   9.296  0.1736 -0.1691  0.0596
  439loPI   C3A 7017  12.054  10.386   8.935  0.0331 -0.0240  0.1822
  439loPI   C4A 7018  12.206  10.549   8.520  0.2516 -0.1202 -0.0198
  439loPI   C5A 7019  12.075  10.463   8.080 -0.0486 -0.0903 -0.0597
  439loPI   C6A 7020  11.784  10.302   7.792  0.1060  0.0565 -0.0355
  439loPI   C1B 7021  11.397  10.516   9.398  0.2997  0.1770  0.0075
  439loPI   C2B 7022  11.410  10.217   9.070  0.0542 -0.3150  0.2434
  439loPI   C3B 7023  11.767   9.986   8.815  0.1482 -0.2704  0.0772
  439loPI   C4B 7024  11.956   9.859   8.369  0.1341 -0.0973 -0.1524
  440loPI    C1 7025   4.616   0.564  10.208  0.3127 -0.0096 -0.1062
  440loPI    C2 7026   4.593   0.169  10.270  0.0772  0.0106 -0.0546
  440loPI    C3 7027   4.829   0.394  10.501  0.0336 -0.0677  0.0674
  440loPI   PO4 7028   4.509   0.555   9.945 -0.1203 -0.2241  0.2339
  440loPI   GL1 7029   4.587   0.689   9.452  0.1154  0.1330 -0.0483
  440loPI   GL2 7030   4.753   0.403   9.470  0.1124  0.0101  0.0034
  440loPI   C1A 7031   4.324   0.929   9.209  0.1976  0.2626  0.1572
  440loPI   C2A 7032   4.217   1.079   8.801 -0.2385  0.1066  0.0478
  440loPI   C3A 7033   4.158   0.982   8.326  0.0341 -0.0173  0.0561
  440loPI   C4A 7034   4.082   1.009   7.803  0.0951 -0.1260 -0.1484
  440loPI   C5A 7035   4.153   1.009   7.371  0.1435 -0.1508 -0.1363
  440loPI   C6A 7036   4.473   0.795   7.250  0.3595  0.0185  0.2096
  440loPI   C1B 7037   4.639   0.485   9.010  0.2878 -0.2043  0.1094
  440loPI   C2B 7038   4.561   0.757   8.583 -0.0166 -0.0265 -0.0468
  440loPI   C3B 7039   4.470   0.737   8.076  0.1181 -0.0029  0.0633
  440loPI   C4B 7040   4.619   0.693   7.730 -0.0639  0.0369 -0.0601
  441loPI    C1 7041   3.772   6.506  10.210 -0.1139  0.0543 -0.1022
  441loPI    C2 7042   3.445   6.597  10.421 -0.1782 -0.0960 -0.1360
  441loPI    C3 7043   3.746   6.397  10.594 -0.0994  0.0505 -0.1022
  441loPI   PO4 7044   3.631   6.384   9.954 -0.0102  0.0977  0.3111
  441loPI   GL1 7045   3.646   6.195   9.591  0.2681  0.1239 -0.1608
  441loPI   GL2 7046   3.340   6.458   9.538  0.2029  0.2331  0.1738
  441loPI   C1A 7047   3.666   5.995   9.184  0.1573 -0.2735 -0.1302
  441loPI   C2A 7048   3.465   5.682   8.937 -0.0693  0.1069 -0.0852
  441loPI   C3A 7049   3.371   5.671   8.527  0.1833 -0.1620  0.2692
  441loPI   C4A 7050   3.397   5.681   8.102 -0.3793  0.1423 -0.0390
  441loPI   C5A 7051   3.195   5.253   7.814 -0.2979 -0.0099  0.1858
  441loPI   C6A 7052   2.788   5.270   7.575  0.1813  0.3123 -0.1336
  441loPI   C1B 7053   3.485   6.475   9.159  0.3340  0.1483 -0.3053
  441loPI   C2B 7054   3.702   6.645   8.816  0.0954  0.0184  0.0801
  441loPI   C3B 7055   3.631   7.002   8.521  0.0390  0.0495 -0.1466
  441loPI   C4B 7056   3.664   7.020   8.057  0.0017 -0.1282 -0.0454
  442loPI    C1 7057   9.838   4.203  10.037  0.0937 -0.0291  0.1084
  442loPI    C2 7058  10.136   4.233  10.303 -0.0854  0.1835  0.2890
  442loPI    C3 7059   9.756   4.250  10.426 -0.1762 -0.1698  0.0702
  442loPI   PO4 7060   9.948   4.264   9.833 -0.2000  0.0786  0.1267
  442loPI   GL1 7061  10.130   4.656   9.548  0.1736  0.2490  0.1357
  442loPI   GL2 7062   9.873   4.809   9.313 -0.3282 -0.0167  0.0346
  442loPI   C1A 7063  10.241   4.666   9.062  0.2084 -0.3322 -0.0535
  442loPI   C2A 7064  10.086   4.570   8.704 -0.0003 -0.2320  0.3518
  442loPI   C3A 7065  10.154   4.503   8.316  0.0219  0.1152 -0.0201
  442loPI   C4A 7066  10.337   4.494   7.974 -0.0480 -0.2562  0.1482
  442loPI   C5A 7067  10.797   4.566   7.737  0.1384  0.1698  0.0090
  442loPI   C6A 7068  11.128   4.592   7.464  0.0039  0.0744  0.0843
  442loPI   C1B 7069   9.948   5.136   9.031 -0.1598 -0.4062 -0.0294
  442loPI   C2B 7070  10.110   5.112   8.653 -0.0670 -0.2694 -0.3345
  442loPI   C3B 7071  10.179   5.053   8.238 -0.0225  0.0057 -0.0093
  442loPI   C4B 7072  10.180   5.349   7.829 -0.2597 -0.2236 -0.3022
  443loPI    C1 7073  16.329  17.026  10.468  0.2329  0.0871  0.2259
  443loPI    C2 7074  16.532  16.758  10.685  0.0931 -0.1272  0.0955
  443loPI    C3 7075  16.499  17.135  10.814 -0.0447 -0.2666  0.4819
  443loPI   PO4 7076  16.115  17.041  10.276 -0.0957  0.1644 -0.1900
  443loPI   GL1 7077  16.241  17.086   9.818  0.1671  0.0777 -0.2259
  443loPI   GL2 7078  16.414  16.871   9.584 -0.0640  0.0038 -0.2278
  443loPI   C1A 7079  16.115  17.377   9.488  0.1073  0.0664 -0.2729
  443loPI   C2A 7080  15.912  17.554   9.162  0.0071 -0.0741 -0.2635
  443loPI   C3A 7081  15.884  17.761   8.726 -0.1578 -0.0387  0.0049
  443loPI   C4A 7082  15.837  17.523   8.421 -0.0189  0.1826 -0.0379
  443loPI   C5A 7083  15.638  17.205   8.113 -0.1196  0.2456 -0.2194
  443loPI   C6A 7084  15.556  16.955   7.799 -0.0339  0.1952  0.2595
  443loPI   C1B 7085  16.519  16.961   9.176  0.1151  0.1611  0.2655
  443loPI   C2B 7086  16.526  16.917   8.753 -0.0201 -0.2132  0.0214
  443loPI   C3B 7087  16.653  17.012   8.320 -0.2212 -0.2038 -0.1448
  443loPI   C4B 7088  16.695  17.446   8.047 -0.0155  0.2216 -0.1174
  444loPI    C1 7089   6.477   2.967   9.920  0.1496  0.0108  0.0337
  444loPI    C2 7090   6.127   2.883  10.095  0.1803 -0.1432  0.0229
  444loPI    C3 7091   6.467   2.735  10.246  0.2581  0.1359  0.1273
  444loPI   PO4 7092   6.490   3.008   9.612 -0.5912 -0.2348  0.1440
  444loPI   GL1 7093   6.334   3.214   9.311 -0.1524  0.0500 -0.0785
  444loPI   GL2 7094   6.035   3.100   9.227  0.2468 -0.0267  0.4331
  444loPI   C1A 7095   6.297   3.353   8.924  0.1123  0.6114  0.2986
  444loPI   C2A 7096   6.299   3.301   8.523  0.3424  0.2260  0.0001
  444loPI   C3A 7097   5.912   3.150   8.207  0.0551 -0.0470 -0.0960
  444loPI   C4A 7098   5.937   3.136   7.732  0.0687  0.2913  0.2201
  444loPI   C5A 7099   6.058   3.265   7.310 -0.1123  0.1712  0.1165
  444loPI   C6A 7100   6.173   3.116   6.972  0.2520 -0.3411 -0.0624
  444loPI   C1B 7101   5.947   2.610   9.031 -0.0166  0.1970  0.1495
  444loPI   C2B 7102   6.191   2.348   8.735 -0.1057 -0.0324 -0.3159
  444loPI   C3B 7103   6.085   2.270   8.292 -0.1715 -0.0259  0.1364
  444loPI   C4B 7104   6.083   2.156   7.869  0.0077 -0.2991  0.0004
  445loPI    C1 7105   7.979   3.275   9.770 -0.0692  0.1280 -0.0455
  445loPI    C2 7106   8.341   3.340   9.612  0.0114  0.0423  0.1004
  445loPI    C3 7107   8.087   3.645   9.663  0.1124  0.1241  0.1173
  445loPI   PO4 7108   7.857   3.126   9.609  0.2828  0.0500  0.0940
  445loPI   GL1 7109   7.890   2.942   9.293  0.1859 -0.0657  0.1291
  445loPI   GL2 7110   7.821   2.554   9.276  0.0974 -0.0225  0.3222
  445loPI   C1A 7111   7.853   3.061   8.919  0.2673 -0.0050  0.2517
  445loPI   C2A 7112   7.823   3.420   8.637  0.0989  0.2086  0.0545
  445loPI   C3A 7113   7.453   3.618   8.451 -0.0027 -0.0857 -0.0411
  445loPI   C4A 7114   7.189   3.545   8.095  0.1040  0.0688  0.1234
  445loPI   C5A 7115   7.458   3.447   7.670  0.1258  0.0052 -0.0235
  445loPI   C6A 7116   7.795   3.402   7.282 -0.0814  0.3025  0.2400
  445loPI   C1B 7117   7.846   2.501   8.834 -0.1511  0.1930 -0.2121
  445loPI   C2B 7118   7.756   2.815   8.451  0.0569 -0.2814  0.1357
  445loPI   C3B 7119   7.881   2.775   8.004 -0.2878  0.0443  0.0218
  445loPI   C4B 7120   8.096   2.624   7.687  0.0479  0.0415 -0.2471
  446loPI    C1 7121   6.911  17.219   9.832  0.1121 -0.0616 -0.0349
  446loPI    C2 7122   6.663  17.344  10.119  0.1429  0.2772 -0.1520
  446loPI    C3 7123   6.862  17.000  10.163 -0.0741  0.1808  0.1004
  446loPI   PO4 7124   6.788  17.235   9.602  0.1981  0.1214 -0.0071
  446loPI   GL1 7125   6.621  17.293   9.242  0.1746 -0.1962  0.3490
  446loPI   GL2 7126   6.547  17.531   9.251 -0.0634  0.0129 -0.1475
  446loPI   C1A 7127   6.998  17.116   8.921  0.1071  0.0053 -0.0441
  446loPI   C2A 7128   7.151  17.202   8.546 -0.2100  0.3139  0.0394
  446loPI   C3A 7129   7.368  17.507   8.255  0.0570 -0.2203  0.0383
  446loPI   C4A 7130   7.396  17.542   7.843 -0.0864 -0.0211  0.0391
  446loPI   C5A 7131   7.507  17.334   7.532  0.2605 -0.0717 -0.1579
  446loPI   C6A 7132   7.410  17.340   6.967  0.1963  0.0613  0.0437
  446loPI   C1B 7133   6.452  17.696   8.885 -0.1119  0.0620  0.0205
  446loPI   C2B 7134   6.396  17.787   8.488 -0.5462 -0.0727 -0.3094
  446loPI   C3B 7135   6.354  17.771   8.131 -0.1098  0.0132 -0.2547
  446loPI   C4B 7136   6.540  17.950   7.824 -0.1749 -0.0461  0.1373
  447loPI    C1 7137  11.852   6.658  10.979 -0.0542  0.2841  0.1452
  447loPI    C2 7138  12.214   6.580  11.130 -0.0104 -0.0516 -0.1206
  447loPI    C3 7139  11.983   6.859  11.299  0.2552 -0.0343  0.2252
  447loPI   PO4 7140  11.927   6.705  10.657  0.0052 -0.1895  0.1330
  447loPI   GL1 7141  12.053   6.664  10.168 -0.1564  0.0556 -0.4839
  447loPI   GL2 7142  11.830   6.241  10.136  0.1056  0.1739 -0.1501
  447loPI   C1A 7143  12.260   6.459   9.837  0.0380  0.0408  0.0875
  447loPI   C2A 7144  12.470   6.353   9.431 -0.0505  0.0669  0.1247
  447loPI   C3A 7145  12.572   6.525   8.953  0.1600  0.2339  0.0098
  447loPI   C4A 7146  12.522   6.762   8.562  0.0496 -0.2708 -0.0500
  447loPI   C5A 7147  12.242   6.811   8.318 -0.1248  0.2178 -0.0405
  447loPI   C6A 7148  12.103   7.127   8.090  0.0628  0.3332 -0.0280
  447loPI   C1B 7149  11.670   6.520   9.852 -0.1904 -0.3926 -0.1239
  447loPI   C2B 7150  11.648   6.755   9.452 -0.1840  0.0054  0.6019
  447loPI   C3B 7151  11.887   6.977   9.131 -0.0624  0.0937 -0.0713
  447loPI   C4B 7152  12.175   6.986   8.858  0.0985 -0.1338  0.1289
  448loPI    C1 7153  17.121   5.936  10.097 -0.1728  0.1790 -0.1537
  448loPI    C2 7154  17.423   5.756   9.905 -0.3369 -0.0038 -0.2437
  448loPI    C3 7155  17.334   5.652  10.281  0.0805  0.4595 -0.0054
  448loPI   PO4 7156  16.816   6.003  10.040  0.0392  0.3070 -0.2193
  448loPI   GL1 7157  16.702   6.041   9.703 -0.0296 -0.0093 -0.3489
  448loPI   GL2 7158  16.639   6.411   9.665 -0.2371  0.0106  0.2793
  448loPI   C1A 7159  16.507   5.818   9.274  0.1415 -0.1051 -0.3094
  448loPI   C2A 7160  16.081   5.738   9.105  0.1162 -0.3697 -0.0673
  448loPI   C3A 7161  15.841   5.818   8.707  0.2145 -0.1769 -0.2669
  448loPI   C4A 7162  15.939   5.918   8.219  0.0353 -0.1716  0.0930
  448loPI   C5A 7163  16.192   6.131   7.884  0.2101 -0.2847  0.0240
  448loPI   C6A 7164  16.543   5.872   7.650  0.0810  0.1685  0.1265
  448loPI   C1B 7165  16.701   6.494   9.222 -0.4023 -0.2732  0.1940
  448loPI   C2B 7166  16.627   6.648   8.808 -0.2734  0.0568 -0.3498
  448loPI   C3B 7167  16.245   6.822   8.543  0.0559  0.2044  0.0548
  448loPI   C4B 7168  15.954   6.633   8.164  0.3015  0.1666  0.1119
  449loPI    C1 7169  17.334   7.648  10.820 -0.1844 -0.0296  0.1288
  449loPI    C2 7170  17.695   7.612  10.988 -0.0451  0.0659 -0.1445
  449loPI    C3 7171  17.398   7.791  11.188  0.0734  0.0374  0.0597
  449loPI   PO4 7172  17.459   7.518  10.538  0.1917 -0.0915  0.2337
  449loPI   GL1 7173  17.375   7.449  10.104 -0.0033  0.2797  0.1407
  449loPI   GL2 7174  17.029   7.491  10.052  0.0347 -0.0190 -0.0497
  449loPI   C1A 7175  17.298   7.184   9.727  0.1121 -0.3162  0.0169
  449loPI   C2A 7176  17.183   7.109   9.348  0.2639 -0.0622 -0.1950
  449loPI   C3A 7177  16.951   6.973   9.108 -0.1456 -0.0630 -0.3063
  449loPI   C4A 7178  17.010   7.002   8.637  0.6313  0.0551 -0.2725
  449loPI   C5A 7179  16.978   6.780   8.305 -0.2532  0.1390  0.0278
  449loPI   C6A 7180  17.183   6.500   8.030 -0.0323 -0.1894  0.4234
  449loPI   C1B 7181  16.824   7.396   9.679 -0.2076  0.1025  0.0015
  449loPI   C2B 7182  16.695   7.355   9.233 -0.1953  0.1745 -0.0253
  449loPI   C3B 7183  16.607   7.238   8.748 -0.0189  0.1007 -0.1981
  449loPI   C4B 7184  16.637   7.088   8.337  0.0704 -0.0189 -0.2848
  450loPI    C1 7185  13.286  15.543  10.504 -0.0197 -0.2196  0.0548
  450loPI    C2 7186  13.069  15.629  10.829 -0.0891 -0.0412 -0.0370
  450loPI    C3 7187  13.404  15.413  10.864  0.0154  0.1515  0.1823
  450loPI   PO4 7188  13.100  15.503  10.296  0.0243 -0.1516 -0.2541
  450loPI   GL1 7189  12.961  15.557   9.942 -0.1762  0.2429 -0.1230
  450loPI   GL2 7190  12.841  15.713   9.729  0.0316 -0.1794 -0.1281
  450loPI   C1A 7191  13.304  15.494   9.584  0.0836  0.1780  0.0583
  450loPI   C2A 7192  13.414  15.446   9.145  0.1266 -0.0641 -0.2945
  450loPI   C3A 7193  13.414  15.427   8.777 -0.1349  0.2439 -0.1619
  450loPI   C4A 7194  13.354  15.550   8.260 -0.1155  0.0944 -0.2089
  450loPI   C5A 7195  13.317  15.391   7.815 -0.3554  0.3730  0.1988
  450loPI   C6A 7196  13.221  15.060   7.491  0.1521 -0.0236  0.0668
  450loPI   C1B 7197  12.519  15.446   9.643  0.0274 -0.1836 -0.1063
  450loPI   C2B 7198  12.441  15.087   9.418 -0.0937 -0.2186  0.1352
  450loPI   C3B 7199  12.531  14.947   9.074 -0.1141  0.0199 -0.0541
  450loPI   C4B 7200  12.470  15.068   8.761 -0.1823 -0.0995 -0.0767
  451loPI    C1 7201   9.411  16.686  10.494 -0.1926 -0.0855  0.0401
  451loPI    C2 7202   9.313  16.601  10.873  0.1807  0.0122  0.1628
  451loPI    C3 7203   9.657  16.790  10.792  0.1231 -0.0418 -0.2294
  451loPI   PO4 7204   9.232  16.547  10.355  0.0056  0.3163  0.1601
  451loPI   GL1 7205   8.933  16.494   9.960 -0.0748 -0.0614 -0.0797
  451loPI   GL2 7206   9.047  16.750   9.871  0.0004  0.0507  0.0625
  451loPI   C1A 7207   9.123  16.291   9.620  0.0383  0.1038 -0.0975
  451loPI   C2A 7208   9.376  16.032   9.308 -0.0162 -0.0750 -0.0108
  451loPI   C3A 7209   9.434  16.026   8.910  0.2527  0.2903  0.2046
  451loPI   C4A 7210   9.546  15.986   8.466 -0.0647 -0.2492  0.0107
  451loPI   C5A 7211   9.261  15.911   8.069  0.0831  0.2386 -0.0964
  451loPI   C6A 7212   9.144  15.623   7.602  0.0706 -0.1292 -0.3663
  451loPI   C1B 7213   9.121  16.792   9.443  0.0188  0.0759  0.0536
  451loPI   C2B 7214   9.079  16.765   9.000  0.0527 -0.1858  0.3782
  451loPI   C3B 7215   8.993  16.738   8.486  0.0948  0.3527  0.1422
  451loPI   C4B 7216   9.003  16.757   8.111 -0.1215 -0.0728  0.1211
  452loPI    C1 7217   6.814  14.158   9.814 -0.0317 -0.1686  0.1096
  452loPI    C2 7218   6.495  14.155  10.055  0.0518 -0.0244  0.2238
  452loPI    C3 7219   6.850  14.275  10.195  0.0778  0.1670  0.0002
  452loPI   PO4 7220   6.739  14.145   9.593 -0.1178 -0.0267  0.1276
  452loPI   GL1 7221   6.785  14.497   9.368  0.2564  0.2284  0.1213
  452loPI   GL2 7222   7.045  14.658   9.378  0.0335  0.0745  0.1616
  452loPI   C1A 7223   6.695  14.256   9.002  0.0489 -0.2361 -0.1865
  452loPI   C2A 7224   6.584  14.217   8.490  0.0020  0.2003  0.1899
  452loPI   C3A 7225   6.233  14.230   8.129 -0.1067 -0.0109 -0.3117
  452loPI   C4A 7226   6.107  14.328   7.611 -0.3761  0.1093 -0.0754
  452loPI   C5A 7227   5.825  14.564   7.410 -0.1940  0.0133 -0.0187
  452loPI   C6A 7228   5.651  14.929   7.173  0.2078 -0.2126  0.0389
  452loPI   C1B 7229   7.089  14.585   8.953  0.0910 -0.1465  0.2129
  452loPI   C2B 7230   7.024  14.592   8.593  0.1157  0.1064 -0.0032
  452loPI   C3B 7231   6.830  14.623   8.224 -0.1161 -0.0675  0.0279
  452loPI   C4B 7232   6.854  14.682   7.819 -0.0321  0.0175 -0.1916
  453loPI    C1 7233   2.305   8.684   9.813  0.0064 -0.0170 -0.1001
  453loPI    C2 7234   2.666   8.691   9.986  0.0080 -0.0546 -0.1017
  453loPI    C3 7235   2.356   8.874  10.161  0.0090 -0.0949 -0.0577
  453loPI   PO4 7236   2.420   8.727   9.536  0.0776 -0.1173  0.0667
  453loPI   GL1 7237   2.017   8.571   9.171  0.0518  0.1827 -0.1855
  453loPI   GL2 7238   2.237   8.351   9.069  0.2539 -0.0873  0.3993
  453loPI   C1A 7239   1.860   8.805   8.888 -0.1203  0.0109 -0.0161
  453loPI   C2A 7240   1.550   8.919   8.537  0.0798  0.3014 -0.0280
  453loPI   C3A 7241   1.222   8.734   8.282 -0.0099 -0.0051  0.1157
  453loPI   C4A 7242   1.228   8.386   8.099 -0.1894 -0.0090 -0.1231
  453loPI   C5A 7243   1.043   8.071   7.827  0.1593 -0.3185  0.3576
  453loPI   C6A 7244   1.075   8.252   7.407  0.1651  0.0551 -0.2571
  453loPI   C1B 7245   2.530   8.105   8.994  0.0653 -0.3763 -0.3121
  453loPI   C2B 7246   2.528   7.933   8.655  0.1894  0.1862  0.3241
  453loPI   C3B 7247   2.640   8.007   8.243 -0.2316 -0.1242 -0.3496
  453loPI   C4B 7248   2.921   8.207   7.888 -0.0418  0.1088  0.0975
  454loPI    C1 7249   3.806  11.338  10.003 -0.2678 -0.2201  0.0888
  454loPI    C2 7250   3.799  11.488  10.374 -0.0911 -0.1130  0.0503
  454loPI    C3 7251   3.896  11.105  10.316  0.1886 -0.0503  0.0921
  454loPI   PO4 7252   3.986  11.510   9.846 -0.1294 -0.1021 -0.1675
  454loPI   GL1 7253   4.144  11.342   9.456  0.0117  0.0888 -0.1705
  454loPI   GL2 7254   3.875  11.221   9.504 -0.3644  0.0888 -0.0246
  454loPI   C1A 7255   4.206  11.478   9.061 -0.0638 -0.0569  0.1575
  454loPI   C2A 7256   4.036  11.634   8.625  0.1950  0.3016  0.1381
  454loPI   C3A 7257   4.120  11.631   8.123 -0.1127  0.2254  0.1583
  454loPI   C4A 7258   3.986  11.751   7.762 -0.0477  0.1849 -0.3154
  454loPI   C5A 7259   3.991  11.855   7.451  0.0648 -0.1339  0.0317
  454loPI   C6A 7260   4.225  11.890   7.119  0.2662 -0.0273  0.1619
  454loPI   C1B 7261   3.749  11.308   9.006  0.2256  0.0587  0.0076
  454loPI   C2B 7262   3.751  11.195   8.658 -0.0317  0.0685 -0.3730
  454loPI   C3B 7263   3.783  11.310   8.270 -0.1307 -0.2515 -0.3793
  454loPI   C4B 7264   3.739  11.338   7.806 -0.0378  0.0311 -0.0299
  455loPI    C1 7265   7.765   5.045  10.215  0.2810  0.2780 -0.1951
  455loPI    C2 7266   7.984   4.724  10.308 -0.1116  0.0197 -0.1356
  455loPI    C3 7267   7.818   4.944  10.598  0.0973  0.2392 -0.1789
  455loPI   PO4 7268   7.910   5.115   9.988  0.2999  0.0380 -0.2102
  455loPI   GL1 7269   7.871   5.068   9.600 -0.0722  0.3151 -0.0569
  455loPI   GL2 7270   7.580   4.919   9.503 -0.1507 -0.0270  0.0013
  455loPI   C1A 7271   7.998   5.163   9.157  0.3469  0.0160 -0.0548
  455loPI   C2A 7272   8.043   5.233   8.699  0.1482  0.0704  0.0216
  455loPI   C3A 7273   7.966   5.188   8.382  0.1023  0.0734 -0.2699
  455loPI   C4A 7274   7.978   5.147   7.954  0.0614 -0.0891  0.1123
  455loPI   C5A 7275   7.954   4.787   7.642  0.0497 -0.2674  0.3023
  455loPI   C6A 7276   7.995   4.573   7.289 -0.1086 -0.0456  0.2254
  455loPI   C1B 7277   7.631   4.774   9.143  0.4622  0.0804 -0.2696
  455loPI   C2B 7278   7.876   4.726   8.784 -0.0767 -0.3516  0.0566
  455loPI   C3B 7279   8.162   4.576   8.534  0.1656 -0.2544  0.1727
  455loPI   C4B 7280   8.209   4.758   8.071  0.0559 -0.1545  0.3537
  456loPI    C1 7281   5.406   7.711   9.980 -0.1762  0.0065 -0.0160
  456loPI    C2 7282   5.748   7.639  10.175 -0.2370 -0.0911  0.0550
  456loPI    C3 7283   5.512   7.940  10.290 -0.0545  0.1340 -0.1501
  456loPI   PO4 7284   5.423   7.566   9.771 -0.3338  0.1874  0.0782
  456loPI   GL1 7285   5.408   7.290   9.468  0.1719 -0.3614 -0.1034
  456loPI   GL2 7286   5.131   7.156   9.249  0.2454 -0.3084 -0.1201
  456loPI   C1A 7287   5.645   7.312   9.122 -0.0478  0.2126 -0.0759
  456loPI   C2A 7288   5.701   7.371   8.639  0.0154 -0.0243  0.0124
  456loPI   C3A 7289   5.748   7.620   8.338 -0.0693  0.0667  0.0689
  456loPI   C4A 7290   5.754   7.864   7.988 -0.1089 -0.1770  0.2386
  456loPI   C5A 7291   5.782   8.292   7.708  0.0085 -0.1987  0.0719
  456loPI   C6A 7292   5.893   8.760   7.596 -0.0724 -0.0441 -0.1009
  456loPI   C1B 7293   5.123   7.436   8.957  0.3788  0.1054 -0.0571
  456loPI   C2B 7294   5.085   7.312   8.530 -0.0217 -0.4196  0.0720
  456loPI   C3B 7295   4.900   7.330   8.066 -0.1226  0.1393 -0.1041
  456loPI   C4B 7296   4.778   7.378   7.653 -0.0090 -0.0567 -0.1367
  457loPI    C1 7297  15.474   5.674  10.564  0.0483  0.0378  0.1050
  457loPI    C2 7298  15.856   5.640  10.676  0.0355 -0.0570  0.1206
  457loPI    C3 7299  15.565   5.498  10.911 -0.0047 -0.0561  0.0716
  457loPI   PO4 7300  15.445   5.659  10.266  0.0283 -0.1698 -0.0221
  457loPI   GL1 7301  15.481   5.750   9.813  0.2874 -0.1177 -0.0862
  457loPI   GL2 7302  15.423   5.366   9.862  0.1240 -0.0989  0.0458
  457loPI   C1A 7303  15.223   6.095   9.638  0.1437 -0.0087  0.2993
  457loPI   C2A 7304  15.085   6.350   9.287  0.0168  0.0760  0.1795
  457loPI   C3A 7305  14.906   6.630   8.857  0.1033 -0.0647 -0.2219
  457loPI   C4A 7306  14.905   6.787   8.367  0.2148 -0.1145 -0.3828
  457loPI   C5A 7307  14.936   6.764   8.003 -0.2953 -0.1266 -0.0542
  457loPI   C6A 7308  14.759   6.428   7.792 -0.5068  0.1384 -0.1023
  457loPI   C1B 7309  15.259   5.423   9.507  0.5258 -0.1477  0.1613
  457loPI   C2B 7310  15.133   5.383   9.140  0.1899 -0.0205  0.3421
  457loPI   C3B 7311  14.855   5.425   8.796 -0.2122  0.2085  0.0151
  457loPI   C4B 7312  14.692   5.219   8.456 -0.0691 -0.1393  0.0786
  458loPI    C1 7313  15.509   4.396  10.197  0.3401 -0.0775 -0.1574
  458loPI    C2 7314  15.750   4.630  10.414  0.1231 -0.2858  0.3214
  458loPI    C3 7315  15.760   4.233  10.462 -0.0135 -0.3268  0.0321
  458loPI   PO4 7316  15.262   4.587  10.262  0.3357  0.0533  0.4900
  458loPI   GL1 7317  15.024   4.627   9.910 -0.0005 -0.3115  0.0358
  458loPI   GL2 7318  14.855   4.389   9.778  0.1023 -0.4413  0.1898
  458loPI   C1A 7319  14.891   4.927   9.694 -0.2147  0.1266 -0.0192
  458loPI   C2A 7320  14.885   4.959   9.268 -0.2707  0.0785 -0.0681
  458loPI   C3A 7321  15.052   4.975   8.863  0.0893 -0.0729 -0.1357
  458loPI   C4A 7322  14.996   4.894   8.411  0.0770  0.2622  0.0435
  458loPI   C5A 7323  14.700   4.954   8.022  0.0847  0.1367 -0.1075
  458loPI   C6A 7324  14.599   4.883   7.620 -0.1796 -0.2968  0.1590
  458loPI   C1B 7325  14.710   4.468   9.363  0.0683 -0.0045 -0.0602
  458loPI   C2B 7326  14.843   4.476   8.957 -0.3578  0.2074 -0.1883
  458loPI   C3B 7327  14.935   4.271   8.548  0.3844  0.2883 -0.1632
  458loPI   C4B 7328  15.058   4.396   8.106  0.1835 -0.0362 -0.0329
  459loPI    C1 7329   5.175  12.616  10.123  0.2039 -0.1173  0.0767
  459loPI    C2 7330   5.229  12.318   9.862  0.0741 -0.1586  0.0962
  459loPI    C3 7331   5.543  12.477  10.052  0.1778 -0.0826 -0.1343
  459loPI   PO4 7332   4.951  12.731   9.901  0.0068  0.0527 -0.0571
  459loPI   GL1 7333   5.103  12.996   9.548 -0.4264 -0.0333  0.0148
  459loPI   GL2 7334   5.335  12.776   9.528 -0.2153  0.2743 -0.1831
  459loPI   C1A 7335   5.334  13.166   9.070  0.1040 -0.2076 -0.0620
  459loPI   C2A 7336   5.327  13.058   8.664  0.1751  0.0021  0.0430
  459loPI   C3A 7337   5.248  13.146   8.181 -0.1021 -0.3519 -0.0766
  459loPI   C4A 7338   5.077  12.980   7.833 -0.1418  0.0809  0.0097
  459loPI   C5A 7339   4.808  13.031   7.504  0.0525  0.2049 -0.4567
  459loPI   C6A 7340   4.862  12.876   7.156 -0.0186 -0.1090 -0.0293
  459loPI   C1B 7341   5.181  12.705   9.127 -0.0051 -0.0112  0.0039
  459loPI   C2B 7342   4.908  12.789   8.815  0.1008 -0.2564  0.3953
  459loPI   C3B 7343   4.785  12.922   8.410 -0.0409  0.0548  0.0023
  459loPI   C4B 7344   4.643  13.057   8.029 -0.0372  0.3015 -0.0763
  460loPI    C1 7345   6.411  17.898   9.943  0.2063 -0.1113  0.1151
  460loPI    C2 7346   6.750  17.886  10.155  0.2164  0.3045  0.1307
  460loPI    C3 7347   6.431  18.079  10.299 -0.0272 -0.0718  0.1098
  460loPI   PO4 7348   6.497  18.036   9.646 -0.1046 -0.4293  0.1420
  460loPI   GL1 7349   6.666  18.004   9.310 -0.1768 -0.2063  0.1142
  460loPI   GL2 7350   6.588  18.294   9.016 -0.1274 -0.3273 -0.3257
  460loPI   C1A 7351   6.902  17.974   8.912 -0.2136 -0.2474 -0.3263
  460loPI   C2A 7352   6.947  18.022   8.473 -0.3262  0.0935 -0.0461
  460loPI   C3A 7353   6.920  17.858   8.138 -0.0396  0.0100 -0.0811
  460loPI   C4A 7354   7.003  17.759   7.699  0.0935 -0.0798 -0.1923
  460loPI   C5A 7355   6.706  17.728   7.308 -0.1874  0.0290  0.3061
  460loPI   C6A 7356   6.425  17.406   7.012 -0.4527  0.0639 -0.1237
  460loPI   C1B 7357   6.533  18.244   8.583  0.1289  0.0365  0.1330
  460loPI   C2B 7358   6.531  18.320   8.221  0.2938  0.1758 -0.0482
  460loPI   C3B 7359   6.509  18.500   7.739  0.0869 -0.1092 -0.3823
  460loPI   C4B 7360   6.365  18.700   7.356  0.3550 -0.2375 -0.2019
  461loPI    C1 7361  15.910  16.571  10.561 -0.1332 -0.0515 -0.0856
  461loPI    C2 7362  15.963  16.220  10.745 -0.2254  0.0922  0.2222
  461loPI    C3 7363  16.122  16.553  10.899  0.3151  0.1182 -0.3482
  461loPI   PO4 7364  15.982  16.578  10.379  0.0697  0.0750  0.0246
  461loPI   GL1 7365  15.906  16.722   9.928 -0.0712  0.2481  0.0069
  461loPI   GL2 7366  15.690  16.444   9.971  0.0651  0.3108  0.0155
  461loPI   C1A 7367  15.891  16.961   9.463  0.0380  0.0496 -0.0270
  461loPI   C2A 7368  15.900  17.092   8.991 -0.1927  0.1074  0.6437
  461loPI   C3A 7369  16.285  17.392   8.828 -0.4354  0.0835 -0.2596
  461loPI   C4A 7370  16.314  17.484   8.350 -0.0593 -0.1509 -0.1750
  461loPI   C5A 7371  16.257  17.614   7.899  0.3312 -0.1023 -0.0042
  461loPI   C6A 7372  16.236  17.996   7.634  0.0593  0.3518  0.0243
  461loPI   C1B 7373  15.536  16.577   9.592  0.0183  0.2829  0.3987
  461loPI   C2B 7374  15.627  16.565   9.162  0.1728 -0.0244  0.1551
  461loPI   C3B 7375  15.623  16.598   8.640 -0.2003 -0.0934 -0.3817
  461loPI   C4B 7376  15.556  16.766   8.298 -0.2107 -0.2531  0.3103
  462loPI    C1 7377   6.129   1.209   9.978  0.0821  0.1383 -0.0149
  462loPI    C2 7378   6.122   1.594   9.871  0.0507  0.1200 -0.0790
  462loPI    C3 7379   6.020   1.489  10.243  0.1420  0.1818 -0.0359
  462loPI   PO4 7380   6.171   1.123   9.713  0.0875 -0.4967  0.1546
  462loPI   GL1 7381   5.940   0.955   9.392  0.1213 -0.2971 -0.1600
  462loPI   GL2 7382   6.216   0.715   9.411 -0.0389  0.0831  0.3721
  462loPI   C1A 7383   6.024   0.953   8.993  0.0883  0.1402 -0.0452
  462loPI   C2A 7384   6.124   0.859   8.612 -0.3846  0.2054 -0.2783
  462loPI   C3A 7385   6.155   0.872   8.119 -0.2624  0.2412 -0.0628
  462loPI   C4A 7386   6.097   0.696   7.718 -0.1483  0.2270 -0.1595
  462loPI   C5A 7387   6.207   0.595   7.295 -0.0829 -0.1683  0.2892
  462loPI   C6A 7388   6.313   0.249   6.877  0.3550 -0.1767 -0.1171
  462loPI   C1B 7389   6.506   0.417   9.074 -0.0958  0.0401  0.0274
  462loPI   C2B 7390   6.480   0.330   8.647  0.4493  0.0352  0.0141
  462loPI   C3B 7391   6.440   0.413   8.254  0.1440  0.2119 -0.2219
  462loPI   C4B 7392   6.504   0.461   7.730 -0.1482  0.0390 -0.0049
  463loPI    C1 7393  14.730   9.205  10.685 -0.1745  0.1497  0.3077
  463loPI    C2 7394  14.797   9.495  10.418  0.1398 -0.0404  0.1753
  463loPI    C3 7395  14.744   9.586  10.803  0.0903  0.2036  0.1121
  463loPI   PO4 7396  14.967   9.030  10.607 -0.0111 -0.0723 -0.3095
  463loPI   GL1 7397  15.169   8.832  10.223 -0.0178  0.2271 -0.0952
  463loPI   GL2 7398  15.135   9.184  10.195 -0.0711  0.0994 -0.0448
  463loPI   C1A 7399  15.167   8.888   9.765 -0.1378 -0.2428 -0.0463
  463loPI   C2A 7400  15.382   8.992   9.481  0.0692 -0.1143  0.1374
  463loPI   C3A 7401  15.600   9.240   9.106  0.2633 -0.0266 -0.0531
  463loPI   C4A 7402  15.694   9.137   8.717  0.0732 -0.0228  0.1323
  463loPI   C5A 7403  15.588   9.056   8.348 -0.0875  0.1122 -0.3683
  463loPI   C6A 7404  15.306   8.948   8.092 -0.2322 -0.3081 -0.3889
  463loPI   C1B 7405  15.339   9.399   9.807 -0.3610  0.0777  0.0856
  463loPI   C2B 7406  15.399   9.665   9.584 -0.0114 -0.0365 -0.0458
  463loPI   C3B 7407  15.436   9.669   9.141 -0.0238  0.2269  0.1487
  463loPI   C4B 7408  15.463   9.680   8.718  0.1127 -0.0432 -0.2342
  464loPI    C1 7409   2.951  10.299  10.276  0.1095  0.3210  0.0664
  464loPI    C2 7410   2.802  10.029  10.531 -0.0629 -0.0473 -0.4077
  464loPI    C3 7411   3.186  10.138  10.557 -0.0553 -0.1464 -0.0542
  464loPI   PO4 7412   2.829  10.260  10.045 -0.1765  0.2129 -0.4821
  464loPI   GL1 7413   2.894  10.470   9.613  0.0354  0.4170 -0.1867
  464loPI   GL2 7414   3.162  10.555   9.488  0.0201  0.0699 -0.1129
  464loPI   C1A 7415   2.695  10.278   9.266  0.0327  0.1653  0.1488
  464loPI   C2A 7416   2.555  10.085   8.875  0.0579 -0.3052 -0.1270
  464loPI   C3A 7417   2.616  10.039   8.466 -0.0275  0.1258 -0.0046
  464loPI   C4A 7418   2.802  10.118   8.101  0.0379 -0.5328 -0.1595
  464loPI   C5A 7419   2.563  10.071   7.713 -0.0404 -0.0957  0.0259
  464loPI   C6A 7420   2.556   9.952   7.322  0.2249  0.1085 -0.2671
  464loPI   C1B 7421   3.141  10.477   9.130  0.2945 -0.1332  0.0846
  464loPI   C2B 7422   3.179  10.398   8.637 -0.0819 -0.1193 -0.0530
  464loPI   C3B 7423   3.274  10.317   8.209 -0.2609 -0.1258 -0.2771
  464loPI   C4B 7424   3.457  10.234   7.819  0.0881  0.3145  0.0378
  465loPI    C1 7425  11.328   2.377  10.221  0.2365 -0.1138 -0.0904
  465loPI    C2 7426  11.063   2.211   9.971 -0.0361 -0.0477  0.1486
  465loPI    C3 7427  11.117   2.057  10.336  0.0251  0.1290  0.2155
  465loPI   PO4 7428  11.216   2.641  10.181 -0.0885 -0.1643 -0.0784
  465loPI   GL1 7429  11.124   2.737   9.757 -0.1009 -0.3653  0.0282
  465loPI   GL2 7430  11.297   2.932   9.688  0.0346 -0.1091 -0.3193
  465loPI   C1A 7431  11.119   2.500   9.489 -0.0460  0.3356  0.1305
  465loPI   C2A 7432  11.119   2.583   9.049 -0.0282 -0.1524 -0.1474
  465loPI   C3A 7433  11.206   2.417   8.702 -0.3069  0.0650  0.1589
  465loPI   C4A 7434  11.296   2.151   8.340  0.1183 -0.1560 -0.1508
  465loPI   C5A 7435  11.307   1.886   7.958 -0.0456  0.3641 -0.0670
  465loPI   C6A 7436  11.109   1.922   7.538  0.1401 -0.2502 -0.0284
  465loPI   C1B 7437  11.584   2.771   9.332  0.3150  0.4116  0.0805
  465loPI   C2B 7438  11.495   2.895   8.908 -0.1782  0.4191 -0.0462
  465loPI   C3B 7439  11.169   2.883   8.586 -0.2205 -0.0413 -0.1524
  465loPI   C4B 7440  11.033   2.999   8.205  0.1170  0.1950  0.1563
  466loPI    C1 7441   4.641  14.261   9.877  0.2055 -0.1089  0.2663
  466loPI    C2 7442   4.290  14.070   9.908  0.0159  0.1754 -0.0609
  466loPI    C3 7443   4.410  14.317  10.199  0.0722 -0.1248  0.1745
  466loPI   PO4 7444   4.560  14.386   9.607 -0.0024  0.0233 -0.1344
  466loPI   GL1 7445   4.389  13.933   9.408 -0.3572 -0.0107 -0.0715
  466loPI   GL2 7446   4.724  14.015   9.337 -0.1923 -0.1222 -0.0846
  466loPI   C1A 7447   4.173  13.950   8.978  0.2006 -0.1929 -0.0617
  466loPI   C2A 7448   4.132  14.260   8.526 -0.1764  0.2539  0.0974
  466loPI   C3A 7449   4.083  14.255   8.117  0.1614 -0.1610  0.1511
  466loPI   C4A 7450   4.014  14.519   7.747 -0.2277 -0.0854  0.0013
  466loPI   C5A 7451   4.051  14.790   7.368  0.1595 -0.4342  0.0335
  466loPI   C6A 7452   4.118  14.929   6.877  0.3638  0.1474 -0.0014
  466loPI   C1B 7453   4.582  14.268   8.987  0.1523 -0.2464  0.1627
  466loPI   C2B 7454   4.694  14.290   8.544  0.1890  0.0224 -0.2167
  466loPI   C3B 7455   4.802  14.387   8.163 -0.2897 -0.0166  0.2201
  466loPI   C4B 7456   4.938  14.414   7.704 -0.1855 -0.2396 -0.5114
  467loPI    C1 7457  15.171  11.553  11.118 -0.2509 -0.0496 -0.1099
  467loPI    C2 7458  15.273  11.313  11.421  0.0538 -0.0528 -0.2119
  467loPI    C3 7459  15.374  11.700  11.430 -0.3258  0.0478 -0.1065
  467loPI   PO4 7460  15.245  11.463  10.890  0.0323  0.4104  0.0349
  467loPI   GL1 7461  15.279  11.559  10.460  0.1018 -0.1660  0.2223
  467loPI   GL2 7462  14.944  11.703  10.363  0.2618  0.1324  0.1807
  467loPI   C1A 7463  15.484  11.380  10.086  0.1363  0.1058  0.2004
  467loPI   C2A 7464  15.555  11.317   9.626  0.0918  0.2285 -0.1275
  467loPI   C3A 7465  15.462  11.015   9.415  0.0451 -0.0685 -0.2536
  467loPI   C4A 7466  15.471  10.916   9.031 -0.0491 -0.1291  0.2297
  467loPI   C5A 7467  15.428  11.009   8.622 -0.0518  0.1579 -0.0445
  467loPI   C6A 7468  15.700  11.121   8.277  0.0939 -0.0096  0.2479
  467loPI   C1B 7469  15.070  11.650   9.967  0.1841  0.1543  0.0903
  467loPI   C2B 7470  15.060  11.591   9.494  0.2392  0.0307 -0.0940
  467loPI   C3B 7471  15.167  11.343   9.161 -0.0502 -0.0770  0.0417
  467loPI   C4B 7472  14.969  11.266   8.739  0.1097 -0.2973  0.1414
  468loPI    C1 7473   9.624  11.246  10.433 -0.0010 -0.0862  0.1859
  468loPI    C2 7474   9.929  11.398  10.224 -0.2342  0.1871  0.0378
  468loPI    C3 7475   9.992  11.246  10.588  0.1425 -0.1117 -0.1452
  468loPI   PO4 7476   9.566  11.077  10.269  0.2940 -0.1038 -0.2105
  468loPI   GL1 7477   9.719  11.110   9.841 -0.0887  0.1900  0.0758
  468loPI   GL2 7478   9.665  10.880   9.790  0.0975  0.1182 -0.0453
  468loPI   C1A 7479   9.960  11.029   9.440 -0.1098 -0.0545  0.1975
  468loPI   C2A 7480   9.955  10.677   9.042 -0.2016 -0.3626  0.0547
  468loPI   C3A 7481  10.141  10.496   8.752 -0.2021  0.0312 -0.0457
  468loPI   C4A 7482  10.232  10.358   8.324 -0.0960 -0.0866  0.4750
  468loPI   C5A 7483  10.309  10.194   7.948  0.2613  0.2964  0.0579
  468loPI   C6A 7484  10.357   9.736   7.770 -0.2335 -0.1379 -0.1649
  468loPI   C1B 7485   9.594  10.674   9.448 -0.3929  0.0748  0.2692
  468loPI   C2B 7486   9.412  10.777   9.083 -0.0568 -0.3351 -0.3476
  468loPI   C3B 7487   9.290  10.758   8.684  0.1466  0.1040  0.0375
  468loPI   C4B 7488   9.189  10.542   8.389  0.2814  0.4699 -0.0339
  469loPI    C1 7489   1.927   8.966   9.862 -0.2456  0.2333  0.0582
  469loPI    C2 7490   1.561   8.844   9.970 -0.1446 -0.0013  0.1427
  469loPI    C3 7491   1.885   8.664  10.121  0.0101  0.3480  0.2372
  469loPI   PO4 7492   1.915   8.949   9.612 -0.1449  0.4204  0.0561
  469loPI   GL1 7493   1.986   9.072   9.285  0.1095  0.0723 -0.1735
  469loPI   GL2 7494   2.300   9.039   9.164  0.0795  0.2510 -0.1662
  469loPI   C1A 7495   1.862   9.333   8.894  0.1662  0.2893 -0.1631
  469loPI   C2A 7496   1.759   9.406   8.577 -0.0076  0.2198 -0.0762
  469loPI   C3A 7497   1.602   9.234   8.160  0.1785  0.0401 -0.0674
  469loPI   C4A 7498   1.535   9.342   7.731  0.0871 -0.0722 -0.2421
  469loPI   C5A 7499   1.672   9.428   7.392  0.1046  0.0500  0.0493
  469loPI   C6A 7500   1.981   9.189   7.098  0.1264 -0.2258  0.1157
  469loPI   C1B 7501   2.320   8.703   8.747  0.3553  0.0657  0.3110
  469loPI   C2B 7502   2.350   8.333   8.456  0.2806 -0.0343 -0.1923
  469loPI   C3B 7503   2.355   8.302   7.994  0.2000 -0.2008  0.1411
  469loPI   C4B 7504   2.362   8.206   7.552 -0.3521 -0.2404  0.1474
  470loPI    C1 7505  11.666  18.120  10.141  0.0617  0.3136  0.1378
  470loPI    C2 7506  11.433  18.278  10.425  0.0380 -0.0120  0.3046
  470loPI    C3 7507  11.679  17.975  10.514  0.3674  0.1830  0.0799
  470loPI   PO4 7508  11.469  17.998   9.967  0.2733 -0.4020 -0.0524
  470loPI   GL1 7509  11.371  18.168   9.537 -0.0425  0.0482  0.1306
  470loPI   GL2 7510  11.459  18.537   9.418 -0.1533  0.0572 -0.0205
  470loPI   C1A 7511  11.698  17.894   9.302  0.0849  0.0220 -0.1018
  470loPI   C2A 7512  12.016  17.812   8.970  0.0202 -0.1061  0.0015
  470loPI   C3A 7513  12.290  17.539   8.676  0.1623  0.3429 -0.1442
  470loPI   C4A 7514  12.407  17.407   8.267 -0.1385  0.3115  0.4139
  470loPI   C5A 7515  12.685  17.304   7.964  0.1156  0.2248  0.2624
  470loPI   C6A 7516  12.605  17.311   7.516 -0.1061 -0.1108 -0.0050
  470loPI   C1B 7517  11.275  18.456   8.988  0.0269  0.1441 -0.0944
  470loPI   C2B 7518  11.028  18.575   8.695  0.0771 -0.0158 -0.2414
  470loPI   C3B 7519  10.800  18.351   8.414  0.1176  0.0246  0.2706
  470loPI   C4B 7520  10.502  18.067   8.223 -0.2020 -0.0436  0.0700
  471loPI    C1 7521  14.570  16.714  10.173 -0.0255  0.4385 -0.1170
  471loPI    C2 7522  14.452  16.909  10.502 -0.0490  0.0736  0.0968
  471loPI    C3 7523  14.308  16.545  10.423 -0.0088  0.1386 -0.2977
  471loPI   PO4 7524  14.557  16.872   9.863  0.2115  0.1223  0.2005
  471loPI   GL1 7525  14.273  16.939   9.618  0.1846 -0.0486  0.1857
  471loPI   GL2 7526  14.080  16.729   9.792  0.1036 -0.4622  0.0487
  471loPI   C1A 7527  14.448  16.938   9.202 -0.0250 -0.2944 -0.3017
  471loPI   C2A 7528  14.664  16.924   8.949 -0.1911  0.2345  0.0083
  471loPI   C3A 7529  14.887  17.078   8.659 -0.1024 -0.0411  0.1665
  471loPI   C4A 7530  14.996  17.402   8.372 -0.0566  0.1451 -0.4432
  471loPI   C5A 7531  14.840  17.331   7.907  0.1963  0.1302 -0.0572
  471loPI   C6A 7532  14.691  17.042   7.537  0.0872 -0.1192 -0.1710
  471loPI   C1B 7533  14.089  16.528   9.377 -0.2189 -0.2865 -0.0239
  471loPI   C2B 7534  14.069  16.547   9.026 -0.3848  0.3014 -0.0196
  471loPI   C3B 7535  14.134  16.520   8.660  0.1034 -0.2288 -0.2627
  471loPI   C4B 7536  14.457  16.748   8.412 -0.0325  0.4041 -0.4716
  472loPI    C1 7537   7.041   1.261   9.958  0.1336 -0.0991  0.1660
  472loPI    C2 7538   7.049   1.101  10.325  0.2686  0.1949  0.2946
  472loPI    C3 7539   6.842   1.436  10.257  0.0778  0.0325  0.0527
  472loPI   PO4 7540   6.947   1.067   9.729  0.0726 -0.0479  0.1656
  472loPI   GL1 7541   6.772   1.205   9.351  0.2186  0.0281 -0.0035
  472loPI   GL2 7542   6.454   1.073   9.179 -0.3090 -0.0565  0.0669
  472loPI   C1A 7543   7.073   1.384   9.031  0.1450  0.0152 -0.0974
  472loPI   C2A 7544   7.025   1.513   8.671  0.1806 -0.2057  0.0332
  472loPI   C3A 7545   6.921   1.687   8.270  0.4536 -0.3276  0.0169
  472loPI   C4A 7546   7.022   1.720   7.836  0.2221  0.1243 -0.1366
  472loPI   C5A 7547   7.020   1.884   7.367 -0.0624 -0.0901  0.0649
  472loPI   C6A 7548   7.345   2.176   7.265 -0.0803  0.2277 -0.2291
  472loPI   C1B 7549   6.586   1.001   8.831 -0.1629 -0.0032  0.0189
  472loPI   C2B 7550   6.621   0.844   8.458 -0.3471  0.2636 -0.0699
  472loPI   C3B 7551   6.660   0.798   8.055  0.1451  0.0082 -0.1150
  472loPI   C4B 7552   6.573   0.884   7.526 -0.0811  0.3787  0.0704
  473loPI    C1 7553  13.776   4.143  10.511 -0.0088  0.0515  0.1986
  473loPI    C2 7554  13.983   4.305  10.812  0.0870  0.0886  0.1130
  473loPI    C3 7555  13.687   4.511  10.640  0.2617  0.2077 -0.0494
  473loPI   PO4 7556  13.934   4.135  10.333  0.1549  0.2380 -0.2216
  473loPI   GL1 7557  13.984   3.959   9.901  0.1872 -0.0653  0.0928
  473loPI   GL2 7558  14.040   4.235   9.798  0.3188  0.1335  0.2323
  473loPI   C1A 7559  14.069   3.805   9.551  0.2373 -0.0138  0.0249
  473loPI   C2A 7560  13.924   3.854   9.187 -0.1419  0.0065 -0.2867
  473loPI   C3A 7561  13.981   3.966   8.790  0.1323  0.1664  0.0244
  473loPI   C4A 7562  13.927   4.082   8.343  0.0446 -0.2230 -0.0323
  473loPI   C5A 7563  14.047   4.097   7.869  0.0903  0.0720 -0.4248
  473loPI   C6A 7564  14.032   3.711   7.712  0.0097  0.2124  0.1312
  473loPI   C1B 7565  14.303   4.208   9.462  0.0245  0.0654 -0.1794
  473loPI   C2B 7566  14.224   4.406   9.076 -0.3146  0.1474  0.0174
  473loPI   C3B 7567  14.117   4.421   8.680  0.0885 -0.2797 -0.0446
  473loPI   C4B 7568  14.131   4.587   8.328  0.1569  0.0858 -0.0549
  474loPI    C1 7569   6.114   9.039  10.210 -0.1017 -0.1952  0.0120
  474loPI    C2 7570   6.410   9.017  10.479  0.0792 -0.2511 -0.1884
  474loPI    C3 7571   6.087   9.241  10.554  0.0826 -0.3429  0.1154
  474loPI   PO4 7572   6.295   8.944   9.900 -0.0874  0.0910 -0.0865
  474loPI   GL1 7573   6.338   9.185   9.561 -0.1182 -0.1144  0.4819
  474loPI   GL2 7574   6.210   8.996   9.325  0.1197 -0.2535 -0.2430
  474loPI   C1A 7575   6.179   9.547   9.298  0.0440 -0.1831 -0.0161
  474loPI   C2A 7576   6.234   9.782   8.864 -0.1352 -0.1827  0.4005
  474loPI   C3A 7577   5.873   9.865   8.750 -0.2368 -0.0434 -0.1375
  474loPI   C4A 7578   5.513   9.767   8.586  0.3014  0.0437 -0.0627
  474loPI   C5A 7579   5.448   9.593   8.316  0.0473 -0.1111  0.0205
  474loPI   C6A 7580   5.541   9.514   7.865 -0.2825  0.0181 -0.2828
  474loPI   C1B 7581   6.318   9.233   8.930  0.1920  0.1981  0.1186
  474loPI   C2B 7582   6.435   9.297   8.553  0.0267 -0.1548 -0.1488
  474loPI   C3B 7583   6.386   9.254   8.189  0.0732  0.2692 -0.1373
  474loPI   C4B 7584   6.382   9.500   7.922 -0.2453 -0.0099 -0.1087
  475loPI    C1 7585   1.374  14.313  10.221 -0.0749  0.1560  0.0495
  475loPI    C2 7586   1.087  14.553  10.364 -0.1134 -0.0223  0.2781
  475loPI    C3 7587   1.263  14.286  10.604  0.1471 -0.0114  0.1040
  475loPI   PO4 7588   1.306  14.250   9.957  0.2667  0.1381  0.0861
  475loPI   GL1 7589   1.269  14.316   9.588  0.4107  0.0178 -0.2005
  475loPI   GL2 7590   0.966  14.196   9.581  0.1223 -0.0459  0.1565
  475loPI   C1A 7591   1.290  13.975   9.220  0.0531  0.0822 -0.0451
  475loPI   C2A 7592   1.203  13.832   8.854 -0.0974  0.3159 -0.0810
  475loPI   C3A 7593   1.137  13.983   8.460  0.0552  0.1050  0.0388
  475loPI   C4A 7594   1.062  14.110   8.085 -0.1320 -0.1481  0.0084
  475loPI   C5A 7595   0.712  14.262   7.880 -0.1682  0.0327 -0.0807
  475loPI   C6A 7596   0.640  14.542   7.491 -0.0671  0.3601 -0.3191
  475loPI   C1B 7597   0.760  13.822   9.440 -0.0603 -0.0406  0.2059
  475loPI   C2B 7598   0.814  13.631   9.064  0.1195  0.0195  0.1506
  475loPI   C3B 7599   0.839  13.637   8.643  0.3440  0.2142 -0.1099
  475loPI   C4B 7600   0.751  13.592   8.200  0.2352 -0.0791 -0.0530
  476loPI    C1 7601   0.390  11.462  10.466  0.0076 -0.1399 -0.0092
  476loPI    C2 7602   0.364  11.828  10.624 -0.3745 -0.1064 -0.1368
  476loPI    C3 7603   0.611  11.557  10.785 -0.1732  0.1688  0.0280
  476loPI   PO4 7604   0.359  11.507  10.179  0.2496 -0.1254  0.3578
  476loPI   GL1 7605   0.491  11.434   9.792 -0.1620 -0.2569 -0.1529
  476loPI   GL2 7606   0.782  11.627   9.806  0.1272 -0.2325  0.1146
  476loPI   C1A 7607   0.199  11.382   9.525 -0.3309 -0.0403  0.0382
  476loPI   C2A 7608   0.212  11.433   9.149  0.6189  0.1181  0.0229
  476loPI   C3A 7609   0.234  11.467   8.694 -0.3859 -0.2528 -0.3510
  476loPI   C4A 7610   0.333  11.519   8.362  0.0511  0.2298 -0.0626
  476loPI   C5A 7611   0.324  11.610   7.978 -0.1202 -0.2063 -0.1685
  476loPI   C6A 7612   0.082  11.306   7.642  0.3779 -0.2372  0.0039
  476loPI   C1B 7613   0.700  11.601   9.343  0.1338 -0.0304 -0.1058
  476loPI   C2B 7614   0.725  11.535   9.011  0.1015  0.0198 -0.1628
  476loPI   C3B 7615   0.788  11.698   8.632  0.1630  0.1601 -0.1241
  476loPI   C4B 7616   0.736  11.865   8.208 -0.2683  0.3147  0.1425
  477loPI    C1 7617   9.952  10.336  10.460  0.0205 -0.0182 -0.1070
  477loPI    C2 7618  10.199  10.457  10.751  0.0962  0.3039 -0.2997
  477loPI    C3 7619   9.885  10.682  10.650 -0.0979  0.0506 -0.2723
  477loPI   PO4 7620  10.059  10.314  10.262  0.0178 -0.0354 -0.0058
  477loPI   GL1 7621   9.898  10.403   9.844 -0.3213  0.1472  0.0219
  477loPI   GL2 7622  10.138  10.637   9.848 -0.1290  0.1376  0.2423
  477loPI   C1A 7623  10.019  10.202   9.424  0.2513  0.2496 -0.0138
  477loPI   C2A 7624   9.957  10.154   9.063 -0.0875 -0.0538  0.0687
  477loPI   C3A 7625  10.038   9.953   8.592  0.1150 -0.2970  0.1972
  477loPI   C4A 7626  10.013   9.876   8.240  0.0334 -0.3516 -0.1516
  477loPI   C5A 7627   9.783  10.011   8.019  0.2971  0.4705  0.2627
  477loPI   C6A 7628   9.808  10.486   7.830 -0.4444 -0.1077 -0.0768
  477loPI   C1B 7629  10.352  10.694   9.472  0.1594  0.0661  0.1811
  477loPI   C2B 7630  10.363  10.921   9.104 -0.0385  0.1868  0.2076
  477loPI   C3B 7631  10.302  11.015   8.609 -0.0891 -0.1155  0.1057
  477loPI   C4B 7632  10.089  10.863   8.274 -0.2008  0.0512 -0.0895
  478loPI    C1 7633  13.436  10.510  10.800 -0.1070  0.3177  0.2256
  478loPI    C2 7634  13.500  10.203  11.048 -0.0171  0.1642  0.0152
  478loPI    C3 7635  13.243  10.492  11.150 -0.3205 -0.1262  0.0923
  478loPI   PO4 7636  13.444  10.379  10.559 -0.3184 -0.0014 -0.1015
  478loPI   GL1 7637  13.474  10.186  10.221  0.2938  0.0067  0.2496
  478loPI   GL2 7638  13.771  10.458  10.157  0.0102  0.0811 -0.0395
  478loPI   C1A 7639  13.658  10.030   9.805  0.0632 -0.3046 -0.0669
  478loPI   C2A 7640  13.829   9.749   9.589  0.1290  0.2429  0.0998
  478loPI   C3A 7641  13.962   9.733   9.225  0.0505  0.0568  0.0715
  478loPI   C4A 7642  14.015   9.627   8.852 -0.0433 -0.1401  0.1916
  478loPI   C5A 7643  14.078   9.568   8.471  0.1316  0.1356 -0.1646
  478loPI   C6A 7644  14.156   9.508   8.058  0.1384 -0.0487  0.2402
  478loPI   C1B 7645  14.103  10.400   9.796  0.0926  0.3197  0.0919
  478loPI   C2B 7646  14.192  10.339   9.417 -0.2737  0.1253  0.1139
  478loPI   C3B 7647  13.972  10.265   8.956 -0.2673 -0.0075 -0.2446
  478loPI   C4B 7648  13.744  10.037   8.657  0.2678 -0.2678  0.2952
  479loPI    C1 7649   8.037  11.954  10.659 -0.1463 -0.1314 -0.0482
  479loPI    C2 7650   8.266  12.281  10.657 -0.1274 -0.1444 -0.2560
  479loPI    C3 7651   7.909  12.288  10.837 -0.0048 -0.0971 -0.0096
  479loPI   PO4 7652   8.166  11.824  10.365  0.1002  0.0806 -0.2036
  479loPI   GL1 7653   8.037  11.500   9.978 -0.0943  0.0958  0.0697
  479loPI   GL2 7654   7.815  11.489   9.696  0.1405 -0.1083  0.1866
  479loPI   C1A 7655   8.194  11.712   9.556 -0.3218  0.2359  0.0666
  479loPI   C2A 7656   8.486  11.615   9.254  0.0080  0.2844  0.2477
  479loPI   C3A 7657   8.555  11.333   8.860 -0.0760 -0.0650 -0.1011
  479loPI   C4A 7658   8.481  11.144   8.387 -0.0025 -0.3696  0.4143
  479loPI   C5A 7659   8.506  11.338   7.945 -0.2304  0.2215 -0.1483
  479loPI   C6A 7660   8.572  11.407   7.585  0.2255 -0.5942  0.0860
  479loPI   C1B 7661   7.775  11.815   9.251 -0.1872  0.0688 -0.1387
  479loPI   C2B 7662   7.910  11.825   8.802 -0.1272  0.0139  0.3034
  479loPI   C3B 7663   8.136  12.104   8.484 -0.3196 -0.0936  0.0355
  479loPI   C4B 7664   8.225  12.221   8.041  0.0732 -0.3525  0.1648
  480loPI    C1 7665   2.786   1.083  10.085  0.0152  0.0463  0.0243
  480loPI    C2 7666   3.099   0.942  10.288 -0.0483 -0.1570 -0.0162
  480loPI    C3 7667   2.728   0.875  10.421 -0.0786  0.0066 -0.0160
  480loPI   PO4 7668   2.829   1.319  10.027 -0.0053  0.1035 -0.1087
  480loPI   GL1 7669   2.809   1.531   9.563  0.1455 -0.0258  0.0793
  480loPI   GL2 7670   3.095   1.446   9.473 -0.0734  0.1006 -0.1815
  480loPI   C1A 7671   2.661   1.274   9.216  0.1091  0.3709 -0.1618
  480loPI   C2A 7672   2.570   1.303   8.793  0.1387  0.1376 -0.2640
  480loPI   C3A 7673   2.668   1.268   8.234 -0.1080  0.0001  0.0324
  480loPI   C4A 7674   2.768   1.425   7.858 -0.1735 -0.1108  0.0198
  480loPI   C5A 7675   2.670   1.262   7.339 -0.0519  0.0249  0.0211
  480loPI   C6A 7676   2.595   1.173   6.962  0.0169 -0.2947 -0.2419
  480loPI   C1B 7677   3.034   1.472   8.997  0.1052 -0.0010 -0.0465
  480loPI   C2B 7678   3.018   1.436   8.657  0.1155 -0.0372  0.1335
  480loPI   C3B 7679   3.011   1.672   8.318  0.0779  0.0185  0.0492
  480loPI   C4B 7680   2.736   1.970   8.026  0.2721  0.0961 -0.1430
  481loPI    C1 7681  18.142   0.534  10.270 -0.0212 -0.0447  0.1641
  481loPI    C2 7682  18.026   0.845  10.493 -0.0788  0.0665 -0.0179
  481loPI    C3 7683  17.783   0.530  10.447 -0.1161  0.0956 -0.0204
  481loPI   PO4 7684  18.445   0.437  10.362 -0.0899  0.0788 -0.1155
  481loPI   GL1 7685  18.670   0.328   9.932  0.0555  0.3528  0.4503
  481loPI   GL2 7686  18.359   0.463   9.852  0.3722  0.0979 -0.2576
  481loPI   C1A 7687  18.950   0.081   9.557  0.1677 -0.4648  0.0002
  481loPI   C2A 7688  19.115  -0.016   9.166  0.1240 -0.1102  0.0916
  481loPI   C3A 7689  19.196   0.012   8.700 -0.2604  0.2833 -0.2235
  481loPI   C4A 7690  19.021  -0.014   8.259  0.2899 -0.0211 -0.0488
  481loPI   C5A 7691  18.724  -0.023   8.056 -0.0633  0.0113 -0.0827
  481loPI   C6A 7692  18.392  -0.123   7.881  0.0290  0.2047  0.0360
  481loPI   C1B 7693  18.662   0.592   9.567  0.2055 -0.0321  0.0140
  481loPI   C2B 7694  18.633   0.710   9.246 -0.0174  0.2693  0.2129
  481loPI   C3B 7695  18.259   0.722   8.994 -0.5661 -0.1441 -0.1225
  481loPI   C4B 7696  17.900   0.828   8.702 -0.0813 -0.1723  0.2565
  482loPI    C1 7697  15.874  12.354  10.926  0.1444  0.2801 -0.0767
  482loPI    C2 7698  16.181  12.357  11.183  0.1948 -0.0116 -0.1301
  482loPI    C3 7699  15.805  12.348  11.320  0.2083  0.2925 -0.0651
  482loPI   PO4 7700  15.887  12.125  10.791 -0.4955 -0.0080 -0.1413
  482loPI   GL1 7701  16.030  11.984  10.427 -0.0734  0.1251  0.3665
  482loPI   GL2 7702  15.828  11.811  10.312  0.2933 -0.0325 -0.4396
  482loPI   C1A 7703  16.199  12.048  10.097  0.1048  0.1041 -0.2822
  482loPI   C2A 7704  15.962  12.062   9.687  0.1718  0.3504  0.1039
  482loPI   C3A 7705  16.021  12.046   9.237 -0.0781 -0.1113  0.2172
  482loPI   C4A 7706  16.086  12.277   8.854 -0.2915 -0.0190 -0.3463
  482loPI   C5A 7707  15.985  12.155   8.444 -0.1382 -0.0300  0.1608
  482loPI   C6A 7708  15.713  12.374   8.229  0.1251 -0.3203 -0.1385
  482loPI   C1B 7709  15.542  11.794   9.870  0.1952 -0.3619 -0.1250
  482loPI   C2B 7710  15.540  11.791   9.406  0.0971 -0.0527  0.0675
  482loPI   C3B 7711  15.603  11.965   8.986  0.3082  0.2560 -0.1129
  482loPI   C4B 7712  15.397  12.063   8.611 -0.1952 -0.1870 -0.0786
  483loPI    C1 7713   5.785   0.687   9.780  0.0823  0.1404 -0.0737
  483loPI    C2 7714   6.145   0.663   9.952  0.1492 -0.0952 -0.2413
  483loPI    C3 7715   5.816   0.682  10.179  0.2602  0.0188 -0.0878
  483loPI   PO4 7716   5.738   0.445   9.651  0.0639  0.4837  0.1395
  483loPI   GL1 7717   5.794   0.513   9.231  0.1774  0.1832  0.0496
  483loPI   GL2 7718   6.000   0.290   9.208  0.2178  0.1788 -0.3907
  483loPI   C1A 7719   5.540   0.516   8.848 -0.1116 -0.2263  0.3952
  483loPI   C2A 7720   5.458   0.482   8.488 -0.0203  0.4031 -0.0388
  483loPI   C3A 7721   5.251   0.430   8.121  0.2632 -0.2871  0.0537
  483loPI   C4A 7722   5.202   0.549   7.672 -0.1775 -0.0805 -0.5551
  483loPI   C5A 7723   4.822   0.420   7.335 -0.0857 -0.4236  0.0048
  483loPI   C6A 7724   4.501   0.236   7.077  0.3791 -0.1247  0.0887
  483loPI   C1B 7725   5.982   0.416   8.750  0.1958  0.0128 -0.0187
  483loPI   C2B 7726   5.907   0.421   8.270 -0.3442  0.0700  0.1036
  483loPI   C3B 7727   5.687   0.467   7.906  0.1442  0.5694 -0.1777
  483loPI   C4B 7728   5.701   0.506   7.499 -0.2157 -0.1893  0.0997
  484loPI    C1 7729   8.815   5.692  10.270  0.2471  0.1317  0.1521
  484loPI    C2 7730   8.772   6.043  10.457  0.0961  0.0205  0.3299
  484loPI    C3 7731   8.495   5.759  10.501  0.1370 -0.0639  0.0582
  484loPI   PO4 7732   8.969   5.777   9.973 -0.1073 -0.3638 -0.0523
  484loPI   GL1 7733   9.105   5.537   9.663 -0.0049  0.0910 -0.4258
  484loPI   GL2 7734   9.070   5.320   9.341 -0.1266  0.0605 -0.2097
  484loPI   C1A 7735   9.473   5.627   9.542  0.0498 -0.0165  0.0241
  484loPI   C2A 7736   9.670   5.867   9.168  0.2584 -0.0217 -0.0992
  484loPI   C3A 7737   9.709   5.919   8.781  0.0961  0.2777  0.0941
  484loPI   C4A 7738   9.632   6.065   8.360  0.0129  0.0226  0.6063
  484loPI   C5A 7739   9.681   6.284   7.890 -0.2976  0.1136  0.0094
  484loPI   C6A 7740   9.717   6.047   7.480  0.2562 -0.0340  0.0073
  484loPI   C1B 7741   8.972   5.164   8.914  0.1173 -0.1271  0.2826
  484loPI   C2B 7742   9.171   5.165   8.556  0.1602 -0.0173 -0.1294
  484loPI   C3B 7743   9.215   5.059   8.135  0.0068  0.1515 -0.0567
  484loPI   C4B 7744   9.020   4.906   7.872 -0.1575 -0.0761  0.2041
  485loPI    C1 7745  13.588  12.337  10.774 -0.0170 -0.0136  0.1371
  485loPI    C2 7746  13.767  12.015  10.929  0.1961  0.0424  0.0110
  485loPI    C3 7747  13.732  12.348  11.147 -0.1069 -0.0923  0.1746
  485loPI   PO4 7748  13.666  12.343  10.489 -0.2013 -0.3455 -0.0493
  485loPI   GL1 7749  13.555  12.140  10.104 -0.1116 -0.0396  0.1616
  485loPI   GL2 7750  13.545  11.833  10.037 -0.5638  0.2132 -0.0767
  485loPI   C1A 7751  13.753  12.223   9.746  0.3078  0.0734  0.0751
  485loPI   C2A 7752  13.723  12.196   9.383  0.0121  0.1445 -0.0368
  485loPI   C3A 7753  13.721  12.221   8.855 -0.1756  0.1063  0.1261
  485loPI   C4A 7754  13.691  12.190   8.449  0.0809  0.1656  0.3137
  485loPI   C5A 7755  13.840  12.013   8.031 -0.1761 -0.0719 -0.3730
  485loPI   C6A 7756  14.198  12.103   7.749  0.0645 -0.2532 -0.0286
  485loPI   C1B 7757  13.565  11.742   9.646 -0.1690  0.3559 -0.3916
  485loPI   C2B 7758  13.641  11.654   9.228 -0.3402  0.3107  0.3791
  485loPI   C3B 7759  13.705  11.676   8.801  0.0936  0.3222 -0.0033
  485loPI   C4B 7760  13.814  11.703   8.452  0.2749 -0.0656 -0.1328
  486loPI    C1 7761   2.623  14.518  10.259 -0.0569  0.0877  0.0837
  486loPI    C2 7762   2.815  14.433  10.600  0.1426  0.0077 -0.0470
  486loPI    C3 7763   2.754  14.814  10.495  0.2135  0.0337  0.0052
  486loPI   PO4 7764   2.756  14.346  10.032 -0.1172  0.0898  0.2790
  486loPI   GL1 7765   2.651  14.299   9.530  0.0317 -0.0308  0.0017
  486loPI   GL2 7766   2.908  14.416   9.361  0.0621  0.1098  0.1300
  486loPI   C1A 7767   2.431  14.224   9.125  0.2164 -0.2025  0.1334
  486loPI   C2A 7768   2.308  14.184   8.689 -0.1025 -0.1852  0.1105
  486loPI   C3A 7769   2.115  14.193   8.314  0.1896 -0.5040  0.1203
  486loPI   C4A 7770   1.914  14.325   7.973  0.2129  0.0353 -0.5950
  486loPI   C5A 7771   1.580  14.325   7.731  0.1270 -0.0689 -0.0731
  486loPI   C6A 7772   1.185  14.189   7.556  0.0549 -0.2865  0.0887
  486loPI   C1B 7773   2.810  14.493   8.976  0.1723 -0.4297 -0.2999
  486loPI   C2B 7774   2.715  14.520   8.593  0.2926  0.2642  0.0721
  486loPI   C3B 7775   2.762  14.530   8.152  0.1694  0.1938  0.1917
  486loPI   C4B 7776   2.920  14.550   7.665  0.0738 -0.3241  0.0877
  487loPI    C1 7777   5.691   2.676  10.159  0.0154  0.0760  0.0691
  487loPI    C2 7778   5.347   2.880  10.176 -0.1929 -0.2696  0.0944
  487loPI    C3 7779   5.679   3.032  10.340 -0.3719 -0.0105  0.2223
  487loPI   PO4 7780   5.553   2.580   9.869  0.1326  0.0692  0.1294
  487loPI   GL1 7781   5.653   2.459   9.446 -0.2324  0.0143 -0.1223
  487loPI   GL2 7782   5.530   2.756   9.385 -0.1262  0.0690 -0.0845
  487loPI   C1A 7783   5.658   2.204   9.062 -0.0344 -0.2245 -0.2133
  487loPI   C2A 7784   5.637   2.304   8.600  0.1703  0.2170 -0.0813
  487loPI   C3A 7785   5.607   2.234   8.194 -0.0753 -0.1158  0.0768
  487loPI   C4A 7786   5.632   2.430   7.769  0.0066 -0.0729 -0.1498
  487loPI   C5A 7787   5.903   2.566   7.373 -0.0904 -0.0163  0.1254
  487loPI   C6A 7788   5.737   2.850   7.049  0.3011 -0.0809 -0.2659
  487loPI   C1B 7789   5.283   2.531   9.052 -0.1433  0.1825 -0.1797
  487loPI   C2B 7790   5.118   2.331   8.611  0.0473  0.0426  0.0197
  487loPI   C3B 7791   5.135   2.411   8.201  0.0156  0.0530 -0.4841
  487loPI   C4B 7792   5.107   2.504   7.752  0.0537  0.1918 -0.0187
  488loPI    C1 7793  13.229  17.389  10.375  0.0263 -0.0165  0.0499
  488loPI    C2 7794  13.444  17.718  10.451  0.1185 -0.0768  0.0531
  488loPI    C3 7795  13.318  17.487  10.752 -0.3143  0.1855  0.0821
  488loPI   PO4 7796  13.314  17.291  10.118 -0.0496 -0.2189 -0.0789
  488loPI   GL1 7797  13.295  17.229   9.714 -0.0481  0.3910  0.1170
  488loPI   GL2 7798  12.994  17.483   9.777  0.3981 -0.0787  0.1102
  488loPI   C1A 7799  13.464  17.366   9.335  0.0079 -0.1069 -0.1480
  488loPI   C2A 7800  13.634  17.304   8.870  0.3897  0.0385  0.1073
  488loPI   C3A 7801  13.605  17.120   8.403  0.1732  0.0266  0.3720
  488loPI   C4A 7802  13.630  17.123   7.997 -0.0311 -0.0977  0.1668
  488loPI   C5A 7803  13.889  16.995   7.801 -0.0597 -0.2120 -0.0730
  488loPI   C6A 7804  14.329  16.714   7.756  0.4557  0.5169  0.2562
  488loPI   C1B 7805  12.939  17.508   9.383  0.0419 -0.0551  0.2217
  488loPI   C2B 7806  13.145  17.565   9.008 -0.0145  0.2223  0.0928
  488loPI   C3B 7807  13.264  17.510   8.608 -0.0150 -0.0850 -0.0581
  488loPI   C4B 7808  13.284  17.471   8.179  0.1771  0.3837 -0.0790
  489loPI    C1 7809   5.459  16.263   9.646 -0.1175  0.2354 -0.4686
  489loPI    C2 7810   5.841  16.375   9.608 -0.0610  0.2371  0.0363
  489loPI    C3 7811   5.649  16.434   9.954 -0.4478  0.0177 -0.1348
  489loPI   PO4 7812   5.372  16.340   9.436  0.0457  0.0455 -0.0134
  489loPI   GL1 7813   5.333  16.209   9.003 -0.1772 -0.0493  0.0207
  489loPI   GL2 7814   5.251  16.443   8.774 -0.2633 -0.0484  0.0110
  489loPI   C1A 7815   5.383  15.915   8.564  0.0140  0.2548 -0.1949
  489loPI   C2A 7816   5.321  16.040   8.189  0.0487 -0.2614  0.1621
  489loPI   C3A 7817   4.984  16.110   7.966 -0.2472  0.2809 -0.1183
  489loPI   C4A 7818   4.690  16.321   7.852  0.1089 -0.1735  0.0589
  489loPI   C5A 7819   4.479  16.615   7.872  0.2043  0.2036 -0.0893
  489loPI   C6A 7820   4.399  17.007   8.214 -0.0941  0.2815 -0.1181
  489loPI   C1B 7821   5.035  16.441   8.392 -0.4777 -0.2619 -0.0274
  489loPI   C2B 7822   4.877  16.744   8.124  0.4310  0.3782  0.1090
  489loPI   C3B 7823   4.667  17.047   7.746 -0.2976 -0.4480  0.1104
  489loPI   C4B 7824   4.482  17.230   7.400 -0.0737  0.0834  0.2226
  490loPI    C1 7825   7.785   6.400   9.978 -0.0368 -0.0887  0.1708
  490loPI    C2 7826   7.848   6.370  10.372  0.0895 -0.2428  0.1399
  490loPI    C3 7827   7.569   6.143  10.196  0.0353 -0.1763  0.1395
  490loPI   PO4 7828   7.795   6.686   9.869  0.1926 -0.0516 -0.2302
  490loPI   GL1 7829   8.122   6.701   9.582 -0.0326  0.2722 -0.0415
  490loPI   GL2 7830   8.107   7.021   9.666 -0.1171  0.0256  0.1490
  490loPI   C1A 7831   8.240   6.683   9.167  0.2359 -0.1523  0.2187
  490loPI   C2A 7832   8.372   6.528   8.879  0.1247  0.3046  0.3324
  490loPI   C3A 7833   8.447   6.609   8.450  0.1112  0.4357 -0.2923
  490loPI   C4A 7834   8.634   6.452   7.960 -0.2121  0.3063  0.0646
  490loPI   C5A 7835   8.552   6.131   7.591  0.1073 -0.0722  0.0468
  490loPI   C6A 7836   8.402   5.848   7.842  0.0971  0.0453  0.0456
  490loPI   C1B 7837   8.144   7.141   9.263  0.0427 -0.1101 -0.3915
  490loPI   C2B 7838   8.223   7.060   8.850  0.0732  0.1137 -0.0001
  490loPI   C3B 7839   8.137   7.100   8.447 -0.0593  0.0979 -0.3995
  490loPI   C4B 7840   8.308   6.844   8.009 -0.0755  0.3639 -0.1236
  491loPI    C1 7841  11.361   4.282  10.121  0.0054  0.0084 -0.2355
  491loPI    C2 7842  11.687   4.285  10.353 -0.1226 -0.0050 -0.0532
  491loPI    C3 7843  11.323   4.281  10.520 -0.2165 -0.0029 -0.2552
  491loPI   PO4 7844  11.465   4.505   9.960 -0.1883  0.0514  0.0055
  491loPI   GL1 7845  11.811   4.817   9.718  0.0288  0.3027  0.0570
  491loPI   GL2 7846  11.544   4.857   9.567  0.2073  0.4035  0.4087
  491loPI   C1A 7847  11.971   5.148   9.465 -0.0260  0.2699  0.0920
  491loPI   C2A 7848  12.220   5.450   9.162  0.0854  0.1395  0.2446
  491loPI   C3A 7849  12.412   5.658   8.775 -0.0509 -0.0929 -0.2934
  491loPI   C4A 7850  12.488   5.752   8.353 -0.0642 -0.0890 -0.0669
  491loPI   C5A 7851  12.426   5.702   7.947 -0.4259  0.0093 -0.0890
  491loPI   C6A 7852  12.535   5.868   7.459 -0.1600  0.0248  0.0466
  491loPI   C1B 7853  11.552   4.892   9.055  0.0306  0.0506  0.2234
  491loPI   C2B 7854  11.702   5.062   8.655  0.1125 -0.1425 -0.0440
  491loPI   C3B 7855  11.802   5.244   8.255  0.1496  0.1772 -0.1093
  491loPI   C4B 7856  11.722   5.530   7.988  0.1501 -0.2208 -0.0609
  492loPI    C1 7857   1.792   3.933  10.075 -0.1643  0.1749  0.2636
  492loPI    C2 7858   2.108   4.028   9.850 -0.3427 -0.1552 -0.1412
  492loPI    C3 7859   2.118   4.089  10.245  0.1565 -0.0014 -0.1702
  492loPI   PO4 7860   1.567   4.082   9.965 -0.0422 -0.0311 -0.2504
  492loPI   GL1 7861   1.512   4.095   9.617  0.0445 -0.0224  0.2955
  492loPI   GL2 7862   1.705   4.263   9.477 -0.0369 -0.0770 -0.1940
  492loPI   C1A 7863   1.260   4.288   9.231 -0.1804 -0.4250  0.1974
  492loPI   C2A 7864   1.057   4.384   8.734  0.1452 -0.0659  0.1480
  492loPI   C3A 7865   1.038   4.416   8.288  0.0026  0.0148  0.0835
  492loPI   C4A 7866   0.999   4.588   7.844  0.0096  0.3043 -0.3472
  492loPI   C5A 7867   0.710   4.614   7.476 -0.1086  0.2955 -0.1724
  492loPI   C6A 7868   0.512   4.468   7.160 -0.0440  0.5100 -0.0670
  492loPI   C1B 7869   1.696   4.182   9.079 -0.1529  0.2054  0.2065
  492loPI   C2B 7870   1.569   4.375   8.698 -0.2525 -0.0576  0.0894
  492loPI   C3B 7871   1.619   4.460   8.277  0.2995  0.0648 -0.2656
  492loPI   C4B 7872   1.442   4.431   7.995  0.2779  0.1184 -0.0921
  493loPI    C1 7873   2.636   9.726   9.890 -0.0531  0.0398 -0.1328
  493loPI    C2 7874   2.402   9.918  10.152  0.1075  0.0725 -0.0118
  493loPI    C3 7875   2.605   9.593  10.266 -0.2560 -0.2470 -0.2471
  493loPI   PO4 7876   2.478   9.656   9.697  0.1216  0.2134 -0.3015
  493loPI   GL1 7877   2.426   9.509   9.230 -0.0610 -0.1686  0.2509
  493loPI   GL2 7878   2.209   9.513   9.134 -0.0716  0.2442 -0.3301
  493loPI   C1A 7879   2.668   9.538   8.917 -0.0794  0.0329 -0.0389
  493loPI   C2A 7880   2.590   9.575   8.456  0.0017 -0.1096 -0.1313
  493loPI   C3A 7881   2.570   9.626   8.062  0.3045  0.0354  0.2016
  493loPI   C4A 7882   2.397   9.604   7.651  0.2061  0.1781  0.1745
  493loPI   C5A 7883   2.143   9.317   7.530  0.0895 -0.1133  0.0977
  493loPI   C6A 7884   1.858   8.942   7.579  0.0586 -0.1473 -0.1226
  493loPI   C1B 7885   2.297   9.248   8.709  0.2612 -0.0811 -0.0858
  493loPI   C2B 7886   2.034   9.066   8.416 -0.2654  0.2661  0.1732
  493loPI   C3B 7887   2.205   8.914   8.046  0.3312  0.0918  0.0488
  493loPI   C4B 7888   2.323   8.726   7.651 -0.0857 -0.2499 -0.0714
  494loPI    C1 7889   2.645   3.954  10.202  0.0311 -0.0709  0.0070
  494loPI    C2 7890   2.589   4.164  10.538  0.0380 -0.0047 -0.0330
  494loPI    C3 7891   2.836   3.849  10.538  0.0270 -0.0135  0.0274
  494loPI   PO4 7892   2.553   4.197  10.029  0.1226  0.2234  0.1446
  494loPI   GL1 7893   2.600   4.165   9.599 -0.1779 -0.1653  0.1955
  494loPI   GL2 7894   2.303   4.361   9.552  0.3714 -0.0433  0.1033
  494loPI   C1A 7895   2.350   3.975   9.223  0.2989 -0.0740 -0.1689
  494loPI   C2A 7896   2.381   3.732   8.943  0.2912  0.2369 -0.0686
  494loPI   C3A 7897   2.192   3.688   8.547  0.0064 -0.1022  0.0758
  494loPI   C4A 7898   2.285   3.876   8.231  0.0714  0.1124  0.2711
  494loPI   C5A 7899   2.010   3.991   7.847 -0.0261  0.3365  0.0790
  494loPI   C6A 7900   1.869   4.255   7.464  0.2474  0.0865 -0.0529
  494loPI   C1B 7901   2.140   4.404   9.222  0.0528 -0.1855  0.2966
  494loPI   C2B 7902   2.093   4.272   8.748  0.1192 -0.0308 -0.3129
  494loPI   C3B 7903   1.824   4.047   8.466 -0.0370  0.1625  0.1519
  494loPI   C4B 7904   1.830   3.658   8.232 -0.1396  0.0901 -0.0550
  495loPI    C1 7905   7.924   0.994  10.195 -0.0368 -0.1644  0.0945
  495loPI    C2 7906   8.054   0.616  10.185  0.1198 -0.1085 -0.0270
  495loPI    C3 7907   8.190   0.867  10.465  0.2434 -0.0617 -0.1282
  495loPI   PO4 7908   7.998   0.992   9.817 -0.0087  0.0018 -0.2827
  495loPI   GL1 7909   8.230   0.773   9.441  0.1917 -0.1718 -0.0310
  495loPI   GL2 7910   8.508   0.547   9.522  0.0024 -0.2639  0.1249
  495loPI   C1A 7911   8.055   0.622   9.083  0.1324  0.0311  0.1653
  495loPI   C2A 7912   7.940   0.688   8.665  0.0656 -0.0943  0.3014
  495loPI   C3A 7913   7.843   0.604   8.250  0.5751 -0.3919 -0.1569
  495loPI   C4A 7914   7.646   0.560   7.882 -0.0891  0.1154  0.0472
  495loPI   C5A 7915   7.650   0.175   7.452  0.1805  0.0076  0.0785
  495loPI   C6A 7916   8.020  -0.138   7.404  0.0896  0.2341 -0.1846
  495loPI   C1B 7917   8.365   0.302   9.098  0.1820  0.1042 -0.0857
  495loPI   C2B 7918   8.346   0.421   8.670 -0.0440 -0.1796  0.0088
  495loPI   C3B 7919   8.371   0.327   8.191 -0.0668  0.1647 -0.0050
  495loPI   C4B 7920   8.592   0.577   7.909  0.4159 -0.2450  0.1645
  496loPI    C1 7921  16.942   2.065  10.079 -0.2076  0.1611 -0.1056
  496loPI    C2 7922  16.866   1.679  10.150  0.0299  0.1114 -0.1129
  496loPI    C3 7923  16.964   1.922  10.452  0.0966  0.1161 -0.1381
  496loPI   PO4 7924  17.020   2.206   9.930 -0.1851 -0.2061  0.0380
  496loPI   GL1 7925  17.195   2.313   9.603 -0.0332 -0.4188  0.0191
  496loPI   GL2 7926  17.448   2.134   9.597  0.3441  0.3623 -0.0320
  496loPI   C1A 7927  16.939   2.222   9.273  0.3090 -0.3525  0.0847
  496loPI   C2A 7928  16.537   2.265   8.894 -0.3088 -0.3651  0.1679
  496loPI   C3A 7929  16.584   2.260   8.437  0.1458  0.4018  0.0909
  496loPI   C4A 7930  16.440   2.275   8.046 -0.0531  0.1488  0.0130
  496loPI   C5A 7931  16.161   2.140   7.699 -0.2204 -0.1356  0.0851
  496loPI   C6A 7932  16.103   1.740   7.443  0.2135  0.0608  0.0107
  496loPI   C1B 7933  17.504   2.206   9.155  0.0062 -0.0592  0.1282
  496loPI   C2B 7934  17.421   2.299   8.631 -0.1483  0.1741 -0.0928
  496loPI   C3B 7935  17.519   2.129   8.298 -0.0045 -0.3067  0.0013
  496loPI   C4B 7936  17.565   2.177   7.871 -0.3077  0.1359  0.1676
  497loPI    C1 7937  12.192  15.264  10.603 -0.1704 -0.1925 -0.0582
  497loPI    C2 7938  11.834  15.205  10.772 -0.1708 -0.0304 -0.0011
  497loPI    C3 7939  12.078  15.489  10.913 -0.1240  0.0306 -0.2010
  497loPI   PO4 7940  12.098  15.124  10.340 -0.1227 -0.1026 -0.0084
  497loPI   GL1 7941  11.956  15.410   9.898 -0.3933  0.1948 -0.2134
  497loPI   GL2 7942  11.811  15.129   9.927  0.1406  0.0420 -0.3233
  497loPI   C1A 7943  12.028  15.539   9.471 -0.0823  0.0696 -0.2869
  497loPI   C2A 7944  12.278  15.460   9.129 -0.2273  0.2453 -0.0016
  497loPI   C3A 7945  12.468  15.572   8.826  0.1385  0.0788  0.1271
  497loPI   C4A 7946  12.362  15.420   8.411  0.3009  0.3037 -0.1040
  497loPI   C5A 7947  12.517  15.681   8.123 -0.2298  0.0660  0.0886
  497loPI   C6A 7948  12.947  15.646   8.036 -0.4255 -0.0106 -0.0505
  497loPI   C1B 7949  11.867  15.089   9.484  0.0985 -0.0123  0.0239
  497loPI   C2B 7950  12.002  15.074   9.078 -0.2298 -0.1034 -0.4067
  497loPI   C3B 7951  11.933  15.164   8.649 -0.1786 -0.0244 -0.0410
  497loPI   C4B 7952  12.154  15.015   8.246 -0.0977 -0.0870  0.1300
  498loPI    C1 7953  18.217  17.033  10.395  0.2873 -0.0220 -0.1732
  498loPI    C2 7954  18.576  16.949  10.549  0.1967  0.0845  0.1006
  498loPI    C3 7955  18.251  16.941  10.782  0.0424  0.1460 -0.1095
  498loPI   PO4 7956  18.301  17.003  10.157 -0.1593  0.3751  0.0650
  498loPI   GL1 7957  18.254  16.741   9.891  0.0644  0.0130 -0.0995
  498loPI   GL2 7958  18.308  16.863   9.692 -0.4268 -0.0108  0.0534
  498loPI   C1A 7959  18.036  16.361   9.618  0.2049 -0.3618 -0.3054
  498loPI   C2A 7960  17.935  16.269   9.215 -0.2557  0.0849 -0.0801
  498loPI   C3A 7961  18.004  16.127   8.820 -0.1171 -0.0047  0.3528
  498loPI   C4A 7962  17.858  15.975   8.395 -0.1609 -0.0151 -0.1615
  498loPI   C5A 7963  17.788  15.837   7.985 -0.0293  0.0691  0.1909
  498loPI   C6A 7964  17.439  15.438   7.822  0.1416 -0.0479 -0.2986
  498loPI   C1B 7965  18.109  16.784   9.323 -0.1600  0.0736  0.3917
  498loPI   C2B 7966  17.952  16.788   8.905  0.2320  0.4449 -0.0497
  498loPI   C3B 7967  17.732  16.508   8.555  0.2698  0.1041 -0.1235
  498loPI   C4B 7968  17.902  16.405   8.211 -0.0588  0.2990 -0.0153
  499loPI    C1 7969  12.565   6.966  10.551  0.0288  0.0311  0.0829
  499loPI    C2 7970  12.610   6.644  10.318  0.1985 -0.0643  0.2457
  499loPI    C3 7971  12.427   6.611  10.672 -0.1402  0.0981  0.0899
  499loPI   PO4 7972  12.702   7.166  10.456 -0.1307  0.3154  0.1230
  499loPI   GL1 7973  12.632   7.395  10.096  0.0911  0.0207  0.0667
  499loPI   GL2 7974  12.379   7.100  10.016 -0.1889  0.0172 -0.0262
  499loPI   C1A 7975  12.606   7.250   9.542 -0.1571  0.0551 -0.0208
  499loPI   C2A 7976  12.555   7.276   9.066 -0.1923 -0.1007  0.1388
  499loPI   C3A 7977  12.823   7.045   8.862 -0.2356  0.2527 -0.0298
  499loPI   C4A 7978  12.972   6.678   8.631 -0.4510 -0.0449  0.0800
  499loPI   C5A 7979  13.397   6.746   8.447  0.1970  0.2005  0.2030
  499loPI   C6A 7980  13.613   6.921   8.094 -0.0610 -0.0206 -0.3436
  499loPI   C1B 7981  12.594   6.903   9.856 -0.0858  0.0283  0.1001
  499loPI   C2B 7982  12.800   6.553   9.776  0.0973 -0.0561 -0.1551
  499loPI   C3B 7983  13.018   6.239   9.706 -0.0699 -0.3383  0.0368
  499loPI   C4B 7984  13.009   5.768   9.599  0.0261 -0.3483  0.0296
  500loPI    C1 7985  15.412   9.138  11.032  0.1210  0.2414 -0.1446
  500loPI    C2 7986  15.060   9.315  11.103  0.0046 -0.0253 -0.0431
  500loPI    C3 7987  15.401   9.506  11.189 -0.1156  0.1938 -0.0446
  500loPI   PO4 7988  15.418   9.058  10.857 -0.3054  0.1990  0.2370
  500loPI   GL1 7989  15.582   9.094  10.422  0.3637  0.0062  0.3286
  500loPI   GL2 7990  15.569   9.352  10.346 -0.2515 -0.0734  0.2348
  500loPI   C1A 7991  15.676   8.879   9.981  0.1238  0.0218 -0.0497
  500loPI   C2A 7992  15.872   8.649   9.610  0.0986 -0.0978 -0.1950
  500loPI   C3A 7993  15.846   8.770   9.179 -0.0453 -0.0063 -0.4588
  500loPI   C4A 7994  15.912   8.675   8.767 -0.1591  0.0747  0.2708
  500loPI   C5A 7995  16.061   8.790   8.321  0.1689  0.1476  0.0335
  500loPI   C6A 7996  16.278   9.072   8.102 -0.2114 -0.3765 -0.3039
  500loPI   C1B 7997  15.784   9.414   9.953  0.1425 -0.1886 -0.0032
  500loPI   C2B 7998  15.847   9.255   9.525 -0.2397 -0.0822 -0.0153
  500loPI   C3B 7999  16.113   9.274   9.126  0.2009  0.2169 -0.0440
  500loPI   C4B 8000  16.201   9.137   8.645 -0.3316  0.1897 -0.3289
  501loPI    C1 8001   5.754   9.406  10.108  0.1011 -0.0643  0.1352
  501loPI    C2 8002   5.992   9.459   9.791  0.1469  0.0744  0.1917
  501loPI    C3 8003   6.106   9.591  10.151 -0.0008  0.1115  0.2255
  501loPI   PO4 8004   5.471   9.393   9.851 -0.0995 -0.0257 -0.2021
  501loPI   GL1 8005   5.508   9.234   9.366  0.0820 -0.3037 -0.0321
  501loPI   GL2 8006   5.667   9.609   9.430  0.1254  0.0483  0.3685
  501loPI   C1A 8007   5.390   9.291   8.982  0.2022 -0.2532 -0.0317
  501loPI   C2A 8008   5.350   9.117   8.557 -0.0495 -0.0686 -0.1959
  501loPI   C3A 8009   5.576   9.088   8.176 -0.0730 -0.0926  0.0331
  501loPI   C4A 8010   5.513   9.033   7.709  0.0370  0.1451 -0.0573
  501loPI   C5A 8011   5.443   9.119   7.247 -0.1690 -0.0517 -0.0722
  501loPI   C6A 8012   5.245   9.023   6.883 -0.1816 -0.0712 -0.1646
  501loPI   C1B 8013   5.829   9.443   8.994  0.0026 -0.0761 -0.1891
  501loPI   C2B 8014   5.822   9.374   8.580  0.1099 -0.2244 -0.4829
  501loPI   C3B 8015   5.906   9.411   8.201  0.0398  0.1758  0.1956
  501loPI   C4B 8016   5.947   9.696   7.741  0.1861 -0.3151  0.1191
  502loPI    C1 8017  16.406  10.648  10.698 -0.1205  0.0729 -0.1622
  502loPI    C2 8018  16.214  10.376  10.477 -0.2898  0.0463  0.0147
  502loPI    C3 8019  16.148  10.396  10.871 -0.0777  0.1694  0.0457
  502loPI   PO4 8020  16.627  10.697  10.603  0.2069 -0.1532 -0.2746
  502loPI   GL1 8021  16.705  10.551  10.262  0.0973  0.0053  0.1242
  502loPI   GL2 8022  16.804  10.452  10.084  0.1308 -0.1883 -0.1442
  502loPI   C1A 8023  16.422  10.667   9.859 -0.1165  0.3110  0.0369
  502loPI   C2A 8024  16.306  10.635   9.421  0.1459 -0.2874 -0.1569
  502loPI   C3A 8025  16.308  10.654   9.006 -0.1674 -0.0840 -0.0901
  502loPI   C4A 8026  16.350  10.767   8.619 -0.1840  0.0610  0.0440
  502loPI   C5A 8027  16.659  10.635   8.403  0.3929  0.1486 -0.2194
  502loPI   C6A 8028  16.922  10.325   8.260 -0.0932 -0.1874 -0.2154
  502loPI   C1B 8029  16.852  10.369   9.689 -0.0217 -0.1196  0.0994
  502loPI   C2B 8030  17.123  10.444   9.335  0.0769  0.1178  0.0053
  502loPI   C3B 8031  17.316  10.593   8.978 -0.1402  0.0376  0.0274
  502loPI   C4B 8032  17.177  10.665   8.569 -0.0586 -0.0659 -0.1241
  503loPI    C1 8033   4.859  16.469   9.892  0.1302 -0.3415  0.1152
  503loPI    C2 8034   5.207  16.622  10.015 -0.0329  0.0863  0.0590
  503loPI    C3 8035   5.043  16.316  10.213  0.2586  0.0345  0.2259
  503loPI   PO4 8036   4.870  16.495   9.641  0.2942  0.3074 -0.0710
  503loPI   GL1 8037   4.887  16.208   9.323  0.1151 -0.2584 -0.1389
  503loPI   GL2 8038   5.028  15.923   9.209 -0.1050  0.2673  0.2381
  503loPI   C1A 8039   4.800  16.199   8.809  0.2452 -0.1146 -0.1987
  503loPI   C2A 8040   4.897  15.974   8.434 -0.3001 -0.1764  0.0428
  503loPI   C3A 8041   4.570  15.880   8.128  0.0780 -0.0086  0.1033
  503loPI   C4A 8042   4.540  15.799   7.726  0.1151 -0.1352  0.0232
  503loPI   C5A 8043   4.805  15.923   7.451  0.0287  0.1379 -0.0975
  503loPI   C6A 8044   5.055  16.218   7.382  0.1379 -0.4704 -0.2100
  503loPI   C1B 8045   5.000  15.665   8.782  0.2251 -0.1136  0.2918
  503loPI   C2B 8046   4.814  15.471   8.450 -0.0473  0.0674 -0.0325
  503loPI   C3B 8047   4.829  15.479   7.940  0.3383  0.4990  0.3770
  503loPI   C4B 8048   4.948  15.492   7.600  0.1403 -0.4141 -0.1722
  504loPI    C1 8049   0.133   4.187  10.551 -0.0908 -0.0212  0.0923
  504loPI    C2 8050  -0.190   3.953  10.540 -0.0930 -0.0208  0.1488
  504loPI    C3 8051   0.129   3.843  10.755 -0.1474  0.0959  0.2904
  504loPI   PO4 8052   0.087   4.298  10.276 -0.0232 -0.0478 -0.1354
  504loPI   GL1 8053  -0.021   4.357   9.888 -0.0617 -0.0333 -0.0970
  504loPI   GL2 8054   0.239   4.171   9.758 -0.0359 -0.1118 -0.0932
  504loPI   C1A 8055  -0.452   4.160   9.701 -0.1529 -0.1465  0.1933
  504loPI   C2A 8056  -0.541   4.063   9.261 -0.2050  0.0451  0.1067
  504loPI   C3A 8057  -0.548   3.820   8.794 -0.3106 -0.0215 -0.0980
  504loPI   C4A 8058  -0.483   3.629   8.408 -0.0364  0.4309 -0.0169
  504loPI   C5A 8059  -0.298   3.339   8.112  0.1065  0.3190 -0.0045
  504loPI   C6A 8060  -0.155   2.923   7.865  0.2367  0.3413 -0.0052
  504loPI   C1B 8061  -0.056   3.948   9.528  0.3003 -0.5220  0.2179
  504loPI   C2B 8062  -0.077   3.873   9.078  0.0241  0.0401 -0.2067
  504loPI   C3B 8063  -0.099   3.840   8.631 -0.1993  0.0393  0.1861
  504loPI   C4B 8064  -0.186   4.024   8.333  0.1565  0.1843 -0.2314
  505loPI    C1 8065  18.154   6.271  10.337  0.2005  0.0401 -0.0404
  505loPI    C2 8066  18.112   6.071  10.681 -0.0714 -0.1325 -0.1704
  505loPI    C3 8067  18.402   6.343  10.642 -0.0964 -0.0435  0.2265
  505loPI   PO4 8068  18.091   5.993  10.169  0.1548 -0.0596  0.1473
  505loPI   GL1 8069  17.956   5.891   9.771  0.0500  0.0205 -0.3451
  505loPI   GL2 8070  17.679   6.044   9.621 -0.0527  0.3352 -0.2498
  505loPI   C1A 8071  17.830   5.673   9.345  0.0511  0.1368 -0.2162
  505loPI   C2A 8072  18.061   5.637   9.000  0.0892  0.2567  0.1050
  505loPI   C3A 8073  18.363   5.420   8.598  0.3766 -0.2771 -0.2326
  505loPI   C4A 8074  18.489   5.293   8.127 -0.0459 -0.2836 -0.0178
  505loPI   C5A 8075  18.465   5.118   7.693  0.1291  0.0687 -0.0198
  505loPI   C6A 8076  18.494   4.722   7.691 -0.0485  0.0043  0.0678
  505loPI   C1B 8077  17.996   6.082   9.246 -0.5019  0.0114  0.0089
  505loPI   C2B 8078  17.989   6.047   8.820  0.0716 -0.3273  0.4236
  505loPI   C3B 8079  17.869   5.887   8.380  0.2545  0.4506 -0.2125
  505loPI   C4B 8080  17.907   5.773   7.878 -0.3488 -0.1621  0.1590
  506loPI    C1 8081   2.681   6.333  10.250 -0.0376  0.0579  0.0022
  506loPI    C2 8082   2.881   6.618  10.446 -0.0773 -0.0655  0.2253
  506loPI    C3 8083   2.959   6.233  10.519  0.0009 -0.1144 -0.1001
  506loPI   PO4 8084   2.688   6.302   9.892 -0.3369 -0.2746  0.1096
  506loPI   GL1 8085   2.799   6.380   9.479  0.0466  0.0720 -0.3223
  506loPI   GL2 8086   2.469   6.260   9.351 -0.2744 -0.2156  0.1159
  506loPI   C1A 8087   2.900   6.596   9.072 -0.1053 -0.1540 -0.0622
  506loPI   C2A 8088   2.797   6.459   8.680  0.3392  0.0553 -0.0640
  506loPI   C3A 8089   3.020   6.141   8.420  0.0285 -0.0166 -0.1215
  506loPI   C4A 8090   3.225   6.114   7.914  0.0366  0.0046  0.0917
  506loPI   C5A 8091   3.548   6.005   7.639  0.1047 -0.0439  0.0506
  506loPI   C6A 8092   3.967   5.936   7.450  0.0883 -0.0845  0.1991
  506loPI   C1B 8093   2.681   6.135   8.991  0.1769  0.3056  0.0179
  506loPI   C2B 8094   2.547   6.021   8.458  0.4265  0.0875  0.3053
  506loPI   C3B 8095   2.670   6.108   7.963 -0.1504  0.0208 -0.2234
  506loPI   C4B 8096   2.724   6.372   7.585  0.2352 -0.0249 -0.1781
  507loPI    C1 8097  18.033  11.029  10.343  0.2220  0.1306 -0.0026
  507loPI    C2 8098  18.287  10.918  10.631  0.1600 -0.2258 -0.0806
  507loPI    C3 8099  18.074  10.642  10.435  0.1500  0.0182 -0.4220
  507loPI   PO4 8100  18.226  11.240  10.170 -0.0190 -0.1563 -0.2379
  507loPI   GL1 8101  18.466  11.309   9.750 -0.2700 -0.1164 -0.0518
  507loPI   GL2 8102  18.137  11.450   9.757  0.1127 -0.0157  0.2853
  507loPI   C1A 8103  18.506  11.503   9.453  0.0996 -0.1590  0.1998
  507loPI   C2A 8104  18.463  11.465   9.007 -0.0402 -0.1937  0.0204
  507loPI   C3A 8105  18.251  11.340   8.587  0.0739  0.1184 -0.1823
  507loPI   C4A 8106  17.968  11.119   8.420  0.1154 -0.0197 -0.0333
  507loPI   C5A 8107  17.860  10.705   8.210 -0.0642  0.0362  0.1289
  507loPI   C6A 8108  17.878  10.388   8.020  0.0887  0.0445 -0.1345
  507loPI   C1B 8109  18.068  11.402   9.245  0.1938 -0.2075  0.1282
  507loPI   C2B 8110  17.891  11.309   8.880  0.0559 -0.0319  0.0286
  507loPI   C3B 8111  17.680  11.552   8.610  0.0520  0.0091  0.0279
  507loPI   C4B 8112  17.549  11.905   8.579  0.1194  0.0646  0.0212
  508loPI    C1 8113  16.340   1.626  10.266 -0.1677 -0.0194  0.0279
  508loPI    C2 8114  16.259   1.384  10.574  0.4658 -0.3712 -0.0625
  508loPI    C3 8115  16.585   1.616  10.582  0.4062 -0.2697 -0.4053
  508loPI   PO4 8116  16.232   1.451  10.112 -0.1324  0.2430 -0.1907
  508loPI   GL1 8117  16.175   1.245   9.754  0.1143 -0.1694 -0.0558
  508loPI   GL2 8118  15.787   1.130   9.840 -0.3395 -0.0091  0.0042
  508loPI   C1A 8119  16.181   1.015   9.416 -0.0071 -0.4038 -0.1104
  508loPI   C2A 8120  16.192   0.933   9.041  0.1479  0.2133  0.0770
  508loPI   C3A 8121  16.110   0.814   8.671  0.0378  0.0507 -0.0421
  508loPI   C4A 8122  16.023   0.589   8.175  0.0671 -0.2488  0.1945
  508loPI   C5A 8123  16.148   0.488   7.778  0.0978 -0.0399 -0.0044
  508loPI   C6A 8124  16.243   0.301   7.433 -0.0144 -0.3416  0.0753
  508loPI   C1B 8125  15.713   1.293   9.446 -0.0677 -0.1112  0.1999
  508loPI   C2B 8126  15.920   1.383   9.067 -0.0182  0.2426  0.0319
  508loPI   C3B 8127  16.083   1.644   8.813  0.1745 -0.1521  0.1239
  508loPI   C4B 8128  16.216   1.584   8.386  0.0801 -0.1112  0.3697
  509loPI    C1 8129   0.997  18.281  10.392  0.1708  0.1937 -0.0478
  509loPI    C2 8130   1.061  18.444  10.751  0.0258 -0.0161  0.0750
  509loPI    C3 8131   0.758  18.188  10.699 -0.0470  0.1287 -0.2343
  509loPI   PO4 8132   0.978  18.389  10.220  0.0584 -0.1330  0.0029
  509loPI   GL1 8133   1.119  18.514   9.782 -0.1976  0.1892  0.4162
  509loPI   GL2 8134   1.030  18.704   9.816  0.0238 -0.0887  0.2729
  509loPI   C1A 8135   1.031  18.229   9.365  0.2719 -0.2613  0.1635
  509loPI   C2A 8136   1.002  18.124   8.868  0.0518 -0.1593 -0.2092
  509loPI   C3A 8137   0.894  18.202   8.438  0.0443  0.2232 -0.1773
  509loPI   C4A 8138   0.822  17.856   8.284  0.0594  0.0472  0.0814
  509loPI   C5A 8139   0.704  17.493   7.965  0.1212  0.2789  0.0717
  509loPI   C6A 8140   0.506  17.409   7.487  0.0148  0.2078 -0.1098
  509loPI   C1B 8141   1.170  18.754   9.369 -0.1623 -0.2580  0.0288
  509loPI   C2B 8142   1.305  18.803   9.088  0.1722  0.0281  0.1686
  509loPI   C3B 8143   1.370  18.927   8.701  0.2406 -0.2796 -0.1289
  509loPI   C4B 8144   1.543  18.938   8.169 -0.1970  0.3215 -0.1510
  510loPI    C1 8145   4.593  16.789   9.341  0.0345 -0.1290  0.0064
  510loPI    C2 8146   4.912  16.680   9.126  0.0683 -0.1452  0.0644
  510loPI    C3 8147   4.792  17.061   9.126  0.1482 -0.1195  0.1217
  510loPI   PO4 8148   4.460  16.519   9.236 -0.0219 -0.1994 -0.0021
  510loPI   GL1 8149   4.228  16.307   8.881 -0.2984  0.0856  0.2089
  510loPI   GL2 8150   4.217  16.605   8.839 -0.0212  0.0851 -0.0840
  510loPI   C1A 8151   4.155  16.069   8.501  0.0174  0.0742  0.2087
  510loPI   C2A 8152   4.152  16.136   8.105  0.1868  0.0782  0.2395
  510loPI   C3A 8153   4.211  16.163   7.709 -0.2791 -0.1033  0.1999
  510loPI   C4A 8154   4.299  16.003   7.320 -0.1886 -0.1215  0.2145
  510loPI   C5A 8155   4.029  15.761   7.062 -0.1754 -0.0498 -0.0470
  510loPI   C6A 8156   4.046  15.461   6.758  0.0438  0.1639  0.1044
  510loPI   C1B 8157   4.140  16.563   8.392 -0.3662  0.2994 -0.1227
  510loPI   C2B 8158   4.023  16.725   7.987 -0.1755 -0.0425  0.1001
  510loPI   C3B 8159   3.782  16.621   7.690 -0.0776  0.0058 -0.1304
  510loPI   C4B 8160   3.538  16.960   7.418 -0.2261 -0.2127  0.0646
  511loPI    C1 8161  16.734  10.221  10.594  0.1095 -0.0320 -0.0265
  511loPI    C2 8162  16.671  10.235  10.989 -0.0689 -0.0253 -0.0543
  511loPI    C3 8163  16.491   9.954  10.768 -0.1250  0.0920 -0.1586
  511loPI   PO4 8164  17.009  10.210  10.473 -0.0992 -0.1900 -0.0486
  511loPI   GL1 8165  17.125  10.052  10.108 -0.0238 -0.1913  0.0889
  511loPI   GL2 8166  16.940   9.799  10.164  0.0247  0.0236 -0.2776
  511loPI   C1A 8167  17.352   9.984   9.681 -0.0199 -0.1704  0.2006
  511loPI   C2A 8168  17.466  10.152   9.304 -0.1911  0.0494 -0.1589
  511loPI   C3A 8169  17.650  10.192   8.850 -0.1109 -0.1704 -0.0773
  511loPI   C4A 8170  17.620  10.331   8.465 -0.2076  0.0849  0.1651
  511loPI   C5A 8171  17.400  10.332   8.068 -0.1457 -0.3659  0.2148
  511loPI   C6A 8172  17.092  10.447   7.744  0.3059 -0.0211  0.2285
  511loPI   C1B 8173  16.636   9.939   9.827  0.3101  0.1266 -0.2067
  511loPI   C2B 8174  16.556  10.053   9.498  0.3525  0.0244  0.1067
  511loPI   C3B 8175  16.645  10.373   9.185  0.2654  0.1118  0.2147
  511loPI   C4B 8176  16.761  10.633   8.878 -0.3562  0.2561 -0.2560
  512loPI    C1 8177   5.768  18.281   9.846  0.1720  0.1378 -0.0015
  512loPI    C2 8178   6.149  18.312   9.963  0.2278  0.0673 -0.1619
  512loPI    C3 8179   5.915  18.636   9.957  0.1699  0.0419  0.3190
  512loPI   PO4 8180   5.771  18.173   9.542 -0.1993 -0.0296 -0.3686
  512loPI   GL1 8181   5.801  18.393   9.154  0.1033 -0.1887  0.3261
  512loPI   GL2 8182   5.667  18.006   9.085 -0.1810 -0.2714  0.0250
  512loPI   C1A 8183   5.766  18.666   8.908  0.2349  0.1141 -0.0096
  512loPI   C2A 8184   5.620  18.814   8.599  0.3393 -0.4573  0.0736
  512loPI   C3A 8185   5.597  18.781   8.143  0.0166  0.0461  0.1279
  512loPI   C4A 8186   5.455  18.851   7.768 -0.0653 -0.0177 -0.2436
  512loPI   C5A 8187   5.363  18.925   7.364  0.0975 -0.2316 -0.1079
  512loPI   C6A 8188   5.274  19.360   7.142 -0.3588  0.0618 -0.2271
  512loPI   C1B 8189   5.618  17.976   8.711 -0.1176 -0.0650 -0.0118
  512loPI   C2B 8190   5.653  18.321   8.412  0.1710  0.0767 -0.0871
  512loPI   C3B 8191   5.607  18.357   7.912 -0.0899  0.2323 -0.1137
  512loPI   C4B 8192   5.369  18.326   7.673  0.1244  0.2366  0.5433
  513loPI    C1 8193   1.547  10.233  10.353  0.1410  0.0231  0.1316
  513loPI    C2 8194   1.505   9.844  10.271  0.0882  0.0181  0.1818
  513loPI    C3 8195   1.600   9.962  10.641  0.4011  0.0367  0.0991
  513loPI   PO4 8196   1.613  10.364  10.064  0.0656 -0.0152  0.2014
  513loPI   GL1 8197   1.596  10.409   9.729  0.0496 -0.1885  0.0431
  513loPI   GL2 8198   1.349  10.403   9.545 -0.2618 -0.0340  0.0839
  513loPI   C1A 8199   1.641  10.516   9.181  0.0463 -0.2673 -0.0403
  513loPI   C2A 8200   1.659  10.586   8.703 -0.2966  0.2471  0.0083
  513loPI   C3A 8201   1.633  10.655   8.288  0.1122 -0.1522 -0.3421
  513loPI   C4A 8202   1.985  10.724   8.034  0.0843 -0.0159 -0.0840
  513loPI   C5A 8203   2.378  10.478   7.937 -0.0247 -0.2734 -0.0398
  513loPI   C6A 8204   2.810  10.468   7.824  0.0917 -0.1599 -0.1028
  513loPI   C1B 8205   1.242  10.318   9.211  0.0962  0.0165 -0.0658
  513loPI   C2B 8206   1.278  10.244   8.777 -0.2046 -0.0803 -0.1508
  513loPI   C3B 8207   1.500  10.169   8.460 -0.2650 -0.0917 -0.3172
  513loPI   C4B 8208   1.778  10.212   8.179 -0.0318  0.2240 -0.1986
  514loPI    C1 8209   4.240  13.582  10.057 -0.0025  0.0189 -0.0403
  514loPI    C2 8210   3.942  13.340  10.169 -0.1113 -0.0250 -0.4100
  514loPI    C3 8211   3.920  13.732  10.245  0.1508 -0.1426  0.3592
  514loPI   PO4 8212   4.256  13.535   9.711  0.6066 -0.3594  0.0910
  514loPI   GL1 8213   4.301  13.292   9.393 -0.3395  0.0029  0.1831
  514loPI   GL2 8214   4.389  13.010   9.470 -0.2161 -0.1727  0.3299
  514loPI   C1A 8215   4.323  13.331   8.876 -0.1624  0.1263 -0.3091
  514loPI   C2A 8216   4.351  13.449   8.445  0.1021  0.3176 -0.0870
  514loPI   C3A 8217   4.532  13.513   8.036  0.2724  0.0917 -0.2109
  514loPI   C4A 8218   4.615  13.514   7.628  0.3225 -0.0831 -0.4769
  514loPI   C5A 8219   4.174  13.576   7.465  0.3174  0.1020  0.0790
  514loPI   C6A 8220   3.816  13.539   7.170  0.0239 -0.0346  0.1102
  514loPI   C1B 8221   4.769  13.101   9.191 -0.0856 -0.2804 -0.0103
  514loPI   C2B 8222   4.892  13.268   8.767 -0.2439 -0.1774 -0.2343
  514loPI   C3B 8223   4.869  13.478   8.367 -0.0431 -0.4357  0.1530
  514loPI   C4B 8224   4.996  13.497   7.907  0.1392 -0.0243  0.1715
  515loPI    C1 8225   6.589  14.668   9.804 -0.1934 -0.0158 -0.0654
  515loPI    C2 8226   6.340  14.460   9.571 -0.1074  0.3538 -0.5015
  515loPI    C3 8227   6.196  14.739   9.818 -0.2030 -0.0690 -0.0640
  515loPI   PO4 8228   6.768  14.837   9.751 -0.1376  0.1736  0.1882
  515loPI   GL1 8229   6.937  15.187   9.550 -0.2466  0.2336  0.1687
  515loPI   GL2 8230   6.756  15.039   9.307  0.2881  0.2167  0.3188
  515loPI   C1A 8231   6.918  15.504   9.150  0.3793  0.2221  0.3418
  515loPI   C2A 8232   7.095  15.557   8.800 -0.0595  0.1057 -0.2414
  515loPI   C3A 8233   7.081  15.560   8.364  0.2804  0.4778  0.0034
  515loPI   C4A 8234   6.799  15.589   8.009 -0.0423  0.0264 -0.2909
  515loPI   C5A 8235   6.659  15.566   7.617  0.0779  0.2770 -0.0701
  515loPI   C6A 8236   6.377  15.682   7.148  0.1847  0.2786 -0.2456
  515loPI   C1B 8237   6.727  14.887   8.933 -0.1010  0.0142 -0.2982
  515loPI   C2B 8238   6.514  14.603   8.741 -0.3327 -0.1741  0.1122
  515loPI   C3B 8239   6.343  14.616   8.405 -0.3128 -0.1259 -0.1249
  515loPI   C4B 8240   6.412  14.620   7.954  0.2832 -0.1699  0.0115
  516loPI    C1 8241  18.008   6.928  10.728  0.0447  0.0211  0.0224
  516loPI    C2 8242  17.963   7.319  10.655  0.1014 -0.0274 -0.2868
  516loPI    C3 8243  17.729   7.137  10.924  0.1770  0.2488 -0.0289
  516loPI   PO4 8244  18.139   6.852  10.452  0.0325 -0.0149 -0.4489
  516loPI   GL1 8245  18.208   7.003  10.071 -0.0734 -0.0478 -0.2151
  516loPI   GL2 8246  17.959   7.029   9.864 -0.0068  0.0674  0.4145
  516loPI   C1A 8247  18.383   6.899   9.625 -0.2209 -0.1857 -0.1918
  516loPI   C2A 8248  18.558   6.902   9.243  0.0167  0.0312 -0.1642
  516loPI   C3A 8249  18.496   6.835   8.837  0.0922 -0.1582  0.0812
  516loPI   C4A 8250  18.568   6.756   8.384 -0.0432  0.0718  0.0465
  516loPI   C5A 8251  18.647   6.732   7.908 -0.1594  0.3367 -0.1493
  516loPI   C6A 8252  18.828   6.806   7.448 -0.1393 -0.3941  0.0265
  516loPI   C1B 8253  17.701   7.024   9.491 -0.2789  0.0418  0.2257
  516loPI   C2B 8254  17.559   6.937   8.994  0.1475 -0.1733 -0.0422
  516loPI   C3B 8255  17.459   6.946   8.512 -0.1647 -0.1673 -0.2477
  516loPI   C4B 8256  17.707   7.091   8.281  0.0117 -0.2285  0.0459
  517loPI    C1 8257  18.088   8.560  10.131  0.2395  0.2732  0.0160
  517loPI    C2 8258  17.878   8.668  10.454 -0.0145  0.1975 -0.1213
  517loPI    C3 8259  18.225   8.472  10.497 -0.1865 -0.0656  0.1016
  517loPI   PO4 8260  18.033   8.774   9.983 -0.1261 -0.0393  0.1813
  517loPI   GL1 8261  17.849   8.702   9.631 -0.3215 -0.3537  0.0532
  517loPI   GL2 8262  17.609   8.946   9.564 -0.0346 -0.0947  0.2809
  517loPI   C1A 8263  17.944   8.729   9.238 -0.0624  0.2838  0.0243
  517loPI   C2A 8264  17.905   8.752   8.830 -0.1439  0.0995  0.0598
  517loPI   C3A 8265  17.759   8.943   8.438 -0.1172  0.1146  0.1619
  517loPI   C4A 8266  17.750   9.067   8.007 -0.0480 -0.2308  0.0053
  517loPI   C5A 8267  17.326   9.162   7.708  0.1247 -0.1121  0.0435
  517loPI   C6A 8268  17.508   9.080   7.283  0.2788  0.0432 -0.2857
  517loPI   C1B 8269  17.388   9.154   9.301  0.0373 -0.0643  0.1751
  517loPI   C2B 8270  17.101   9.490   9.239 -0.0785 -0.0047  0.2114
  517loPI   C3B 8271  16.957   9.621   8.792 -0.3944  0.1573 -0.0773
  517loPI   C4B 8272  16.938   9.758   8.382 -0.0344 -0.0064 -0.1124
  518loPI    C1 8273   1.807  14.497  10.196 -0.0062 -0.0977 -0.0735
  518loPI    C2 8274   1.593  14.751  10.418  0.2017  0.0220 -0.0071
  518loPI    C3 8275   1.746  14.421  10.584  0.1269 -0.0287 -0.0383
  518loPI   PO4 8276   1.816  14.649   9.993  0.0010 -0.1407 -0.0383
  518loPI   GL1 8277   1.802  14.583   9.573 -0.0179 -0.2023 -0.4247
  518loPI   GL2 8278   1.651  14.783   9.565  0.3409 -0.0973  0.3725
  518loPI   C1A 8279   1.556  14.411   9.246  0.1853  0.1372  0.2278
  518loPI   C2A 8280   1.317  14.356   8.831  0.1297  0.0576 -0.0845
  518loPI   C3A 8281   1.275  14.501   8.503  0.1040  0.1304  0.0413
  518loPI   C4A 8282   1.207  14.585   8.034  0.2251 -0.0962 -0.2679
  518loPI   C5A 8283   1.234  14.705   7.658 -0.1859 -0.4073  0.1049
  518loPI   C6A 8284   1.550  14.900   7.309 -0.1519 -0.1806 -0.0220
  518loPI   C1B 8285   1.650  14.926   9.105 -0.0734  0.2352 -0.1568
  518loPI   C2B 8286   1.436  14.933   8.689  0.0760 -0.1787  0.2487
  518loPI   C3B 8287   1.331  14.994   8.277  0.2906 -0.1898 -0.0295
  518loPI   C4B 8288   1.364  15.169   7.932  0.2762 -0.0331 -0.1876
  519loPI    C1 8289   4.997  17.261   9.607  0.2324 -0.1658  0.1005
  519loPI    C2 8290   5.115  17.219   9.987  0.1252 -0.2494  0.1252
  519loPI    C3 8291   4.833  16.978   9.837  0.1335 -0.1861  0.0061
  519loPI   PO4 8292   5.254  17.316   9.484 -0.2610 -0.2440 -0.2314
  519loPI   GL1 8293   5.311  17.583   9.133 -0.0659  0.3162 -0.0211
  519loPI   GL2 8294   5.624  17.405   9.166  0.1820 -0.2529  0.3740
  519loPI   C1A 8295   5.093  17.353   8.830  0.1290  0.1945  0.0541
  519loPI   C2A 8296   5.189  16.956   8.521 -0.1409 -0.3589 -0.1060
  519loPI   C3A 8297   5.366  16.727   8.105  0.0081  0.0018  0.0958
  519loPI   C4A 8298   5.344  16.404   7.795  0.1481  0.1932 -0.0173
  519loPI   C5A 8299   5.441  16.054   7.687 -0.2057  0.0278 -0.0055
  519loPI   C6A 8300   5.416  15.740   7.376 -0.0441 -0.1533  0.1328
  519loPI   C1B 8301   5.531  17.363   8.683 -0.0058 -0.2137  0.0946
  519loPI   C2B 8302   5.534  17.275   8.263  0.1362 -0.0760 -0.2199
  519loPI   C3B 8303   5.643  17.323   7.914 -0.0827  0.1239 -0.0845
  519loPI   C4B 8304   6.037  17.623   7.779  0.0171 -0.1755  0.3088
  520loPI    C1 8305   5.218  18.508   9.904  0.0408  0.0082 -0.0223
  520loPI    C2 8306   5.082  18.267  10.193 -0.1154  0.1835  0.0517
  520loPI    C3 8307   4.846  18.554  10.043  0.0226  0.2031 -0.1315
  520loPI   PO4 8308   5.272  18.371   9.756  0.1065  0.0019  0.1208
  520loPI   GL1 8309   5.296  18.372   9.275 -0.3904 -0.1021 -0.1195
  520loPI   GL2 8310   5.220  18.126   9.309 -0.2280  0.1315 -0.0972
  520loPI   C1A 8311   5.306  18.414   8.839 -0.0739 -0.1996 -0.0093
  520loPI   C2A 8312   5.215  18.558   8.424  0.2935  0.0575  0.0911
  520loPI   C3A 8313   5.028  18.649   8.068  0.1261 -0.1701  0.0913
  520loPI   C4A 8314   4.996  18.701   7.697 -0.0314  0.1075 -0.0018
  520loPI   C5A 8315   4.658  18.594   7.373 -0.3113 -0.1710  0.0118
  520loPI   C6A 8316   5.011  18.700   7.043  0.0446 -0.0501  0.0511
  520loPI   C1B 8317   5.106  17.923   8.840  0.0861 -0.2318  0.3542
  520loPI   C2B 8318   5.240  17.717   8.471  0.0587 -0.1415  0.1690
  520loPI   C3B 8319   5.236  17.605   8.055  0.5050  0.0678 -0.0497
  520loPI   C4B 8320   5.152  17.853   7.711  0.0657  0.3203 -0.2540
  521loPI    C1 8321   4.593   5.300  10.129  0.2810 -0.1394 -0.1247
  521loPI    C2 8322   4.635   5.696  10.095 -0.2848 -0.0421  0.1833
  521loPI    C3 8323   4.860   5.493  10.357 -0.1462  0.1066  0.1815
  521loPI   PO4 8324   4.679   5.181   9.937  0.3922 -0.1244  0.1151
  521loPI   GL1 8325   4.500   4.914   9.550 -0.1242  0.0597 -0.0944
  521loPI   GL2 8326   4.816   4.806   9.314  0.3516 -0.0292  0.0464
  521loPI   C1A 8327   4.466   5.143   9.232  0.0685 -0.0994  0.0166
  521loPI   C2A 8328   4.518   5.493   9.095 -0.0246 -0.0435  0.3847
  521loPI   C3A 8329   4.583   5.670   8.743  0.2472  0.3056  0.1722
  521loPI   C4A 8330   4.810   5.882   8.474 -0.1531 -0.0841 -0.1466
  521loPI   C5A 8331   4.844   6.054   8.089  0.4187 -0.1226  0.1893
  521loPI   C6A 8332   5.130   6.222   7.812 -0.0734  0.0225  0.0888
  521loPI   C1B 8333   4.551   4.744   8.931 -0.0821  0.1008 -0.1188
  521loPI   C2B 8334   4.349   5.166   8.740  0.1227 -0.0548  0.2386
  521loPI   C3B 8335   4.170   5.391   8.518  0.1192 -0.1939  0.0429
  521loPI   C4B 8336   4.313   5.655   8.302 -0.1314 -0.0283 -0.0441
  522loPI    C1 8337   9.195   7.863  10.320 -0.4216  0.2709  0.0189
  522loPI    C2 8338   9.425   8.190  10.341 -0.0875  0.0595 -0.2347
  522loPI    C3 8339   9.188   8.092  10.648 -0.0242  0.4151 -0.0669
  522loPI   PO4 8340   9.288   7.714  10.232 -0.0389 -0.1208  0.0604
  522loPI   GL1 8341   9.513   7.696   9.866 -0.0929  0.0078  0.0572
  522loPI   GL2 8342   9.457   8.052   9.864  0.4591  0.2043  0.2325
  522loPI   C1A 8343   9.378   7.685   9.424 -0.0914 -0.2104 -0.1124
  522loPI   C2A 8344   9.434   7.727   9.068 -0.2174 -0.4540 -0.2027
  522loPI   C3A 8345   9.482   7.704   8.694 -0.0095  0.2202  0.2059
  522loPI   C4A 8346   9.326   7.560   8.278 -0.0224 -0.0500  0.0270
  522loPI   C5A 8347   9.007   7.391   7.985 -0.0117 -0.1340 -0.1325
  522loPI   C6A 8348   9.021   7.092   7.866  0.2547  0.0789  0.0021
  522loPI   C1B 8349   9.785   7.966   9.418 -0.0205 -0.0715 -0.0684
  522loPI   C2B 8350   9.975   7.956   8.957 -0.2218 -0.1788 -0.0944
  522loPI   C3B 8351   9.892   8.088   8.535  0.1498  0.0053 -0.2335
  522loPI   C4B 8352  10.005   8.131   8.133 -0.0154 -0.2028  0.2925
  523loPI    C1 8353   6.538  12.578  10.375 -0.0386  0.0526 -0.2326
  523loPI    C2 8354   6.394  12.876  10.151 -0.0218  0.1645 -0.0957
  523loPI    C3 8355   6.211  12.775  10.492  0.0806  0.1432 -0.0463
  523loPI   PO4 8356   6.582  12.339  10.201  0.2067 -0.2552  0.1352
  523loPI   GL1 8357   6.662  12.464   9.780 -0.1166 -0.1315  0.1806
  523loPI   GL2 8358   6.364  12.455   9.726 -0.0853  0.0766 -0.0328
  523loPI   C1A 8359   6.648  12.439   9.223 -0.0378 -0.0246  0.0537
  523loPI   C2A 8360   6.801  12.539   8.841 -0.2108 -0.1345  0.5050
  523loPI   C3A 8361   6.973  12.791   8.566  0.2090 -0.2257 -0.2337
  523loPI   C4A 8362   7.174  12.767   8.052  0.1004 -0.2518  0.0657
  523loPI   C5A 8363   7.312  12.764   7.686  0.1870  0.2295 -0.2561
  523loPI   C6A 8364   7.302  12.677   7.240  0.4874  0.0420  0.1156
  523loPI   C1B 8365   6.051  12.463   9.363 -0.1071 -0.2368  0.1270
  523loPI   C2B 8366   5.868  12.501   9.018  0.1382 -0.1503  0.2184
  523loPI   C3B 8367   5.514  12.572   8.800 -0.0004  0.0743  0.1518
  523loPI   C4B 8368   5.277  12.651   8.379 -0.0444 -0.0748  0.1207
  524loPI    C1 8369   2.587  18.320  10.104  0.0129  0.0603  0.0845
  524loPI    C2 8370   2.479  18.617  10.350 -0.1215  0.0426  0.0474
  524loPI    C3 8371   2.645  18.285  10.498  0.1037  0.1686  0.0814
  524loPI   PO4 8372   2.770  18.392   9.946 -0.2433 -0.1471 -0.1008
  524loPI   GL1 8373   3.018  18.595   9.608 -0.1246 -0.0785 -0.1352
  524loPI   GL2 8374   3.056  18.195   9.574 -0.1109 -0.2235  0.0788
  524loPI   C1A 8375   2.933  18.751   9.288 -0.1142  0.1736  0.0836
  524loPI   C2A 8376   2.567  18.788   8.972 -0.0548  0.2005  0.1269
  524loPI   C3A 8377   2.395  18.671   8.433  0.0213 -0.0426  0.3452
  524loPI   C4A 8378   2.425  18.714   7.966 -0.3402  0.0766  0.5330
  524loPI   C5A 8379   2.760  18.995   7.748 -0.0473  0.0440 -0.2588
  524loPI   C6A 8380   3.152  19.040   7.679  0.0268 -0.0039 -0.1302
  524loPI   C1B 8381   3.210  18.162   9.178 -0.1563 -0.2639 -0.0386
  524loPI   C2B 8382   3.314  18.081   8.750  0.3633 -0.1621 -0.0769
  524loPI   C3B 8383   3.247  18.002   8.342 -0.0009 -0.2130  0.1020
  524loPI   C4B 8384   3.028  17.718   8.073  0.0713 -0.1369 -0.0538
  525loPI    C1 8385   2.900  16.937  10.323 -0.0824 -0.1561  0.0727
  525loPI    C2 8386   3.217  17.180  10.313 -0.1926 -0.0176 -0.1297
  525loPI    C3 8387   3.239  16.831  10.508  0.0164  0.0830  0.0318
  525loPI   PO4 8388   2.846  16.983  10.023  0.3216 -0.0583 -0.2379
  525loPI   GL1 8389   2.901  16.983   9.608 -0.0856 -0.2599  0.1634
  525loPI   GL2 8390   3.098  16.769   9.482 -0.2624  0.0619 -0.0031
  525loPI   C1A 8391   2.742  16.862   9.161  0.1230 -0.2253  0.0299
  525loPI   C2A 8392   2.303  16.770   8.976 -0.0926  0.2538  0.4267
  525loPI   C3A 8393   2.151  16.842   8.552  0.0430  0.1142 -0.1470
  525loPI   C4A 8394   2.146  16.890   8.139 -0.1241  0.0584 -0.0068
  525loPI   C5A 8395   2.279  17.100   7.720  0.1997  0.0172 -0.1550
  525loPI   C6A 8396   2.155  17.375   7.414 -0.0220 -0.1495 -0.0882
  525loPI   C1B 8397   3.219  16.674   9.011 -0.0048  0.1391 -0.2865
  525loPI   C2B 8398   3.072  16.490   8.591  0.1821  0.2712 -0.0846
  525loPI   C3B 8399   3.066  16.418   8.232 -0.1012 -0.0531 -0.1277
  525loPI   C4B 8400   3.016  16.234   7.812  0.1865 -0.0919  0.0842
  526loPI    C1 8401   8.027  15.038  10.581  0.2453  0.2266 -0.0333
  526loPI    C2 8402   7.838  15.390  10.594 -0.0903  0.0473  0.0572
  526loPI    C3 8403   7.697  15.079  10.803  0.1447 -0.1699 -0.1016
  526loPI   PO4 8404   8.056  15.047  10.243  0.0650  0.0604 -0.1814
  526loPI   GL1 8405   7.976  15.002   9.763  0.1369 -0.0082  0.0302
  526loPI   GL2 8406   7.779  15.229   9.647 -0.0645  0.0474  0.0823
  526loPI   C1A 8407   8.157  14.941   9.307 -0.0444  0.2652 -0.0495
  526loPI   C2A 8408   8.442  14.806   8.927 -0.0422  0.2119  0.1075
  526loPI   C3A 8409   8.600  14.802   8.507 -0.0967 -0.3038 -0.0619
  526loPI   C4A 8410   8.464  14.686   8.041 -0.0169  0.0688  0.0074
  526loPI   C5A 8411   8.294  14.497   7.691  0.3440 -0.1347  0.0726
  526loPI   C6A 8412   7.945  14.466   7.519  0.0349 -0.0899 -0.2233
  526loPI   C1B 8413   7.517  15.378   9.321 -0.0339  0.0314 -0.0586
  526loPI   C2B 8414   7.615  15.376   8.919 -0.0018 -0.0305 -0.2672
  526loPI   C3B 8415   7.558  15.183   8.550 -0.1382 -0.3599  0.1606
  526loPI   C4B 8416   7.546  15.063   8.094  0.2916  0.2782  0.1375
  527loPI    C1 8417   7.949  13.373  10.157 -0.1236  0.1330 -0.1089
  527loPI    C2 8418   7.616  13.557  10.281 -0.0661  0.1908 -0.0391
  527loPI    C3 8419   7.773  13.261  10.499 -0.0738  0.1610 -0.0739
  527loPI   PO4 8420   7.895  13.291   9.875 -0.1923 -0.0480  0.1191
  527loPI   GL1 8421   7.741  13.044   9.642  0.1384 -0.2345 -0.1100
  527loPI   GL2 8422   7.911  12.844   9.528 -0.0964  0.2713  0.0806
  527loPI   C1A 8423   7.694  13.108   9.175  0.3518 -0.1260  0.3126
  527loPI   C2A 8424   7.803  13.079   8.764 -0.0592  0.0867  0.0424
  527loPI   C3A 8425   7.671  13.377   8.421 -0.1454  0.1379 -0.0469
  527loPI   C4A 8426   7.826  13.669   8.124 -0.1375  0.0386 -0.2899
  527loPI   C5A 8427   7.716  13.616   7.691  0.0323 -0.0565  0.1189
  527loPI   C6A 8428   7.385  13.683   7.450  0.0522 -0.0372  0.1675
  527loPI   C1B 8429   7.951  12.649   9.160 -0.1811 -0.0264 -0.1259
  527loPI   C2B 8430   8.143  12.576   8.671 -0.0058  0.1080 -0.1127
  527loPI   C3B 8431   8.458  12.649   8.311 -0.0709 -0.0948 -0.0757
  527loPI   C4B 8432   8.688  12.563   7.984  0.0574  0.0806  0.1151
  528loPI    C1 8433   9.083  11.319  10.408  0.1939 -0.1035 -0.2412
  528loPI    C2 8434   9.164  11.696  10.515 -0.0064 -0.1297  0.0106
  528loPI    C3 8435   9.284  11.392  10.745 -0.1792 -0.2011  0.0082
  528loPI   PO4 8436   8.894  11.297  10.304  0.3643 -0.0305  0.2552
  528loPI   GL1 8437   8.717  11.122   9.795  0.0036 -0.2924 -0.0468
  528loPI   GL2 8438   8.794  11.352   9.622 -0.0531 -0.4756  0.1291
  528loPI   C1A 8439   8.402  11.140   9.535 -0.1952 -0.1925  0.1200
  528loPI   C2A 8440   8.040  11.193   9.292  0.0817 -0.0700 -0.2315
  528loPI   C3A 8441   8.040  11.285   8.921  0.3235 -0.0905  0.2886
  528loPI   C4A 8442   8.090  11.466   8.463  0.0441  0.1065 -0.0352
  528loPI   C5A 8443   8.066  11.748   8.102 -0.0131 -0.2389  0.2927
  528loPI   C6A 8444   7.797  11.987   7.873  0.0196 -0.1028  0.0622
  528loPI   C1B 8445   8.952  11.378   9.218 -0.0193 -0.0732 -0.0566
  528loPI   C2B 8446   9.000  11.055   8.909  0.0221 -0.1296  0.0557
  528loPI   C3B 8447   9.030  11.196   8.456 -0.1017  0.2301 -0.0599
  528loPI   C4B 8448   9.028  10.973   8.045  0.1421  0.1719  0.1648
  529loPI    C1 8449  12.242  17.236  10.414 -0.2699  0.0029  0.0002
  529loPI    C2 8450  12.036  17.481  10.654 -0.3640 -0.1227  0.0488
  529loPI    C3 8451  12.206  17.151  10.803 -0.0434  0.0289  0.0283
  529loPI   PO4 8452  12.144  17.286  10.228  0.1785 -0.0785 -0.1833
  529loPI   GL1 8453  12.222  17.405   9.862 -0.3093  0.1864  0.0162
  529loPI   GL2 8454  12.548  17.282   9.828  0.1745  0.2546 -0.1099
  529loPI   C1A 8455  12.191  17.108   9.567  0.2342  0.0076  0.3448
  529loPI   C2A 8456  12.223  17.138   9.132  0.3384 -0.0283  0.0296
  529loPI   C3A 8457  12.204  17.029   8.623 -0.1868  0.2843  0.0164
  529loPI   C4A 8458  12.456  16.934   8.227 -0.0867 -0.1194 -0.1438
  529loPI   C5A 8459  12.836  16.768   8.133 -0.0311 -0.4237 -0.0087
  529loPI   C6A 8460  13.159  16.594   8.052 -0.2263 -0.2495  0.0886
  529loPI   C1B 8461  12.451  17.545   9.444 -0.1781 -0.2133  0.0617
  529loPI   C2B 8462  12.529  17.618   9.065  0.0068  0.1132  0.1563
  529loPI   C3B 8463  12.785  17.817   8.722  0.0431 -0.0440 -0.1958
  529loPI   C4B 8464  12.860  18.212   8.421  0.4295  0.0791  0.1490
  530loPI    C1 8465   9.475  13.888  10.315 -0.0088  0.2006  0.1617
  530loPI    C2 8466   9.168  14.126  10.408 -0.0169  0.1839  0.1777
  530loPI    C3 8467   9.138  13.731  10.461 -0.1773  0.1266 -0.2893
  530loPI   PO4 8468   9.560  13.928  10.081  0.1424  0.0314  0.0155
  530loPI   GL1 8469   9.881  13.822   9.784  0.2019 -0.0748 -0.2010
  530loPI   GL2 8470   9.993  13.583   9.926  0.3644 -0.0232  0.0624
  530loPI   C1A 8471  10.040  13.713   9.317 -0.2489  0.0385 -0.2061
  530loPI   C2A 8472  10.074  13.733   8.896 -0.2886 -0.0049 -0.3119
  530loPI   C3A 8473   9.933  13.665   8.507  0.0734 -0.3682  0.0761
  530loPI   C4A 8474   9.925  13.611   8.016 -0.3074 -0.1602 -0.0211
  530loPI   C5A 8475   9.878  13.614   7.515  0.0287 -0.0997  0.1183
  530loPI   C6A 8476   9.484  13.593   7.362 -0.0025 -0.2097  0.2279
  530loPI   C1B 8477   9.838  13.318   9.577  0.1296  0.2401 -0.0729
  530loPI   C2B 8478   9.773  13.318   9.095 -0.0933 -0.2662 -0.0391
  530loPI   C3B 8479   9.700  13.287   8.684 -0.3497  0.0663 -0.2984
  530loPI   C4B 8480   9.561  13.396   8.347  0.0030 -0.1415  0.3040
  531loPI    C1 8481  11.585   1.902  10.162 -0.1060  0.3627 -0.0090
  531loPI    C2 8482  11.330   1.622  10.290 -0.1203  0.2949 -0.1828
  531loPI    C3 8483  11.532   1.844  10.554  0.2974 -0.2455 -0.0305
  531loPI   PO4 8484  11.494   1.944   9.916  0.0009  0.0801 -0.2175
  531loPI   GL1 8485  11.357   1.904   9.513 -0.1895 -0.1116  0.0654
  531loPI   GL2 8486  11.462   1.660   9.515 -0.0563 -0.2078  0.0317
  531loPI   C1A 8487  11.421   2.130   9.162  0.2016 -0.1741  0.0358
  531loPI   C2A 8488  11.521   1.981   8.753 -0.1376 -0.0796  0.0601
  531loPI   C3A 8489  11.906   2.121   8.415 -0.0174  0.2229 -0.4473
  531loPI   C4A 8490  11.671   2.260   8.077 -0.2424  0.0891  0.1885
  531loPI   C5A 8491  11.196   2.354   7.927 -0.1933 -0.1605 -0.0689
  531loPI   C6A 8492  10.744   2.189   7.906 -0.0756 -0.3249 -0.2873
  531loPI   C1B 8493  11.542   1.426   9.117  0.0250  0.1282  0.0409
  531loPI   C2B 8494  11.547   1.443   8.811 -0.2878 -0.0395 -0.0428
  531loPI   C3B 8495  11.527   1.201   8.410 -0.2481  0.2431  0.0148
  531loPI   C4B 8496  11.491   1.262   8.028 -0.2711  0.1476 -0.0834
  532loPI    C1 8497  10.186   0.472  10.052 -0.1930 -0.5214  0.1114
  532loPI    C2 8498   9.908   0.706  10.219  0.0970  0.0116 -0.1267
  532loPI    C3 8499   9.813   0.336  10.099 -0.3350 -0.0577  0.3904
  532loPI   PO4 8500  10.265   0.573   9.901 -0.2522 -0.0615 -0.0857
  532loPI   GL1 8501  10.359   0.764   9.561  0.2745  0.2860  0.0185
  532loPI   GL2 8502  10.295   0.521   9.413 -0.0109  0.2165  0.1053
  532loPI   C1A 8503  10.509   0.957   9.252 -0.1849 -0.1740 -0.3251
  532loPI   C2A 8504  10.563   1.066   8.783  0.0091 -0.0563  0.0206
  532loPI   C3A 8505  10.553   1.360   8.408  0.3250  0.1246  0.0500
  532loPI   C4A 8506  10.518   1.486   8.051 -0.3295  0.0945  0.2853
  532loPI   C5A 8507  10.152   1.334   7.692  0.0376  0.1070 -0.0439
  532loPI   C6A 8508   9.819   1.128   7.730 -0.0646  0.2390  0.1992
  532loPI   C1B 8509  10.372   0.526   8.991 -0.1747 -0.2415 -0.1553
  532loPI   C2B 8510  10.322   0.613   8.622 -0.1944 -0.4333  0.2200
  532loPI   C3B 8511  10.346   0.500   8.163 -0.1754  0.2514 -0.2795
  532loPI   C4B 8512  10.574   0.350   7.778  0.0650  0.3245  0.0765
  533loPI    C1 8513  16.753  17.094  10.132  0.2264 -0.1056 -0.1117
  533loPI    C2 8514  16.783  17.431  10.347 -0.1202 -0.1038 -0.0612
  533loPI    C3 8515  16.904  17.083  10.503  0.0382 -0.0366 -0.0320
  533loPI   PO4 8516  16.660  17.296   9.919 -0.2298 -0.1451  0.0024
  533loPI   GL1 8517  16.781  17.339   9.480  0.1509 -0.0242  0.1264
  533loPI   GL2 8518  17.148  17.294   9.585  0.1904  0.1793 -0.3803
  533loPI   C1A 8519  16.659  17.449   9.103 -0.3019 -0.1960 -0.0686
  533loPI   C2A 8520  16.826  17.470   8.702 -0.2312  0.2051 -0.1364
  533loPI   C3A 8521  17.115  17.627   8.409 -0.2612 -0.0014 -0.1100
  533loPI   C4A 8522  17.413  17.893   8.238  0.1312  0.0884  0.0382
  533loPI   C5A 8523  17.899  18.012   8.264  0.0709 -0.1576  0.1709
  533loPI   C6A 8524  18.248  18.148   8.120  0.1067 -0.2679 -0.0679
  533loPI   C1B 8525  17.177  17.407   9.220  0.0244  0.2072 -0.5443
  533loPI   C2B 8526  17.316  17.518   8.850  0.1443 -0.1211 -0.1869
  533loPI   C3B 8527  17.655  17.626   8.633 -0.0987  0.1094 -0.2453
  533loPI   C4B 8528  17.965  17.962   8.771  0.1494 -0.0411  0.0329
  534loPI    C1 8529  12.627   6.045  10.637  0.2513 -0.1427  0.2846
  534loPI    C2 8530  12.635   6.274  10.965 -0.2829  0.0514  0.1718
  534loPI    C3 8531  12.378   5.968  10.940 -0.2156  0.0106 -0.0473
  534loPI   PO4 8532  12.641   6.172  10.425 -0.0793 -0.1531 -0.0123
  534loPI   GL1 8533  12.572   6.180  10.034 -0.3735 -0.0700  0.0615
  534loPI   GL2 8534  12.340   6.032  10.055  0.2893  0.0206  0.1935
  534loPI   C1A 8535  12.503   5.892   9.551  0.4542 -0.0542  0.2938
  534loPI   C2A 8536  12.277   5.960   9.230 -0.2332 -0.1754  0.0534
  534loPI   C3A 8537  12.110   6.090   8.852 -0.2187 -0.1428  0.2464
  534loPI   C4A 8538  12.065   6.365   8.473 -0.1499  0.0385 -0.0035
  534loPI   C5A 8539  12.036   6.472   8.033  0.1439  0.1844 -0.1398
  534loPI   C6A 8540  12.169   6.746   7.765 -0.3431  0.5321  0.2772
  534loPI   C1B 8541  12.013   6.063   9.670 -0.0127  0.0953 -0.0382
  534loPI   C2B 8542  11.963   6.352   9.298  0.4731 -0.0910  0.0158
  534loPI   C3B 8543  11.806   6.530   8.927 -0.1337 -0.1203  0.2571
  534loPI   C4B 8544  11.762   6.880   8.554 -0.2428 -0.0571 -0.0748
  535loPI    C1 8545  14.746  13.284  10.750 -0.0531  0.2813  0.0728
  535loPI    C2 8546  14.917  13.617  10.893  0.0112  0.1779  0.2401
  535loPI    C3 8547  14.998  13.262  11.060 -0.1079  0.0856  0.1050
  535loPI   PO4 8548  14.821  13.261  10.491  0.2121 -0.0054  0.1229
  535loPI   GL1 8549  14.784  13.489  10.140 -0.2238  0.0448 -0.1150
  535loPI   GL2 8550  14.646  13.694  10.023 -0.0333  0.1383 -0.1405
  535loPI   C1A 8551  14.686  13.176   9.818  0.0668 -0.1709 -0.3089
  535loPI   C2A 8552  14.638  12.768   9.627 -0.1015  0.0820  0.1001
  535loPI   C3A 8553  14.771  12.577   9.295 -0.0242 -0.3842  0.2666
  535loPI   C4A 8554  14.747  12.769   8.931 -0.0569 -0.0274 -0.0141
  535loPI   C5A 8555  14.987  12.888   8.559  0.2033 -0.0666  0.0235
  535loPI   C6A 8556  15.028  13.261   8.243  0.2376 -0.2520 -0.1119
  535loPI   C1B 8557  14.853  13.603   9.653 -0.1857 -0.2158  0.2125
  535loPI   C2B 8558  14.913  13.606   9.306  0.1464 -0.3187 -0.1679
  535loPI   C3B 8559  14.987  13.914   9.043  0.3654 -0.0052 -0.0934
  535loPI   C4B 8560  15.010  14.048   8.611  0.1600 -0.0996 -0.0609
  536loPI    C1 8561  17.472  14.671  10.481 -0.1467 -0.0888  0.1352
  536loPI    C2 8562  17.342  14.407  10.753  0.1433 -0.2090  0.1610
  536loPI    C3 8563  17.563  14.721  10.868  0.2743 -0.2651  0.0649
  536loPI   PO4 8564  17.304  14.806  10.321 -0.0956 -0.0386  0.1654
  536loPI   GL1 8565  17.092  14.800   9.959 -0.0194  0.0971 -0.1116
  536loPI   GL2 8566  17.244  14.963   9.900 -0.1916 -0.0099 -0.0533
  536loPI   C1A 8567  16.861  14.993   9.586 -0.2292  0.3170  0.2075
  536loPI   C2A 8568  16.895  15.149   9.122 -0.1962  0.2039  0.1805
  536loPI   C3A 8569  16.905  15.119   8.660  0.1774  0.0702  0.2806
  536loPI   C4A 8570  16.973  14.900   8.239 -0.0849 -0.1506  0.1577
  536loPI   C5A 8571  17.110  14.763   7.850 -0.3133 -0.0592  0.0772
  536loPI   C6A 8572  17.222  14.899   7.501 -0.1406 -0.1102 -0.0150
  536loPI   C1B 8573  17.329  14.786   9.425 -0.2218  0.0034  0.0893
  536loPI   C2B 8574  17.348  14.499   8.924 -0.2815  0.1255 -0.0478
  536loPI   C3B 8575  17.353  14.470   8.396 -0.0590 -0.1167 -0.0875
  536loPI   C4B 8576  17.506  14.528   7.946 -0.2023 -0.5642 -0.3136
  537loPI    C1 8577  10.225   0.083  10.348  0.0173 -0.0038  0.0617
  537loPI    C2 8578   9.990   0.087  10.672 -0.1456 -0.0950 -0.0538
  537loPI    C3 8579  10.209   0.408  10.580 -0.1668 -0.0367  0.0970
  537loPI   PO4 8580  10.069  -0.046  10.121 -0.1286 -0.3277  0.2803
  537loPI   GL1 8581   9.949  -0.106   9.683 -0.1383  0.1894  0.2266
  537loPI   GL2 8582  10.118   0.110   9.621 -0.0708  0.0013 -0.0961
  537loPI   C1A 8583   9.848  -0.244   9.298 -0.1078  0.3712 -0.0151
  537loPI   C2A 8584   9.955  -0.267   8.902  0.1226  0.1652  0.5607
  537loPI   C3A 8585   9.825  -0.244   8.409  0.1876 -0.0777  0.2475
  537loPI   C4A 8586   9.754  -0.266   7.998  0.1060  0.2264  0.0673
  537loPI   C5A 8587   9.867  -0.357   7.571 -0.1008  0.3082  0.1553
  537loPI   C6A 8588  10.037  -0.409   7.147  0.0316 -0.0485 -0.0463
  537loPI   C1B 8589  10.254   0.056   9.250 -0.1443 -0.2502 -0.0546
  537loPI   C2B 8590  10.406  -0.119   8.865 -0.2485  0.3026 -0.1425
  537loPI   C3B 8591  10.309  -0.205   8.428 -0.3240  0.0667 -0.0617
  537loPI   C4B 8592  10.241  -0.159   8.073  0.2165 -0.0943 -0.0228
  538loPI    C1 8593   4.130   4.566   9.958  0.1327  0.0544 -0.1041
  538loPI    C2 8594   4.121   4.341  10.289 -0.0444 -0.1521 -0.2470
  538loPI    C3 8595   4.030   4.730  10.309  0.2401 -0.0948 -0.0028
  538loPI   PO4 8596   4.362   4.541   9.851  0.1598  0.1078  0.1638
  538loPI   GL1 8597   4.608   4.454   9.516  0.0415  0.1961 -0.3261
  538loPI   GL2 8598   4.371   4.280   9.422  0.1832  0.0296  0.2849
  538loPI   C1A 8599   4.847   4.336   9.128  0.0536 -0.1116 -0.2509
  538loPI   C2A 8600   4.715   4.235   8.753  0.0305  0.1575 -0.0173
  538loPI   C3A 8601   4.874   4.125   8.396 -0.0834 -0.1544  0.0072
  538loPI   C4A 8602   4.972   4.146   8.015 -0.0314 -0.1887 -0.2841
  538loPI   C5A 8603   4.798   4.017   7.655  0.2426 -0.3047  0.2447
  538loPI   C6A 8604   4.516   3.893   7.505 -0.0932  0.0767  0.3651
  538loPI   C1B 8605   4.225   4.346   9.021  0.2498 -0.2425 -0.1618
  538loPI   C2B 8606   4.324   4.462   8.627 -0.0198  0.3266 -0.0712
  538loPI   C3B 8607   4.383   4.520   8.258  0.2308 -0.3575 -0.0501
  538loPI   C4B 8608   4.494   4.609   7.815  0.2875  0.1863 -0.1604
  539loPI    C1 8609   3.648  16.761   9.490  0.0044  0.1242  0.1213
  539loPI    C2 8610   3.492  16.995   9.774 -0.1060  0.0291  0.1398
  539loPI    C3 8611   3.887  16.931   9.762 -0.0807  0.1765  0.1636
  539loPI   PO4 8612   3.535  16.410   9.602  0.0776 -0.0547  0.1347
  539loPI   GL1 8613   3.122  16.262   9.433  0.0513  0.1187  0.3480
  539loPI   GL2 8614   2.856  16.190   9.380  0.0547 -0.0960  0.4069
  539loPI   C1A 8615   3.224  16.152   8.951  0.1419  0.2225 -0.1132
  539loPI   C2A 8616   3.257  15.919   8.504  0.2615  0.0618  0.1177
  539loPI   C3A 8617   3.213  15.594   8.241 -0.0692 -0.0995  0.3416
  539loPI   C4A 8618   3.119  15.319   7.958  0.1770  0.0599 -0.0580
  539loPI   C5A 8619   2.967  15.117   7.618  0.1428  0.0067 -0.0903
  539loPI   C6A 8620   2.696  14.906   7.364  0.0285  0.1380 -0.3540
  539loPI   C1B 8621   2.667  16.463   8.874  0.0856 -0.2559 -0.0541
  539loPI   C2B 8622   2.622  16.608   8.453  0.2723 -0.1592  0.0395
  539loPI   C3B 8623   2.654  16.953   8.160  0.1358  0.0883 -0.0404
  539loPI   C4B 8624   2.934  17.252   7.980 -0.0697 -0.1367  0.1450
  540loPI    C1 8625  15.154   5.348  10.619 -0.0207  0.2256 -0.0253
  540loPI    C2 8626  15.023   5.229  10.977 -0.1340  0.3500 -0.0243
  540loPI    C3 8627  15.348   5.060  10.816 -0.2523  0.0888  0.0059
  540loPI   PO4 8628  14.893   5.349  10.507  0.0211  0.2658  0.1228
  540loPI   GL1 8629  14.698   5.304  10.031 -0.2347  0.0584 -0.4877
  540loPI   GL2 8630  14.445   5.139   9.849 -0.0562  0.0558 -0.0764
  540loPI   C1A 8631  14.750   5.452   9.600  0.3349 -0.0132  0.4629
  540loPI   C2A 8632  14.578   5.427   9.216  0.1530 -0.0955 -0.0426
  540loPI   C3A 8633  14.343   5.286   8.825 -0.0687 -0.2790 -0.0792
  540loPI   C4A 8634  14.210   5.081   8.388 -0.1879  0.1456 -0.1162
  540loPI   C5A 8635  14.201   5.165   7.895 -0.0694  0.0661  0.0463
  540loPI   C6A 8636  14.162   5.066   7.478  0.0793  0.2146 -0.1266
  540loPI   C1B 8637  14.429   4.919   9.487  0.3862 -0.2356  0.2167
  540loPI   C2B 8638  14.481   4.883   9.050  0.2105  0.1475  0.1997
  540loPI   C3B 8639  14.459   4.816   8.779 -0.0315 -0.0541  0.0240
  540loPI   C4B 8640  14.603   4.654   8.472 -0.2140  0.1393  0.0319
  541loPI    C1 8641  15.530   2.810   9.906  0.3242 -0.0322  0.3075
  541loPI    C2 8642  15.721   2.460   9.877  0.0533 -0.1509 -0.1614
  541loPI    C3 8643  15.399   2.494  10.113  0.0905 -0.2122 -0.1014
  541loPI   PO4 8644  15.531   2.875   9.648  0.2872  0.0193  0.0937
  541loPI   GL1 8645  15.736   3.169   9.313  0.1525 -0.1416 -0.1484
  541loPI   GL2 8646  16.003   3.332   9.438  0.1171 -0.1447  0.2510
  541loPI   C1A 8647  15.697   2.796   9.052 -0.2751 -0.1381  0.0507
  541loPI   C2A 8648  15.454   2.825   8.714 -0.2551 -0.0611 -0.2863
  541loPI   C3A 8649  15.439   2.761   8.290 -0.1333 -0.2211  0.1167
  541loPI   C4A 8650  15.634   2.972   7.907 -0.1019  0.1060  0.1810
  541loPI   C5A 8651  15.718   3.360   7.671  0.3335  0.0958  0.0718
  541loPI   C6A 8652  15.976   3.432   7.328 -0.1954  0.0459  0.0406
  541loPI   C1B 8653  15.975   3.477   8.947 -0.0088  0.0104 -0.1492
  541loPI   C2B 8654  15.935   3.799   8.685  0.0666  0.1708  0.1601
  541loPI   C3B 8655  15.920   3.956   8.381  0.4537 -0.1077  0.3383
  541loPI   C4B 8656  16.109   4.228   8.040  0.1274 -0.0075  0.1824
  542loPI    C1 8657   0.450   2.385  10.602 -0.2042 -0.1423  0.1215
  542loPI    C2 8658   0.730   2.266  10.862  0.0605  0.1358 -0.0300
  542loPI    C3 8659   0.366   2.370  10.993  0.1382  0.1121  0.2090
  542loPI   PO4 8660   0.609   2.575  10.456  0.0283 -0.1491  0.2234
  542loPI   GL1 8661   0.649   2.671   9.992 -0.0388 -0.2812 -0.2799
  542loPI   GL2 8662   0.856   2.404   9.944 -0.0516  0.2088  0.0638
  542loPI   C1A 8663   0.514   2.696   9.606  0.2549  0.2247 -0.1243
  542loPI   C2A 8664   0.556   2.599   9.146 -0.1649  0.1599  0.2169
  542loPI   C3A 8665   0.844   2.550   8.798  0.0489  0.3755 -0.1778
  542loPI   C4A 8666   1.033   2.493   8.424 -0.0611  0.0324  0.0187
  542loPI   C5A 8667   1.335   2.595   8.035 -0.1288  0.3071 -0.1376
  542loPI   C6A 8668   1.444   2.476   7.650 -0.0310  0.2488 -0.1183
  542loPI   C1B 8669   0.741   2.277   9.491  0.1029  0.1751 -0.1023
  542loPI   C2B 8670   0.627   2.072   9.071  0.5050  0.1769  0.1853
  542loPI   C3B 8671   0.380   1.992   8.718  0.0270 -0.0469  0.4412
  542loPI   C4B 8672   0.553   2.051   8.276  0.1373 -0.0393 -0.1231
  543loPI    C1 8673   1.642  16.579  10.499 -0.0526 -0.0570 -0.2354
  543loPI    C2 8674   1.445  16.270  10.660  0.1080 -0.1483 -0.2117
  543loPI    C3 8675   1.572  16.569  10.893 -0.1243 -0.0197 -0.2470
  543loPI   PO4 8676   1.461  16.612  10.254 -0.3435 -0.0879  0.4378
  543loPI   GL1 8677   1.451  16.593   9.870 -0.0069 -0.0316 -0.2550
  543loPI   GL2 8678   1.243  16.870   9.650  0.2152 -0.3268 -0.1251
  543loPI   C1A 8679   1.510  16.474   9.480 -0.0945  0.2236  0.1474
  543loPI   C2A 8680   1.352  16.610   9.000  0.0576  0.2624  0.3682
  543loPI   C3A 8681   1.303  16.517   8.570  0.0969  0.3143 -0.1224
  543loPI   C4A 8682   1.331  16.658   8.152 -0.0667 -0.3374 -0.0068
  543loPI   C5A 8683   1.219  16.701   7.693 -0.3808 -0.2922  0.1672
  543loPI   C6A 8684   1.285  16.735   7.219  0.2187 -0.2131 -0.1191
  543loPI   C1B 8685   1.087  16.771   9.417  0.1996 -0.1857  0.1539
  543loPI   C2B 8686   0.889  16.932   9.099 -0.0127  0.0773 -0.0772
  543loPI   C3B 8687   0.733  17.217   8.746 -0.0839  0.3504  0.0709
  543loPI   C4B 8688   0.547  17.287   8.355 -0.1840 -0.0146  0.0168
  544loPI    C1 8689  14.093   7.145  10.690  0.1143 -0.1353 -0.0477
  544loPI    C2 8690  14.284   6.948  10.399  0.4906  0.1389  0.0068
  544loPI    C3 8691  14.434   6.952  10.770  0.0276 -0.1875  0.2073
  544loPI   PO4 8692  13.985   7.338  10.566  0.0569 -0.2135 -0.2060
  544loPI   GL1 8693  14.198   7.307  10.081 -0.3412  0.2120 -0.2039
  544loPI   GL2 8694  14.197   7.674  10.137  0.2328 -0.2444  0.0880
  544loPI   C1A 8695  14.097   7.281   9.648 -0.0351 -0.1656 -0.3643
  544loPI   C2A 8696  14.039   7.078   9.192 -0.2818  0.0333 -0.3997
  544loPI   C3A 8697  14.182   7.159   8.834  0.1593  0.1286  0.3558
  544loPI   C4A 8698  14.174   7.254   8.429  0.1908 -0.0051 -0.2321
  544loPI   C5A 8699  14.022   7.344   8.026  0.2234  0.1359  0.0216
  544loPI   C6A 8700  13.899   7.621   7.744 -0.1500 -0.0887 -0.0398
  544loPI   C1B 8701  14.478   7.964   9.820 -0.0266  0.1010 -0.0693
  544loPI   C2B 8702  14.270   7.924   9.449  0.0640 -0.1988  0.0848
  544loPI   C3B 8703  14.202   8.029   8.974 -0.4248 -0.0640  0.0368
  544loPI   C4B 8704  14.296   8.201   8.610  0.2688  0.2654  0.0927
  545loPI    C1 8705   8.258  17.274  10.146  0.2707 -0.0174  0.0647
  545loPI    C2 8706   8.263  16.961  10.395 -0.0068 -0.1232 -0.0591
  545loPI    C3 8707   8.196  17.329  10.537  0.4472 -0.0979  0.1050
  545loPI   PO4 8708   8.173  17.122   9.928  0.0217 -0.2040 -0.1200
  545loPI   GL1 8709   8.239  16.980   9.567  0.2812  0.0427 -0.0335
  545loPI   GL2 8710   8.593  16.995   9.514 -0.1778 -0.2355  0.0160
  545loPI   C1A 8711   8.292  17.012   9.136  0.1580 -0.4208 -0.0648
  545loPI   C2A 8712   8.551  16.991   8.782  0.0547 -0.2148 -0.2979
  545loPI   C3A 8713   9.040  17.181   8.630 -0.2976 -0.0641 -0.0590
  545loPI   C4A 8714   9.105  17.263   8.142  0.1230 -0.0217  0.1488
  545loPI   C5A 8715   9.214  17.160   7.733  0.0047  0.3419  0.0593
  545loPI   C6A 8716   9.224  17.039   7.368  0.2067  0.1227  0.0382
  545loPI   C1B 8717   8.832  17.233   9.169  0.0711 -0.0104  0.3829
  545loPI   C2B 8718   9.160  17.390   9.109  0.0503 -0.0009 -0.2986
  545loPI   C3B 8719   9.283  17.627   8.781  0.0921  0.0614 -0.3059
  545loPI   C4B 8720   9.449  17.519   8.468 -0.0540  0.0745 -0.0977
  546loPI    C1 8721  17.067   1.289  10.853  0.1587  0.0997  0.1012
  546loPI    C2 8722  16.786   1.437  11.095  0.0116  0.2163 -0.1361
  546loPI    C3 8723  16.911   1.059  11.140 -0.1169  0.1920  0.0288
  546loPI   PO4 8724  17.008   1.357  10.559  0.0847  0.1714 -0.0965
  546loPI   GL1 8725  17.125   1.125  10.200  0.0292  0.0982  0.1344
  546loPI   GL2 8726  17.064   0.921  10.022 -0.1217  0.0464  0.2083
  546loPI   C1A 8727  17.360   1.220   9.778  0.1269 -0.1785 -0.0203
  546loPI   C2A 8728  17.489   1.085   9.475  0.1334  0.2285  0.3647
  546loPI   C3A 8729  17.512   1.183   8.992 -0.3053  0.1012  0.0489
  546loPI   C4A 8730  17.577   1.125   8.592 -0.1647  0.0347 -0.0238
  546loPI   C5A 8731  17.565   1.133   8.182 -0.1358  0.1785 -0.1393
  546loPI   C6A 8732  17.833   1.067   7.893  0.3821  0.2295  0.2128
  546loPI   C1B 8733  17.048   0.749   9.590 -0.1346 -0.0467 -0.4311
  546loPI   C2B 8734  17.199   0.845   9.154 -0.2451 -0.0964 -0.0554
  546loPI   C3B 8735  17.169   0.936   8.713 -0.4708  0.2755  0.0004
  546loPI   C4B 8736  17.350   0.741   8.342  0.0851  0.0559 -0.0894
  547loPI    C1 8737  13.981   5.507  10.667 -0.0233 -0.2027  0.0958
  547loPI    C2 8738  13.811   5.794  10.888 -0.0211 -0.0479 -0.1005
  547loPI    C3 8739  14.184   5.672  10.969 -0.0800 -0.1089  0.0829
  547loPI   PO4 8740  13.879   5.633  10.388  0.1216 -0.0785  0.2582
  547loPI   GL1 8741  13.977   5.523  10.073  0.1633 -0.1544  0.3385
  547loPI   GL2 8742  13.722   5.263  10.068  0.1273  0.1886  0.3454
  547loPI   C1A 8743  14.113   5.410   9.635 -0.0790  0.0633  0.0981
  547loPI   C2A 8744  14.077   5.320   9.258 -0.2342 -0.0474  0.2428
  547loPI   C3A 8745  13.824   5.370   8.982 -0.1692  0.0812 -0.0127
  547loPI   C4A 8746  13.533   5.688   8.786 -0.1344  0.2692  0.1248
  547loPI   C5A 8747  13.591   5.856   8.369 -0.1047  0.3198 -0.1334
  547loPI   C6A 8748  13.503   5.992   8.023  0.1988  0.1563  0.0059
  547loPI   C1B 8749  13.599   5.384   9.694 -0.3049  0.3332 -0.1367
  547loPI   C2B 8750  13.463   5.660   9.372  0.0007  0.2955  0.0839
  547loPI   C3B 8751  13.198   5.935   9.058  0.0975  0.1548  0.1420
  547loPI   C4B 8752  12.945   6.297   9.185 -0.1263 -0.0545  0.3651
  548loPI    C1 8753   7.668  14.657  10.009  0.1904  0.0023 -0.1394
  548loPI    C2 8754   7.808  14.609  10.380  0.0268 -0.0463 -0.0830
  548loPI    C3 8755   7.563  14.914  10.297  0.1763  0.0479 -0.1846
  548loPI   PO4 8756   7.731  14.457   9.811 -0.0912 -0.1296 -0.2595
  548loPI   GL1 8757   7.952  14.536   9.490 -0.3272 -0.1311 -0.1718
  548loPI   GL2 8758   8.109  14.195   9.630  0.1093  0.0281  0.1891
  548loPI   C1A 8759   7.500  14.458   9.197 -0.1049  0.2030 -0.0885
  548loPI   C2A 8760   7.570  14.598   8.686  0.1353 -0.0361 -0.0181
  548loPI   C3A 8761   7.408  14.633   8.216  0.3620  0.0266 -0.2065
  548loPI   C4A 8762   7.410  14.632   7.763 -0.0504 -0.1226 -0.4326
  548loPI   C5A 8763   7.130  14.736   7.371 -0.3034 -0.0368 -0.2393
  548loPI   C6A 8764   6.984  14.634   7.062  0.3431 -0.4802 -0.2840
  548loPI   C1B 8765   8.160  14.256   9.143 -0.0703 -0.2497  0.2361
  548loPI   C2B 8766   7.996  14.431   8.919 -0.2237  0.0020  0.0723
  548loPI   C3B 8767   8.012  14.476   8.519  0.4516  0.1432  0.2856
  548loPI   C4B 8768   7.974  14.479   8.081 -0.0440  0.2372  0.1575
  549loPI    C1 8769   4.358   7.666   9.835 -0.1600  0.1644  0.0076
  549loPI    C2 8770   4.252   7.834  10.182 -0.1701  0.0273  0.0719
  549loPI    C3 8771   3.999   7.589   9.993 -0.0631 -0.1079  0.1022
  549loPI   PO4 8772   4.545   7.865   9.710 -0.4512  0.1876  0.0351
  549loPI   GL1 8773   4.792   7.873   9.307  0.0179  0.0926 -0.2900
  549loPI   GL2 8774   5.122   7.792   9.308  0.2764 -0.1612  0.0317
  549loPI   C1A 8775   4.641   7.682   8.850 -0.1838 -0.2329 -0.2965
  549loPI   C2A 8776   4.666   7.844   8.381 -0.2963  0.1241 -0.1687
  549loPI   C3A 8777   4.824   7.910   8.031  0.2502 -0.2269 -0.0518
  549loPI   C4A 8778   5.146   7.673   7.742  0.1946  0.0400  0.0301
  549loPI   C5A 8779   5.312   7.231   7.612 -0.0774 -0.0307  0.1541
  549loPI   C6A 8780   5.663   7.110   7.354  0.4137  0.1855  0.1163
  549loPI   C1B 8781   5.510   7.781   8.910  0.0960 -0.1985 -0.0951
  549loPI   C2B 8782   5.586   8.042   8.555  0.3154 -0.0019  0.1089
  549loPI   C3B 8783   5.922   8.349   8.636  0.2058 -0.1641  0.0987
  549loPI   C4B 8784   6.159   8.609   9.048  0.3553  0.0965  0.0483
  550loPI    C1 8785   3.073  15.206   9.716  0.4026  0.0075  0.1729
  550loPI    C2 8786   2.956  15.045  10.064  0.0518 -0.1997 -0.0349
  550loPI    C3 8787   2.973  15.443  10.023  0.2417 -0.1742  0.2630
  550loPI   PO4 8788   2.932  15.046   9.480  0.1633  0.2963 -0.0227
  550loPI   GL1 8789   2.706  14.887   9.212  0.3332 -0.0483 -0.0382
  550loPI   GL2 8790   2.575  15.176   9.088 -0.0085  0.0493 -0.3019
  550loPI   C1A 8791   2.377  14.710   8.852 -0.2837 -0.2745  0.3473
  550loPI   C2A 8792   2.283  14.702   8.348  0.1743 -0.0730  0.0428
  550loPI   C3A 8793   2.390  14.701   7.908 -0.1462 -0.0668  0.0380
  550loPI   C4A 8794   2.223  14.801   7.695  0.0641 -0.0292  0.3202
  550loPI   C5A 8795   2.206  14.947   7.266  0.0282 -0.0295 -0.0659
  550loPI   C6A 8796   1.957  14.837   6.900  0.0017  0.1916  0.1374
  550loPI   C1B 8797   2.392  15.330   8.785 -0.0219  0.0233 -0.2905
  550loPI   C2B 8798   2.316  15.267   8.421  0.0625  0.2602  0.1993
  550loPI   C3B 8799   2.160  15.143   8.016  0.0146 -0.0139  0.0996
  550loPI   C4B 8800   1.993  15.315   7.616  0.0028  0.1935 -0.2404
  551loPI    C1 8801  16.539  15.573  10.451 -0.0602  0.0297  0.0358
  551loPI    C2 8802  16.268  15.838  10.580 -0.0132  0.2081 -0.2234
  551loPI    C3 8803  16.598  15.768  10.795 -0.2248  0.0474  0.0549
  551loPI   PO4 8804  16.601  15.590  10.262  0.2862  0.1694 -0.0097
  551loPI   GL1 8805  16.568  15.247   9.970  0.1837 -0.2349  0.1216
  551loPI   GL2 8806  16.827  15.368   9.851 -0.2673 -0.0371  0.2298
  551loPI   C1A 8807  16.461  15.376   9.498  0.0244 -0.0449  0.0189
  551loPI   C2A 8808  16.674  15.570   9.111  0.2338  0.0495  0.2562
  551loPI   C3A 8809  16.647  15.608   8.731 -0.0625 -0.2099 -0.1294
  551loPI   C4A 8810  16.615  15.665   8.291 -0.0798  0.2821 -0.4973
  551loPI   C5A 8811  16.625  15.794   7.840  0.0490  0.0510 -0.2359
  551loPI   C6A 8812  16.928  15.902   7.531  0.2448  0.2428 -0.1278
  551loPI   C1B 8813  16.990  15.716   9.514  0.2381  0.1447  0.1010
  551loPI   C2B 8814  17.122  15.679   9.123  0.2202 -0.0781  0.0990
  551loPI   C3B 8815  17.149  15.543   8.734 -0.3861  0.0647 -0.1572
  551loPI   C4B 8816  17.190  15.383   8.333  0.0489 -0.1733 -0.0769
  552loPI    C1 8817  10.245  16.467  10.099 -0.1802 -0.0497 -0.0905
  552loPI    C2 8818  10.208  16.589  10.478  0.0423  0.0456 -0.0979
  552loPI    C3 8819  10.296  16.207  10.398 -0.2339 -0.0275 -0.0618
  552loPI   PO4 8820   9.985  16.568   9.958  0.0790  0.1413  0.0860
  552loPI   GL1 8821   9.816  16.267   9.545  0.2553  0.0421 -0.2321
  552loPI   GL2 8822   9.636  16.559   9.465 -0.2543 -0.0642 -0.3509
  552loPI   C1A 8823   9.837  16.163   9.171  0.1252 -0.0981  0.0079
  552loPI   C2A 8824   9.878  16.188   8.746 -0.1401  0.1035 -0.1929
  552loPI   C3A 8825   9.906  16.241   8.299 -0.1419  0.0968 -0.2895
  552loPI   C4A 8826   9.817  16.092   7.875  0.2355 -0.3578  0.1930
  552loPI   C5A 8827   9.665  15.754   7.585  0.2121  0.1581 -0.0065
  552loPI   C6A 8828   9.592  15.688   7.224 -0.1351  0.1038 -0.1812
  552loPI   C1B 8829   9.632  16.560   8.970  0.0048  0.1649 -0.0773
  552loPI   C2B 8830   9.387  16.492   8.673  0.0267  0.0927 -0.3210
  552loPI   C3B 8831   9.497  16.562   8.267 -0.1143 -0.1400 -0.1314
  552loPI   C4B 8832   9.554  16.650   7.823 -0.1793  0.1411  0.4662
  553loPI    C1 8833   2.914   8.263  10.029  0.0889  0.0764  0.0901
  553loPI    C2 8834   2.999   8.529  10.315 -0.1990  0.1265  0.1321
  553loPI    C3 8835   2.660   8.319  10.333 -0.2284  0.1426 -0.1820
  553loPI   PO4 8836   2.904   8.380   9.657  0.0522  0.0656 -0.1109
  553loPI   GL1 8837   3.300   8.554   9.406 -0.1318 -0.1445 -0.0256
  553loPI   GL2 8838   3.304   8.843   9.211  0.0395  0.1080  0.2564
  553loPI   C1A 8839   3.227   8.437   9.008 -0.0487 -0.1987  0.0296
  553loPI   C2A 8840   3.290   8.307   8.585 -0.1425  0.0089  0.2106
  553loPI   C3A 8841   3.208   8.465   8.182 -0.0339  0.1197  0.0275
  553loPI   C4A 8842   3.305   8.467   7.727 -0.0589  0.0061  0.1742
  553loPI   C5A 8843   3.155   8.342   7.314  0.0186  0.1368 -0.2628
  553loPI   C6A 8844   3.139   8.264   6.936 -0.3611  0.1320 -0.1182
  553loPI   C1B 8845   3.208   8.929   8.889  0.0678  0.3220  0.0045
  553loPI   C2B 8846   3.143   9.012   8.365  0.2655  0.5548  0.1087
  553loPI   C3B 8847   2.973   9.398   8.113 -0.0026  0.0088 -0.3993
  553loPI   C4B 8848   2.939   9.524   7.675  0.0733 -0.1636 -0.0364
  554loPI    C1 8849  14.161  16.071  10.269  0.0705 -0.0629  0.2686
  554loPI    C2 8850  13.993  15.764  10.076 -0.1045  0.0946  0.1663
  554loPI    C3 8851  14.264  15.696  10.363 -0.0282 -0.1490  0.0397
  554loPI   PO4 8852  14.266  16.258  10.023 -0.1404 -0.0836 -0.0974
  554loPI   GL1 8853  14.283  16.137   9.654  0.3208  0.1364 -0.2723
  554loPI   GL2 8854  14.528  16.439   9.612  0.1666 -0.0629 -0.0377
  554loPI   C1A 8855  14.273  16.022   9.174  0.3434  0.0577 -0.3775
  554loPI   C2A 8856  14.199  16.058   8.742 -0.3053  0.1720  0.1636
  554loPI   C3A 8857  14.363  16.141   8.325 -0.1890 -0.3739 -0.0499
  554loPI   C4A 8858  14.698  15.980   8.106 -0.0974  0.1134  0.1276
  554loPI   C5A 8859  15.103  16.082   7.980 -0.0016  0.2967 -0.1383
  554loPI   C6A 8860  15.417  16.379   7.957  0.0646  0.0188  0.2592
  554loPI   C1B 8861  14.567  16.442   9.215 -0.1664  0.1632 -0.0429
  554loPI   C2B 8862  14.649  16.401   8.681  0.2108  0.0322 -0.0861
  554loPI   C3B 8863  14.710  16.487   8.114  0.2314  0.1480 -0.0117
  554loPI   C4B 8864  14.770  16.389   7.707 -0.0895  0.0643 -0.3329
  555loPI    C1 8865  15.861  10.004  10.822  0.0693 -0.0029  0.0737
  555loPI    C2 8866  15.474   9.963  10.730  0.0390  0.4710 -0.0326
  555loPI    C3 8867  15.590   9.958  11.112 -0.0134 -0.0854 -0.0157
  555loPI   PO4 8868  16.001   9.939  10.634  0.1284 -0.0885  0.1154
  555loPI   GL1 8869  15.887  10.115  10.204  0.1216  0.0530 -0.0175
  555loPI   GL2 8870  15.724   9.850  10.192 -0.0659 -0.1154  0.4720
  555loPI   C1A 8871  16.199  10.212   9.880  0.0135 -0.4281 -0.1529
  555loPI   C2A 8872  16.055  10.169   9.477 -0.3882  0.3803 -0.0479
  555loPI   C3A 8873  16.182  10.145   9.166 -0.0714  0.3331 -0.2497
  555loPI   C4A 8874  16.182  10.193   8.821  0.0062 -0.1043 -0.1730
  555loPI   C5A 8875  16.252  10.272   8.378  0.2277 -0.2691 -0.1086
  555loPI   C6A 8876  16.527  10.039   8.175  0.1573  0.1675 -0.2143
  555loPI   C1B 8877  15.639  10.119   9.808  0.2198 -0.0834  0.0704
  555loPI   C2B 8878  15.585  10.056   9.369  0.0570 -0.2922 -0.1942
  555loPI   C3B 8879  15.643  10.088   8.948  0.3058 -0.2382 -0.1991
  555loPI   C4B 8880  15.801  10.061   8.546 -0.2291  0.0009  0.2298
  556loPI    C1 8881  12.121   4.029  10.096 -0.0962  0.0025  0.1145
  556loPI    C2 8882  12.141   4.214  10.451 -0.0683  0.0700  0.0779
  556loPI    C3 8883  12.455   4.006  10.315 -0.1493 -0.1243  0.1833
  556loPI   PO4 8884  11.909   4.189   9.932 -0.2214 -0.0297  0.2290
  556loPI   GL1 8885  11.790   4.244   9.499 -0.2296  0.3611  0.0830
  556loPI   GL2 8886  11.936   3.821   9.531 -0.1345 -0.0264 -0.2935
  556loPI   C1A 8887  11.876   4.516   9.196 -0.1210  0.1293 -0.0691
  556loPI   C2A 8888  11.956   4.502   8.737  0.1040  0.1039  0.1363
  556loPI   C3A 8889  11.722   4.580   8.445  0.0752  0.0084  0.1064
  556loPI   C4A 8890  11.491   4.912   8.188  0.1573  0.0905 -0.1234
  556loPI   C5A 8891  11.172   5.159   8.165 -0.0750  0.1215 -0.0836
  556loPI   C6A 8892  10.901   5.474   7.943 -0.2626  0.1298 -0.2456
  556loPI   C1B 8893  11.926   3.894   9.144  0.0989  0.0578  0.1059
  556loPI   C2B 8894  11.933   4.038   8.649  0.0560  0.0286 -0.2639
  556loPI   C3B 8895  11.851   4.121   8.216 -0.0346  0.1189 -0.1457
  556loPI   C4B 8896  11.935   4.006   7.720 -0.0400 -0.1561  0.0258
  557loPI    C1 8897   4.472   6.188   9.989 -0.3169 -0.1215 -0.2806
  557loPI    C2 8898   4.211   6.232  10.289 -0.3029 -0.0567 -0.2779
  557loPI    C3 8899   4.427   6.545  10.164  0.1059 -0.2091  0.0240
  557loPI   PO4 8900   4.442   6.063   9.740  0.1636  0.2791 -0.2546
  557loPI   GL1 8901   4.211   6.139   9.405  0.3430  0.2698  0.0605
  557loPI   GL2 8902   4.013   6.458   9.301 -0.2281  0.0173 -0.1284
  557loPI   C1A 8903   4.447   6.009   9.098 -0.0601  0.0300 -0.1839
  557loPI   C2A 8904   4.804   6.195   8.853  0.0506 -0.1119 -0.1699
  557loPI   C3A 8905   4.925   6.465   8.559 -0.1352 -0.2258 -0.2345
  557loPI   C4A 8906   5.149   6.504   8.251 -0.1517  0.2168  0.2891
  557loPI   C5A 8907   5.102   6.719   7.924 -0.1294  0.0569 -0.1822
  557loPI   C6A 8908   4.900   6.885   7.547 -0.0274 -0.3392  0.0253
  557loPI   C1B 8909   4.103   6.345   8.916  0.1408  0.0251  0.1662
  557loPI   C2B 8910   4.346   6.177   8.565 -0.1517 -0.0693 -0.1170
  557loPI   C3B 8911   4.165   6.171   8.091  0.3190  0.3578  0.2691
  557loPI   C4B 8912   4.435   5.994   7.765 -0.2313 -0.0291 -0.3035
  558loPI    C1 8913  16.003  11.520  10.798  0.0041  0.2416 -0.2765
  558loPI    C2 8914  15.648  11.701  10.768 -0.0298  0.1601 -0.3706
  558loPI    C3 8915  15.690  11.322  10.647 -0.0221  0.0187  0.0567
  558loPI   PO4 8916  16.138  11.607  10.738 -0.0086 -0.1297 -0.2590
  558loPI   GL1 8917  16.398  11.599  10.368 -0.0466 -0.0366 -0.1900
  558loPI   GL2 8918  16.194  11.388  10.261  0.3977  0.0663  0.0486
  558loPI   C1A 8919  16.496  11.709   9.868  0.0503  0.1542 -0.1206
  558loPI   C2A 8920  16.413  11.782   9.462 -0.1368  0.0783  0.1081
  558loPI   C3A 8921  16.260  11.635   8.959 -0.1674 -0.2036 -0.1781
  558loPI   C4A 8922  16.002  11.662   8.748  0.0572  0.0892 -0.0667
  558loPI   C5A 8923  15.692  11.758   8.388 -0.0225 -0.0580  0.0749
  558loPI   C6A 8924  15.349  11.906   8.114  0.4712  0.2214  0.0823
  558loPI   C1B 8925  16.050  11.574   9.857  0.5699  0.0754  0.0358
  558loPI   C2B 8926  15.974  11.539   9.407  0.1757 -0.1955  0.0632
  558loPI   C3B 8927  15.733  11.421   9.107 -0.2293  0.2441 -0.2352
  558loPI   C4B 8928  15.545  11.472   8.782  0.0212  0.0197 -0.0214
  559loPI    C1 8929   0.023   7.265  10.317 -0.2360 -0.1023 -0.0066
  559loPI    C2 8930  -0.233   7.194  10.615  0.1161 -0.1316  0.2957
  559loPI    C3 8931   0.113   7.379  10.689  0.0044  0.2876 -0.1780
  559loPI   PO4 8932  -0.102   7.185  10.140  0.0830  0.0421  0.0663
  559loPI   GL1 8933  -0.234   7.373   9.803 -0.1767  0.0081 -0.2790
  559loPI   GL2 8934  -0.525   7.378   9.722 -0.1477  0.3297  0.1244
  559loPI   C1A 8935  -0.194   7.459   9.329  0.2361 -0.1114  0.0516
  559loPI   C2A 8936  -0.324   7.330   8.876 -0.1600 -0.1810 -0.1955
  559loPI   C3A 8937  -0.618   7.313   8.552 -0.4074  0.0363 -0.0547
  559loPI   C4A 8938  -0.771   7.481   8.159 -0.2099 -0.1980 -0.1750
  559loPI   C5A 8939  -1.162   7.629   8.230  0.0241  0.1648 -0.0700
  559loPI   C6A 8940  -1.515   7.872   8.128 -0.1941 -0.4555  0.2642
  559loPI   C1B 8941  -0.638   7.264   9.292  0.2701  0.1313  0.2306
  559loPI   C2B 8942  -0.763   7.083   8.938  0.0185  0.1485 -0.1096
  559loPI   C3B 8943  -0.732   6.805   8.549 -0.2194 -0.1339 -0.0904
  559loPI   C4B 8944  -0.650   6.792   8.138  0.1187  0.1697  0.2130
  560loPI    C1 8945   4.195  12.280  10.190  0.1728 -0.0513 -0.0600
  560loPI    C2 8946   4.029  11.924  10.264  0.0907 -0.0255 -0.1190
  560loPI    C3 8947   4.261  12.097  10.540 -0.2223  0.0750  0.0862
  560loPI   PO4 8948   3.946  12.426  10.076 -0.0342 -0.1113 -0.1009
  560loPI   GL1 8949   3.950  12.602   9.710  0.1640 -0.0982  0.0669
  560loPI   GL2 8950   3.630  12.450   9.663  0.1320  0.0206  0.2208
  560loPI   C1A 8951   3.991  12.562   9.269  0.0132 -0.0700 -0.2281
  560loPI   C2A 8952   3.982  12.618   8.745  0.1167 -0.0880 -0.0419
  560loPI   C3A 8953   3.874  12.727   8.361  0.2121 -0.1486  0.3009
  560loPI   C4A 8954   3.816  12.834   7.854  0.0317  0.3633 -0.1370
  560loPI   C5A 8955   4.095  12.656   7.568  0.5649 -0.1037 -0.0649
  560loPI   C6A 8956   4.403  12.750   7.239  0.1016 -0.2070 -0.4630
  560loPI   C1B 8957   3.435  12.575   9.245 -0.2503 -0.2661 -0.2817
  560loPI   C2B 8958   3.504  12.802   8.814 -0.0480 -0.0550  0.0486
  560loPI   C3B 8959   3.343  12.745   8.390  0.0136 -0.3119 -0.0105
  560loPI   C4B 8960   3.338  12.672   8.031  0.0116 -0.0417  0.1028
  561loPI    C1 8961   4.863   1.451   9.938  0.0821 -0.1733  0.0555
  561loPI    C2 8962   4.770   1.168  10.204  0.0888 -0.1042  0.1320
  561loPI    C3 8963   4.870   1.534  10.329  0.1555 -0.0895  0.0369
  561loPI   PO4 8964   4.795   1.394   9.758 -0.3633 -0.0407  0.2103
  561loPI   GL1 8965   4.663   1.373   9.409 -0.1079  0.1922  0.0423
  561loPI   GL2 8966   4.797   1.121   9.171  0.1267 -0.4558 -0.2934
  561loPI   C1A 8967   4.411   1.445   9.055 -0.0382 -0.1768  0.0198
  561loPI   C2A 8968   4.459   1.629   8.626  0.2427 -0.2403 -0.0903
  561loPI   C3A 8969   4.668   1.648   8.222 -0.0862 -0.2810 -0.1710
  561loPI   C4A 8970   4.624   1.738   7.753  0.2242 -0.3994  0.0411
  561loPI   C5A 8971   4.578   1.852   7.316  0.0488  0.1555  0.1971
  561loPI   C6A 8972   4.155   2.168   7.188 -0.0734 -0.1522 -0.2046
  561loPI   C1B 8973   4.777   1.241   8.743 -0.1714  0.1282 -0.2236
  561loPI   C2B 8974   4.704   1.155   8.261  0.1357  0.2505  0.1685
  561loPI   C3B 8975   4.523   1.230   7.878 -0.0711 -0.0447  0.2795
  561loPI   C4B 8976   4.559   1.292   7.433 -0.0933  0.0539 -0.0965
  562loPI    C1 8977  18.424  18.639  10.384  0.0234 -0.0488 -0.0378
  562loPI    C2 8978  18.274  18.449  10.703 -0.2819  0.1942 -0.0320
  562loPI    C3 8979  18.522  18.759  10.753  0.1084 -0.1097 -0.0404
  562loPI   PO4 8980  18.355  18.654  10.134 -0.0375 -0.2909 -0.0199
  562loPI   GL1 8981  18.485  18.680   9.689  0.1470  0.0927  0.0893
  562loPI   GL2 8982  18.160  18.583   9.688  0.0892  0.1257 -0.1541
  562loPI   C1A 8983  18.397  18.927   9.384  0.1316  0.2864  0.2058
  562loPI   C2A 8984  18.664  18.998   9.099  0.0682  0.0757 -0.3179
  562loPI   C3A 8985  18.734  18.682   8.787 -0.1866  0.0355  0.1344
  562loPI   C4A 8986  18.684  18.410   8.440 -0.2192  0.3068  0.2896
  562loPI   C5A 8987  18.722  18.248   8.035 -0.1085  0.2176  0.0238
  562loPI   C6A 8988  18.601  18.328   7.606  0.0884  0.1849 -0.1857
  562loPI   C1B 8989  18.119  18.403   9.304  0.1218 -0.2332 -0.0441
  562loPI   C2B 8990  17.943  18.539   8.925  0.0155 -0.2310 -0.0727
  562loPI   C3B 8991  17.845  18.884   8.588  0.1191  0.2691 -0.0049
  562loPI   C4B 8992  17.591  19.130   8.246 -0.2085  0.2027  0.1252
  563loPI    C1 8993  14.529   4.015   9.909 -0.1047 -0.1171 -0.1308
  563loPI    C2 8994  14.378   3.850  10.241 -0.1949  0.2059 -0.0070
  563loPI    C3 8995  14.399   4.248  10.208 -0.0260  0.1740 -0.3195
  563loPI   PO4 8996  14.740   3.910   9.846 -0.1533 -0.0123 -0.0835
  563loPI   GL1 8997  14.888   3.613   9.617  0.2569  0.3788 -0.0217
  563loPI   GL2 8998  14.614   3.558   9.507 -0.1980 -0.0327  0.3338
  563loPI   C1A 8999  14.990   3.553   9.220  0.0242  0.0041  0.0157
  563loPI   C2A 9000  14.771   3.635   8.823  0.0952 -0.0624 -0.0176
  563loPI   C3A 9001  14.832   3.664   8.540 -0.0344  0.1082  0.1248
  563loPI   C4A 9002  14.846   3.882   8.252  0.1396 -0.1500 -0.1203
  563loPI   C5A 9003  14.992   3.908   7.886  0.2658  0.2308  0.0204
  563loPI   C6A 9004  15.073   4.082   7.496  0.2236 -0.0784 -0.2968
  563loPI   C1B 9005  14.450   3.861   9.144 -0.2529 -0.1330 -0.1334
  563loPI   C2B 9006  14.505   4.038   8.803  0.2456 -0.3574 -0.0614
  563loPI   C3B 9007  14.403   4.082   8.418 -0.3265 -0.2263 -0.1830
  563loPI   C4B 9008  14.526   4.337   8.072  0.0087  0.2087  0.0302
  564loPI    C1 9009   8.663  10.863  10.374  0.0973  0.3465  0.1188
  564loPI    C2 9010   8.434  10.640  10.615  0.1156  0.0037 -0.1717
  564loPI    C3 9011   8.760  10.822  10.760  0.1263 -0.1962  0.0618
  564loPI   PO4 9012   8.670  10.688  10.035  0.1242  0.2941 -0.2635
  564loPI   GL1 9013   8.728  10.364   9.768  0.1273  0.1201  0.2020
  564loPI   GL2 9014   8.772  10.087   9.783  0.0363 -0.2351 -0.0731
  564loPI   C1A 9015   8.570  10.349   9.401  0.2221 -0.0967  0.2782
  564loPI   C2A 9016   8.594  10.148   8.968 -0.2773  0.1389 -0.1826
  564loPI   C3A 9017   8.687   9.771   8.626 -0.0251  0.4861  0.1135
  564loPI   C4A 9018   8.679   9.453   8.227 -0.0449 -0.1784 -0.5031
  564loPI   C5A 9019   8.613   9.338   7.793  0.1872 -0.1604  0.0494
  564loPI   C6A 9020   8.550   9.039   7.605  0.3271  0.0543 -0.1316
  564loPI   C1B 9021   8.962  10.024   9.301  0.1503 -0.2164 -0.0801
  564loPI   C2B 9022   9.130   9.891   8.882  0.0313 -0.2899  0.0313
  564loPI   C3B 9023   8.895  10.164   8.519 -0.1489 -0.2127 -0.2805
  564loPI   C4B 9024   8.735   9.995   8.203  0.3114 -0.3111  0.3755
  565loPI    C1 9025  17.978   9.173  10.287 -0.0382  0.0300 -0.2451
  565loPI    C2 9026  18.279   9.382  10.447 -0.1250  0.1139 -0.1899
  565loPI    C3 9027  18.251   8.989  10.515 -0.1064  0.1312 -0.0795
  565loPI   PO4 9028  17.680   9.387  10.343  0.1210 -0.1053 -0.2936
  565loPI   GL1 9029  17.487   9.647  10.010  0.4622 -0.1375  0.1092
  565loPI   GL2 9030  17.718   9.900  10.010 -0.2011 -0.0081 -0.0687
  565loPI   C1A 9031  17.466   9.536   9.647 -0.0904  0.1831  0.0838
  565loPI   C2A 9032  17.631   9.646   9.322  0.4208  0.0771 -0.0978
  565loPI   C3A 9033  17.483   9.688   9.007  0.1181  0.1415 -0.2963
  565loPI   C4A 9034  17.411   9.723   8.659 -0.1585 -0.1013  0.1544
  565loPI   C5A 9035  17.440   9.878   8.200 -0.3435 -0.0624  0.0544
  565loPI   C6A 9036  17.702   9.925   7.833  0.1038 -0.0082 -0.0972
  565loPI   C1B 9037  17.813   9.973   9.621 -0.0395 -0.1911  0.0551
  565loPI   C2B 9038  18.086  10.007   9.295 -0.0048 -0.0421 -0.0695
  565loPI   C3B 9039  18.308  10.058   8.989  0.1846 -0.3493  0.2162
  565loPI   C4B 9040  18.616  10.149   8.608  0.0614  0.0871 -0.1786
  566loPI    C1 9041   5.240   1.765  10.027  0.0699 -0.1091 -0.3996
  566loPI    C2 9042   5.628   1.669  10.047  0.1413  0.2494  0.1088
  566loPI    C3 9043   5.374   1.533  10.325 -0.0544  0.2159 -0.0842
  566loPI   PO4 9044   5.224   1.767   9.750 -0.3005 -0.1444  0.1817
  566loPI   GL1 9045   4.951   1.850   9.420  0.5788 -0.1752 -0.0196
  566loPI   GL2 9046   4.944   1.649   9.066 -0.0663  0.0149  0.1488
  566loPI   C1A 9047   5.222   2.020   9.001 -0.0846  0.3232 -0.2694
  566loPI   C2A 9048   5.478   1.792   8.672 -0.3070 -0.4907 -0.2258
  566loPI   C3A 9049   5.596   1.717   8.271 -0.1270 -0.1697 -0.0017
  566loPI   C4A 9050   5.646   1.893   7.832 -0.1769 -0.2476 -0.1045
  566loPI   C5A 9051   5.445   2.149   7.470 -0.2481 -0.1463  0.2463
  566loPI   C6A 9052   5.361   2.518   7.278  0.0436 -0.1748 -0.0524
  566loPI   C1B 9053   4.944   1.711   8.691 -0.0483  0.2790 -0.0627
  566loPI   C2B 9054   5.105   1.945   8.307 -0.2726  0.3558 -0.0570
  566loPI   C3B 9055   5.145   1.972   7.930 -0.1526 -0.0547  0.1849
  566loPI   C4B 9056   4.990   2.017   7.570 -0.1580  0.2313 -0.3096
  567loPI    C1 9057  16.617   2.981  10.161 -0.0343 -0.0650  0.0743
  567loPI    C2 9058  16.456   3.240  10.420 -0.0210 -0.0525  0.0701
  567loPI    C3 9059  16.786   3.037  10.519  0.1562  0.1718 -0.0501
  567loPI   PO4 9060  16.452   2.978   9.972  0.0663  0.2142 -0.0251
  567loPI   GL1 9061  16.451   3.148   9.546  0.1528 -0.3129 -0.3431
  567loPI   GL2 9062  16.696   2.956   9.424  0.1477 -0.1116 -0.0336
  567loPI   C1A 9063  16.206   2.996   9.120 -0.4015  0.3964  0.0782
  567loPI   C2A 9064  16.331   2.972   8.746 -0.0330 -0.1663  0.0779
  567loPI   C3A 9065  16.486   2.785   8.433  0.3185 -0.1973  0.1347
  567loPI   C4A 9066  16.702   2.703   8.061 -0.0759  0.3090  0.1298
  567loPI   C5A 9067  16.791   2.855   7.604  0.0763  0.2239  0.0085
  567loPI   C6A 9068  16.907   3.099   7.270  0.0058 -0.0411  0.0085
  567loPI   C1B 9069  16.603   2.702   9.046  0.0398  0.2334  0.0504
  567loPI   C2B 9070  16.932   2.546   8.801 -0.0772 -0.1481 -0.1577
  567loPI   C3B 9071  17.131   2.654   8.384  0.0448 -0.0830 -0.1699
  567loPI   C4B 9072  17.219   2.782   7.959  0.5087  0.0901  0.0357
  568loPI    C1 9073  13.659  14.529  10.724  0.0807 -0.1045 -0.0164
  568loPI    C2 9074  13.392  14.805  10.838  0.0827  0.0575 -0.3890
  568loPI    C3 9075  13.267  14.453  10.695  0.0798 -0.1232  0.0431
  568loPI   PO4 9076  13.844  14.750  10.612 -0.2186  0.2832  0.2294
  568loPI   GL1 9077  14.107  14.739  10.308 -0.0268  0.0692  0.0863
  568loPI   GL2 9078  13.865  14.893  10.114 -0.0493  0.1626 -0.0808
  568loPI   C1A 9079  14.275  14.593   9.938  0.1874  0.3395 -0.3522
  568loPI   C2A 9080  14.534  14.558   9.580  0.1773  0.1213  0.3520
  568loPI   C3A 9081  14.661  14.367   9.193  0.0105 -0.0932 -0.1287
  568loPI   C4A 9082  14.682  14.418   8.802 -0.4266  0.0456  0.2551
  568loPI   C5A 9083  14.722  14.507   8.238 -0.0298 -0.0346  0.0766
  568loPI   C6A 9084  14.837  14.482   7.737  0.0829  0.0197  0.3603
  568loPI   C1B 9085  13.853  14.733   9.696 -0.1945 -0.1801 -0.0998
  568loPI   C2B 9086  14.014  14.392   9.531 -0.2611 -0.1862  0.0693
  568loPI   C3B 9087  14.153  14.314   9.204 -0.1439  0.1787 -0.2572
  568loPI   C4B 9088  14.227  14.381   8.847  0.1249 -0.1850 -0.0363
  569loPI    C1 9089   7.375   9.344  10.196  0.1033 -0.1605  0.0303
  569loPI    C2 9090   7.604   9.319  10.523  0.0997  0.2141  0.0665
  569loPI    C3 9091   7.505   9.677  10.376  0.0264  0.0503 -0.2955
  569loPI   PO4 9092   7.433   9.268   9.925  0.0060  0.1410  0.3337
  569loPI   GL1 9093   7.359   9.390   9.503 -0.0831  0.2701  0.2369
  569loPI   GL2 9094   7.754   9.427   9.515 -0.1924  0.1074  0.1708
  569loPI   C1A 9095   7.243   9.385   9.034  0.1849  0.4539  0.0868
  569loPI   C2A 9096   7.406   9.336   8.640 -0.5238  0.1214  0.1006
  569loPI   C3A 9097   7.385   9.381   8.226 -0.2585  0.2683  0.1321
  569loPI   C4A 9098   7.311   9.501   7.798 -0.0141  0.0794 -0.1835
  569loPI   C5A 9099   7.419   9.958   7.658  0.1095  0.2783 -0.0161
  569loPI   C6A 9100   7.784   9.967   7.460  0.2622  0.0391  0.1278
  569loPI   C1B 9101   7.652   9.661   9.156  0.3229  0.0005  0.2863
  569loPI   C2B 9102   7.665   9.761   8.765  0.1401 -0.1701  0.0207
  569loPI   C3B 9103   7.782   9.747   8.282  0.1987 -0.0968 -0.2060
  569loPI   C4B 9104   7.767   9.725   8.031  0.1384 -0.2392  0.1735
  570loPI    C1 9105  16.397  13.713  10.915  0.1014  0.2603 -0.0854
  570loPI    C2 9106  16.738  13.821  11.095  0.0224  0.3132  0.0338
  570loPI    C3 9107  16.440  13.662  11.310  0.1053 -0.0691 -0.1255
  570loPI   PO4 9108  16.524  13.699  10.675  0.2644  0.1431  0.0974
  570loPI   GL1 9109  16.507  13.976  10.245 -0.3411  0.0483 -0.0313
  570loPI   GL2 9110  16.760  13.840  10.236 -0.1006  0.1273  0.1730
  570loPI   C1A 9111  16.259  14.136   9.888 -0.2148  0.1455 -0.1420
  570loPI   C2A 9112  16.231  14.050   9.486 -0.0565 -0.1441 -0.4207
  570loPI   C3A 9113  15.848  13.659   9.308 -0.1284 -0.0478 -0.1070
  570loPI   C4A 9114  15.531  13.792   8.929 -0.0109  0.0532 -0.1574
  570loPI   C5A 9115  15.463  13.844   8.539 -0.0628 -0.0238 -0.2543
  570loPI   C6A 9116  15.448  13.542   8.144 -0.2759 -0.1433  0.1304
  570loPI   C1B 9117  16.690  13.685   9.826 -0.1423  0.0536  0.0833
  570loPI   C2B 9118  16.745  13.983   9.535  0.1500  0.2242 -0.1350
  570loPI   C3B 9119  17.081  14.085   9.231  0.1909  0.0397  0.0455
  570loPI   C4B 9120  17.138  14.031   8.782  0.2624 -0.1156  0.0056
  571loPI    C1 9121  14.124   0.577  10.243  0.0619  0.0308  0.1482
  571loPI    C2 9122  13.926   0.309  10.465  0.1572 -0.3014 -0.1587
  571loPI    C3 9123  14.282   0.446  10.586 -0.0534 -0.0333  0.1775
  571loPI   PO4 9124  14.073   0.450   9.942 -0.2374 -0.1797  0.2422
  571loPI   GL1 9125  13.748   0.287   9.695 -0.0044  0.0721 -0.0482
  571loPI   GL2 9126  13.609   0.142   9.438 -0.2750  0.0315 -0.4082
  571loPI   C1A 9127  14.107   0.200   9.326 -0.1305  0.2006 -0.4570
  571loPI   C2A 9128  14.244   0.303   8.964  0.0418  0.2868 -0.3598
  571loPI   C3A 9129  14.307   0.084   8.560  0.1910 -0.0180 -0.0757
  571loPI   C4A 9130  14.114   0.053   8.079 -0.0566  0.1384  0.0577
  571loPI   C5A 9131  13.948   0.065   7.625  0.2846 -0.1584  0.2752
  571loPI   C6A 9132  14.089   0.008   7.197 -0.0750 -0.0089  0.1167
  571loPI   C1B 9133  13.680   0.109   9.001  0.2267 -0.2402 -0.1330
  571loPI   C2B 9134  13.770   0.073   8.599  0.2523  0.0699 -0.0139
  571loPI   C3B 9135  13.634   0.081   8.154  0.1887  0.0912  0.3204
  571loPI   C4B 9136  13.490   0.247   7.811  0.1029  0.0255 -0.0215
  572loPI    C1 9137  10.533  15.823  10.179  0.1243 -0.0065 -0.0959
  572loPI    C2 9138  10.285  15.521  10.095  0.0362  0.0620 -0.0841
  572loPI    C3 9139  10.645  15.446  10.253 -0.0053 -0.0332 -0.0335
  572loPI   PO4 9140  10.471  15.980   9.943  0.0995  0.2653 -0.1784
  572loPI   GL1 9141  10.543  16.307   9.612 -0.1233 -0.2601  0.0567
  572loPI   GL2 9142  10.362  16.538   9.514  0.0563  0.3229 -0.2137
  572loPI   C1A 9143  10.427  16.184   9.209  0.0800 -0.3376 -0.2268
  572loPI   C2A 9144  10.325  15.941   8.925 -0.0839  0.1651 -0.1754
  572loPI   C3A 9145  10.412  15.875   8.587 -0.0202  0.0941  0.2856
  572loPI   C4A 9146  10.727  16.031   8.297  0.2503 -0.1351 -0.3651
  572loPI   C5A 9147  10.962  16.019   8.097 -0.0596 -0.0826 -0.1430
  572loPI   C6A 9148  11.025  15.977   7.591  0.3732 -0.2119  0.1731
  572loPI   C1B 9149  10.094  16.614   9.146  0.1051 -0.1301  0.0221
  572loPI   C2B 9150  10.209  16.499   8.848  0.0577  0.2892 -0.3140
  572loPI   C3B 9151  10.377  16.375   8.411 -0.2302  0.2837 -0.4488
  572loPI   C4B 9152  10.250  15.995   8.036  0.1546 -0.0653 -0.0511
  573POPI    C1 9153  17.414   5.207  10.147  0.0474 -0.1317  0.0029
  573POPI    C2 9154  17.149   5.006  10.370  0.1343 -0.0343  0.1970
  573POPI    C3 9155  17.539   4.923  10.399  0.1402 -0.0671  0.0300
  573POPI   PO4 9156  17.263   5.253   9.924 -0.0355  0.1711 -0.1375
  573POPI   GL1 9157  17.324   5.078   9.535  0.0120 -0.1718 -0.3209
  573POPI   GL2 9158  17.449   4.746   9.461 -0.1572 -0.0411  0.1617
  573POPI   C1A 9159  17.538   5.156   9.072 -0.0515 -0.0390 -0.3347
  573POPI   D2A 9160  17.564   5.445   8.789 -0.3250  0.0165  0.3743
  573POPI   C3A 9161  17.888   5.449   8.591 -0.0632  0.0545 -0.3180
  573POPI   C4A 9162  18.031   5.378   8.153  0.1103 -0.1631  0.0579
  573POPI   C1B 9163  17.539   4.595   9.020  0.1312  0.6548 -0.2364
  573POPI   C2B 9164  17.730   4.865   8.655 -0.1301 -0.1910  0.0570
  573POPI   C3B 9165  17.635   5.048   8.291 -0.2517 -0.1176 -0.0018
  573POPI   C4B 9166  17.510   5.524   8.307 -0.0275  0.3541  0.1767
  574POPI    C1 9167  12.496  16.719  10.556  0.1522 -0.3551  0.0527
  574POPI    C2 9168  12.125  16.719  10.406  0.1903 -0.1143 -0.0472
  574POPI    C3 9169  12.184  16.651  10.796  0.0274  0.0108  0.0002
  574POPI   PO4 9170  12.577  16.809  10.357 -0.2550  0.0559 -0.0882
  574POPI   GL1 9171  12.778  16.755   9.907  0.1107  0.0856 -0.0006
  574POPI   GL2 9172  12.899  16.922   9.838 -0.0329 -0.4727  0.1374
  574POPI   C1A 9173  12.582  16.786   9.479 -0.1137 -0.0822 -0.3539
  574POPI   D2A 9174  12.663  16.637   9.113  0.1011  0.1510 -0.1162
  574POPI   C3A 9175  12.706  16.780   8.676 -0.2195  0.1169 -0.0772
  574POPI   C4A 9176  13.131  16.994   8.515  0.0254  0.1522  0.1088
  574POPI   C1B 9177  13.012  16.988   9.424  0.0107 -0.1477 -0.0229
  574POPI   C2B 9178  12.890  17.121   9.049  0.0045 -0.1112 -0.2174
  574POPI   C3B 9179  12.805  17.335   8.690  0.1404  0.1298  0.1436
  574POPI   C4B 9180  12.856  17.549   8.367  0.2707 -0.0001  0.0779
  575POPI    C1 9181   4.176   2.722  10.208 -0.2028 -0.0809 -0.1806
  575POPI    C2 9182   4.043   2.382  10.371  0.0173 -0.1514 -0.1451
  575POPI    C3 9183   4.184   2.675  10.605 -0.1369 -0.0499 -0.1780
  575POPI   PO4 9184   4.299   2.673   9.996 -0.0524  0.3083  0.2366
  575POPI   GL1 9185   4.148   2.718   9.615 -0.1765  0.0140  0.0361
  575POPI   GL2 9186   4.154   3.012   9.468  0.0270  0.2040 -0.0930
  575POPI   C1A 9187   4.158   2.539   9.150  0.2024 -0.0406 -0.3243
  575POPI   D2A 9188   4.298   2.338   8.843 -0.2453  0.2932 -0.2244
  575POPI   C3A 9189   4.253   2.425   8.390  0.1142 -0.2577  0.0508
  575POPI   C4A 9190   4.262   2.621   7.978 -0.0832  0.2548  0.1324
  575POPI   C1B 9191   4.203   3.422   9.137  0.0258  0.0327 -0.0460
  575POPI   C2B 9192   4.264   3.402   8.706 -0.1671 -0.2069  0.0927
  575POPI   C3B 9193   4.183   3.607   8.286 -0.0825 -0.1115  0.3377
  575POPI   C4B 9194   4.228   3.637   7.893  0.3356  0.1634 -0.2458
  576POPI    C1 9195  17.332  11.524  10.433 -0.1714 -0.0507 -0.0929
  576POPI    C2 9196  16.953  11.646  10.478 -0.1250  0.0406  0.0589
  576POPI    C3 9197  17.240  11.793  10.715  0.0250  0.0570 -0.1300
  576POPI   PO4 9198  17.359  11.257  10.472 -0.4675  0.2199  0.0658
  576POPI   GL1 9199  17.536  11.091  10.069 -0.0755  0.1660 -0.3567
  576POPI   GL2 9200  17.393  11.410   9.975 -0.1721 -0.2328 -0.1214
  576POPI   C1A 9201  17.790  10.882   9.838 -0.0469  0.0832 -0.1606
  576POPI   D2A 9202  18.169  10.853   9.824 -0.0936  0.0668 -0.1328
  576POPI   C3A 9203  18.346  10.884   9.384 -0.2105 -0.1809 -0.0836
  576POPI   C4A 9204  18.221  10.989   9.018 -0.1672 -0.1828  0.0835
  576POPI   C1B 9205  17.676  11.513   9.668  0.3295 -0.4595 -0.2571
  576POPI   C2B 9206  17.759  11.176   9.492  0.2178  0.0839  0.1170
  576POPI   C3B 9207  17.781  10.839   9.267 -0.0221 -0.0015  0.1189
  576POPI   C4B 9208  18.027  10.482   9.110 -0.1855 -0.2781 -0.2400
  577POPI    C1 9209   5.880   4.156  10.191 -0.0064 -0.0345 -0.1167
  577POPI    C2 9210   5.694   3.896  10.432  0.2243 -0.1296 -0.0384
  577POPI    C3 9211   5.864   4.225  10.585  0.1616 -0.0665 -0.1035
  577POPI   PO4 9212   6.039   4.080   9.942  0.0210 -0.0100 -0.1748
  577POPI   GL1 9213   5.884   3.874   9.543 -0.0511 -0.3159  0.1194
  577POPI   GL2 9214   6.031   3.681   9.307  0.1352  0.1236  0.1186
  577POPI   C1A 9215   5.557   3.931   9.227  0.1527 -0.0784 -0.0263
  577POPI   D2A 9216   5.338   4.223   9.099  0.3248 -0.3189 -0.1063
  577POPI   C3A 9217   5.364   4.330   8.709 -0.0008  0.2060 -0.1726
  577POPI   C4A 9218   5.298   4.406   8.322  0.1848 -0.1343 -0.1214
  577POPI   C1B 9219   5.914   3.650   8.913  0.1875  0.0772  0.0186
  577POPI   C2B 9220   5.897   3.683   8.462  0.4487 -0.2107 -0.2787
  577POPI   C3B 9221   5.813   3.685   8.037  0.0435 -0.2854 -0.3225
  577POPI   C4B 9222   6.044   3.608   7.652 -0.0443 -0.2480 -0.1576
  578POPI    C1 9223   8.204   2.246  10.164  0.1109  0.3395 -0.1534
  578POPI    C2 9224   8.024   2.571  10.312 -0.3444  0.0034  0.0530
  578POPI    C3 9225   8.176   2.296  10.560 -0.2109 -0.0773 -0.1164
  578POPI   PO4 9226   8.296   2.274  10.008 -0.3905 -0.2405  0.3603
  578POPI   GL1 9227   8.192   1.968   9.684 -0.0354 -0.1637 -0.1443
  578POPI   GL2 9228   7.977   2.145   9.581 -0.1344 -0.1737  0.5246
  578POPI   C1A 9229   8.276   1.737   9.266 -0.2778 -0.2104  0.0582
  578POPI   D2A 9230   8.451   1.726   8.859  0.3518  0.0115 -0.0218
  578POPI   C3A 9231   8.332   1.867   8.447 -0.2498  0.2159 -0.0253
  578POPI   C4A 9232   8.387   2.087   8.038  0.3340 -0.1708 -0.2382
  578POPI   C1B 9233   7.847   2.033   9.191  0.0425 -0.1909 -0.1551
  578POPI   C2B 9234   7.818   2.014   8.734 -0.0455  0.1477 -0.0348
  578POPI   C3B 9235   7.904   2.050   8.238  0.1441  0.0489 -0.0747
  578POPI   C4B 9236   7.883   2.292   7.916 -0.0797  0.1657  0.0280
  579POPI    C1 9237   8.272  11.056  10.034 -0.0014 -0.0208 -0.0614
  579POPI    C2 9238   8.181  11.023  10.423  0.3331 -0.0713  0.0153
  579POPI    C3 9239   8.380  11.344  10.290  0.2516 -0.0716 -0.1089
  579POPI   PO4 9240   7.988  10.958   9.966  0.0354 -0.1838 -0.0330
  579POPI   GL1 9241   7.877  10.853   9.598 -0.3108  0.0207 -0.0467
  579POPI   GL2 9242   7.549  11.023   9.649  0.0130  0.0011  0.0960
  579POPI   C1A 9243   8.008  10.401   9.364  0.1262 -0.2856  0.1677
  579POPI   D2A 9244   8.154  10.406   8.988 -0.0143 -0.1462  0.3239
  579POPI   C3A 9245   8.349  10.329   8.486  0.0953  0.1019  0.0664
  579POPI   C4A 9246   8.278  10.276   8.045 -0.0523 -0.0455  0.0341
  579POPI   C1B 9247   7.501  11.238   9.234 -0.2110  0.0780 -0.4215
  579POPI   C2B 9248   7.560  11.487   8.945  0.0167 -0.3505 -0.1389
  579POPI   C3B 9249   7.616  11.447   8.557  0.0729 -0.1405  0.1892
  579POPI   C4B 9250   7.445  11.478   8.148 -0.2433  0.4244  0.1513
  580POPI    C1 9251   5.737   5.502  10.236  0.0497 -0.1466 -0.0891
  580POPI    C2 9252   5.382   5.421  10.402  0.1047 -0.3107 -0.0494
  580POPI    C3 9253   5.685   5.550  10.630  0.0506 -0.0996 -0.0946
  580POPI   PO4 9254   5.621   5.660  10.004  0.0773 -0.0119  0.0868
  580POPI   GL1 9255   5.474   5.740   9.603 -0.2298 -0.1131  0.0442
  580POPI   GL2 9256   5.051   5.793   9.670 -0.1736 -0.5523  0.1677
  580POPI   C1A 9257   5.494   5.606   9.212 -0.3951 -0.0743  0.2917
  580POPI   D2A 9258   5.759   5.587   8.800 -0.0524 -0.0155  0.0696
  580POPI   C3A 9259   5.678   5.661   8.291  0.3634 -0.2249 -0.0000
  580POPI   C4A 9260   5.604   5.477   7.889 -0.1968  0.0989  0.0686
  580POPI   C1B 9261   4.967   5.715   9.179 -0.0290 -0.3412  0.0858
  580POPI   C2B 9262   5.198   5.656   8.755 -0.1332 -0.0821 -0.0621
  580POPI   C3B 9263   5.286   5.409   8.470  0.0859  0.1190 -0.2580
  580POPI   C4B 9264   5.765   5.207   8.514 -0.1140  0.0108 -0.1645
  581POPI    C1 9265  12.399  10.757  10.775  0.1460  0.0452  0.0579
  581POPI    C2 9266  12.621  11.089  10.784 -0.1209  0.2260  0.0736
  581POPI    C3 9267  12.557  10.882  11.120  0.1113  0.1120  0.0497
  581POPI   PO4 9268  12.368  10.750  10.488 -0.1219 -0.1181 -0.3171
  581POPI   GL1 9269  12.507  10.790  10.061  0.0868 -0.0736  0.2197
  581POPI   GL2 9270  12.225  10.987   9.916 -0.2871 -0.0025 -0.1901
  581POPI   C1A 9271  12.645  10.707   9.738 -0.1877  0.4553  0.1916
  581POPI   D2A 9272  12.860  10.585   9.344 -0.1602 -0.0381  0.0794
  581POPI   C3A 9273  13.257  10.408   9.421  0.1756  0.1465  0.1898
  581POPI   C4A 9274  13.689  10.190   9.324  0.2814 -0.0553  0.1082
  581POPI   C1B 9275  12.083  10.861   9.627  0.0954  0.0854 -0.1828
  581POPI   C2B 9276  11.836  10.772   9.165  0.2636  0.0543  0.1620
  581POPI   C3B 9277  11.660  10.623   8.816  0.0256 -0.2127 -0.1422
  581POPI   C4B 9278  11.743  10.350   8.481 -0.0457 -0.2918 -0.0228
  582POPI    C1 9279  11.788  11.453  10.293 -0.1424  0.0612  0.2061
  582POPI    C2 9280  11.893  11.688  10.599 -0.2271 -0.0383  0.3126
  582POPI    C3 9281  11.520  11.701  10.457 -0.1562  0.0935  0.1348
  582POPI   PO4 9282  12.120  11.447  10.088 -0.0849  0.0433 -0.1037
  582POPI   GL1 9283  12.203  11.515   9.668 -0.0518 -0.3601 -0.0993
  582POPI   GL2 9284  12.261  11.859   9.691  0.1141  0.1606  0.1169
  582POPI   C1A 9285  12.334  11.317   9.372 -0.3590  0.0476  0.2751
  582POPI   D2A 9286  12.308  10.938   9.220 -0.1257 -0.1509  0.2112
  582POPI   C3A 9287  12.064  10.919   8.797 -0.1848 -0.0045  0.0658
  582POPI   C4A 9288  12.138  10.958   8.330 -0.2203  0.0428  0.0034
  582POPI   C1B 9289  12.487  12.029   9.257 -0.2762  0.1872 -0.3473
  582POPI   C2B 9290  12.558  12.070   8.892  0.2277 -0.2505  0.2951
  582POPI   C3B 9291  12.589  12.250   8.544  0.0371 -0.2937 -0.0121
  582POPI   C4B 9292  12.669  12.524   8.232 -0.0376  0.1461  0.2393
  583POPI    C1 9293   9.153  10.144  10.149  0.2321  0.0191  0.1182
  583POPI    C2 9294   8.993  10.396  10.416 -0.0293 -0.0570  0.0364
  583POPI    C3 9295   9.013  10.004  10.497 -0.0255 -0.0680 -0.0174
  583POPI   PO4 9296   9.186  10.432   9.949  0.0113 -0.5102 -0.1962
  583POPI   GL1 9297   9.085  10.502   9.440  0.0486 -0.1400 -0.1450
  583POPI   GL2 9298   9.071  10.860   9.555  0.1323 -0.0999  0.0127
  583POPI   C1A 9299   9.015  10.428   9.001  0.0519 -0.0924 -0.1144
  583POPI   D2A 9300   8.699  10.691   8.632  0.0763  0.3009  0.0202
  583POPI   C3A 9301   8.717  10.570   8.220 -0.1676  0.0123  0.1196
  583POPI   C4A 9302   8.726  10.676   7.803  0.1671  0.2213  0.0066
  583POPI   C1B 9303   8.768  10.840   9.325 -0.1924 -0.2181  0.1669
  583POPI   C2B 9304   8.453  10.840   9.064  0.2031  0.0373 -0.0976
  583POPI   C3B 9305   8.227  10.878   8.683 -0.1384  0.1609 -0.1058
  583POPI   C4B 9306   8.203  10.724   8.288 -0.4368  0.0849 -0.0497
  584POPI    C1 9307  11.075   7.005  10.844 -0.2709 -0.2388 -0.0012
  584POPI    C2 9308  11.394   6.823  11.004 -0.1056  0.1585  0.1339
  584POPI    C3 9309  11.028   6.673  11.062  0.0334 -0.1752  0.1672
  584POPI   PO4 9310  11.182   7.135  10.584 -0.1049 -0.2943 -0.0543
  584POPI   GL1 9311  11.054   7.039  10.202  0.2462  0.1642 -0.3063
  584POPI   GL2 9312  10.727   7.089   9.984  0.3141  0.1344  0.0852
  584POPI   C1A 9313  11.315   6.971   9.810  0.1241  0.1196  0.0765
  584POPI   D2A 9314  11.283   7.117   9.364  0.0188 -0.0103 -0.0695
  584POPI   C3A 9315  11.374   6.930   8.922  0.2602 -0.2428 -0.0514
  584POPI   C4A 9316  11.371   6.571   8.668  0.2756 -0.2494  0.1386
  584POPI   C1B 9317  10.845   7.260   9.593 -0.0124  0.0682  0.3026
  584POPI   C2B 9318  10.999   7.435   9.096  0.1573 -0.3455  0.1506
  584POPI   C3B 9319  11.207   7.380   8.743  0.1709 -0.1786 -0.3381
  584POPI   C4B 9320  11.269   7.068   8.447  0.1473  0.2040  0.0533
  585POPI    C1 9321  10.467   7.714  10.661 -0.0076  0.2219  0.1196
  585POPI    C2 9322  10.395   7.323  10.705 -0.0880  0.2340  0.0968
  585POPI    C3 9323  10.756   7.471  10.794 -0.0845  0.1694  0.1917
  585POPI   PO4 9324  10.333   7.805  10.354 -0.1343 -0.2002 -0.1682
  585POPI   GL1 9325  10.548   7.846   9.951 -0.1430 -0.0427 -0.0495
  585POPI   GL2 9326  10.514   7.567   9.860  0.2893  0.3486  0.3277
  585POPI   C1A 9327  10.835   7.795   9.583  0.0648 -0.2500  0.0548
  585POPI   D2A 9328  10.923   7.927   9.156 -0.0581 -0.1658  0.3302
  585POPI   C3A 9329  10.998   7.870   8.682  0.0489 -0.0561  0.1569
  585POPI   C4A 9330  11.479   7.843   8.539 -0.2996  0.0349 -0.2905
  585POPI   C1B 9331  10.334   7.222   9.682 -0.0103 -0.2888  0.0696
  585POPI   C2B 9332  10.279   7.354   9.294  0.0561 -0.1644  0.0778
  585POPI   C3B 9333  10.049   7.466   8.902  0.4370 -0.0741 -0.2927
  585POPI   C4B 9334   9.864   7.577   8.452 -0.0937 -0.1012 -0.0663
  586POPI    C1 9335   0.050   1.136  10.525  0.1389 -0.0301 -0.0103
  586POPI    C2 9336  -0.235   0.866  10.604  0.3447 -0.1937  0.1860
  586POPI    C3 9337  -0.155   1.156  10.868  0.0688  0.1146 -0.0596
  586POPI   PO4 9338   0.072   1.204  10.309  0.0583 -0.0319  0.1060
  586POPI   GL1 9339   0.230   1.225   9.940  0.0810  0.0351 -0.0954
  586POPI   GL2 9340   0.060   1.008   9.731 -0.0871  0.0697 -0.2265
  586POPI   C1A 9341   0.317   1.596   9.775  0.1221  0.2015  0.1297
  586POPI   D2A 9342   0.244   1.874   9.460  0.2352 -0.0824 -0.0282
  586POPI   C3A 9343  -0.039   1.982   9.023 -0.0624 -0.1561 -0.3424
  586POPI   C4A 9344  -0.097   2.068   8.499  0.0120 -0.0715  0.2289
  586POPI   C1B 9345  -0.295   1.038   9.567 -0.2064 -0.3679  0.0435
  586POPI   C2B 9346  -0.627   0.723   9.501  0.2758 -0.0827  0.1458
  586POPI   C3B 9347  -1.010   0.782   9.190 -0.0726  0.1024  0.2714
  586POPI   C4B 9348  -1.286   0.571   8.812 -0.0791  0.0250  0.1113
  587POPI    C1 9349   5.037  17.759   9.852 -0.1378  0.0128  0.0708
  587POPI    C2 9350   4.740  17.921  10.065  0.0336  0.1138  0.2369
  587POPI    C3 9351   4.963  17.629  10.223  0.0023  0.0147  0.1001
  587POPI   PO4 9352   4.964  17.836   9.635 -0.2369 -0.0004  0.0674
  587POPI   GL1 9353   4.826  17.713   9.213 -0.1958 -0.0020 -0.1023
  587POPI   GL2 9354   4.615  17.988   8.993  0.0240 -0.1842  0.0573
  587POPI   C1A 9355   4.614  17.494   8.837  0.2660 -0.2535 -0.3233
  587POPI   D2A 9356   4.739  17.130   8.619 -0.0031  0.1395  0.2359
  587POPI   C3A 9357   4.611  16.703   8.551  0.1548  0.3048  0.0095
  587POPI   C4A 9358   4.558  16.295   8.343 -0.1882 -0.2127 -0.0898
  587POPI   C1B 9359   4.692  17.936   8.566  0.0973  0.0975  0.1814
  587POPI   C2B 9360   4.753  17.598   8.348  0.4148  0.0643 -0.0119
  587POPI   C3B 9361   4.915  17.224   8.168 -0.0459  0.0425  0.3819
  587POPI   C4B 9362   5.223  17.129   7.810  0.0417  0.3108 -0.2781
  588DPPI    C1 9363  12.785   3.657  10.205  0.0638 -0.2677  0.0964
  588DPPI    C2 9364  13.049   3.528  10.476  0.0762 -0.1911  0.1209
  588DPPI    C3 9365  12.670   3.598  10.583  0.1161 -0.0191  0.1530
  588DPPI   PO4 9366  12.896   3.584  10.014  0.1195  0.1783 -0.1248
  588DPPI   GL1 9367  13.056   3.814   9.682 -0.0738  0.0678  0.0140
  588DPPI   GL2 9368  13.330   3.691   9.734  0.2804  0.0674 -0.0288
  588DPPI   C1A 9369  13.056   4.164   9.339 -0.1046 -0.0624  0.2204
  588DPPI   C2A 9370  12.729   4.452   9.071 -0.1287  0.0205  0.1976
  588DPPI   C3A 9371  12.367   4.625   8.997  0.2241  0.1221 -0.4576
  588DPPI   C4A 9372  12.079   5.008   8.976  0.1619  0.3756  0.1431
  588DPPI   C1B 9373  13.239   3.560   9.280  0.1238 -0.0648  0.0243
  588DPPI   C2B 9374  13.264   3.495   8.836 -0.1658  0.1331 -0.0810
  588DPPI   C3B 9375  13.200   3.500   8.326  0.0017 -0.3463  0.1618
  588DPPI   C4B 9376  13.148   3.495   7.870 -0.0650  0.0048 -0.3390
  589DPPI    C1 9377   6.234  10.156  10.153  0.1033 -0.1573 -0.0687
  589DPPI    C2 9378   5.903  10.038  10.344  0.0382  0.0052 -0.0797
  589DPPI    C3 9379   6.261   9.906  10.464 -0.0127  0.0041  0.0733
  589DPPI   PO4 9380   6.198  10.067   9.917 -0.0484  0.1036 -0.0937
  589DPPI   GL1 9381   6.097  10.042   9.578  0.1192 -0.1089 -0.4280
  589DPPI   GL2 9382   6.190  10.284   9.491 -0.1306 -0.0144  0.0256
  589DPPI   C1A 9383   5.728  10.070   9.330  0.3016  0.0228  0.2724
  589DPPI   C2A 9384   5.489   9.898   9.059  0.2468  0.0250  0.1267
  589DPPI   C3A 9385   5.213  10.155   8.796  0.2599  0.3303 -0.0259
  589DPPI   C4A 9386   5.189  10.124   8.316 -0.3805 -0.1603 -0.2025
  589DPPI   C1B 9387   6.522  10.206   9.313 -0.0446 -0.0586 -0.4064
  589DPPI   C2B 9388   6.679  10.125   8.853  0.0641  0.0655 -0.2402
  589DPPI   C3B 9389   6.882  10.198   8.444  0.0540 -0.0797 -0.3294
  589DPPI   C4B 9390   6.686   9.958   8.086 -0.0870  0.3051 -0.1074
  590DPPI    C1 9391  15.028  14.118  10.876 -0.1961  0.0607  0.0596
  590DPPI    C2 9392  14.825  14.431  11.021 -0.1061  0.1170  0.0647
  590DPPI    C3 9393  14.853  14.094  11.235 -0.2276  0.0948  0.0464
  590DPPI   PO4 9394  15.024  14.201  10.611 -0.0913  0.1013  0.0798
  590DPPI   GL1 9395  15.215  14.595  10.411  0.0549 -0.1084 -0.2258
  590DPPI   GL2 9396  15.320  14.841  10.434 -0.3012  0.0916 -0.0215
  590DPPI   C1A 9397  15.212  14.459   9.980 -0.0645  0.4838  0.0031
  590DPPI   C2A 9398  15.474  14.559   9.610  0.0609 -0.0275 -0.1078
  590DPPI   C3A 9399  15.417  14.726   9.273 -0.2007 -0.1764 -0.4615
  590DPPI   C4A 9400  15.478  14.816   8.821 -0.2555 -0.1371 -0.2596
  590DPPI   C1B 9401  15.296  14.939   9.942 -0.3357 -0.0882 -0.4445
  590DPPI   C2B 9402  15.185  15.173   9.593  0.4098 -0.1089  0.4553
  590DPPI   C3B 9403  15.169  15.223   9.161  0.0033 -0.1323  0.1698
  590DPPI   C4B 9404  15.206  15.290   8.672  0.2462  0.3216  0.0220
  591DPPI    C1 9405  12.736   0.066  10.071 -0.2101  0.0650  0.1134
  591DPPI    C2 9406  12.442   0.315  10.180 -0.0384  0.2391  0.1858
  591DPPI    C3 9407  12.673   0.144  10.459 -0.2981 -0.1834  0.1506
  591DPPI   PO4 9408  12.785   0.074   9.867 -0.1564 -0.0714 -0.1602
  591DPPI   GL1 9409  12.830   0.338   9.604  0.0482 -0.1734 -0.0843
  591DPPI   GL2 9410  12.821   0.635   9.396 -0.2010  0.1080  0.0640
  591DPPI   C1A 9411  12.687   0.158   9.162 -0.0017 -0.1077 -0.1001
  591DPPI   C2A 9412  12.618   0.292   8.585  0.1070  0.3811  0.2871
  591DPPI   C3A 9413  12.504   0.203   8.180 -0.0827 -0.4891  0.1117
  591DPPI   C4A 9414  12.472   0.357   7.755 -0.0339  0.0125 -0.0708
  591DPPI   C1B 9415  12.814   0.565   8.962  0.2055 -0.2300  0.2115
  591DPPI   C2B 9416  12.426   0.721   8.712  0.0240  0.1166 -0.0429
  591DPPI   C3B 9417  12.419   1.046   8.471 -0.0272  0.0351 -0.0052
  591DPPI   C4B 9418  12.532   1.404   8.346 -0.1154  0.3117  0.1145
  592DPPI    C1 9419   2.771  16.010   9.849  0.1196 -0.2174  0.1925
  592DPPI    C2 9420   2.508  15.727   9.953 -0.0618 -0.1467 -0.0632
  592DPPI    C3 9421   2.471  15.915   9.602  0.1538  0.0790  0.0318
  592DPPI   PO4 9422   3.000  15.960   9.824 -0.1095  0.0396  0.2228
  592DPPI   GL1 9423   3.269  15.812   9.389 -0.0321  0.0383  0.1225
  592DPPI   GL2 9424   3.515  15.662   9.143  0.0475 -0.2208 -0.0948
  592DPPI   C1A 9425   2.983  15.736   9.082 -0.2308 -0.0465 -0.0763
  592DPPI   C2A 9426   2.889  15.566   8.711 -0.1023  0.1596 -0.2356
  592DPPI   C3A 9427   2.720  15.565   8.248  0.1816 -0.2461  0.1136
  592DPPI   C4A 9428   2.778  15.745   7.899 -0.0674  0.1283  0.1935
  592DPPI   C1B 9429   3.370  15.524   8.757  0.0194 -0.0704 -0.1137
  592DPPI   C2B 9430   3.478  15.260   8.508 -0.2299  0.0506  0.2824
  592DPPI   C3B 9431   3.658  15.387   8.068  0.0293  0.1536  0.1117
  592DPPI   C4B 9432   3.869  15.101   7.811 -0.2696  0.1234  0.0110
  593DPPI    C1 9433  11.170  14.115  10.402  0.1553  0.0204 -0.1946
  593DPPI    C2 9434  11.552  14.113  10.285  0.2028  0.1135 -0.0428
  593DPPI    C3 9435  11.453  14.260  10.643  0.0523 -0.1205  0.0138
  593DPPI   PO4 9436  11.030  14.218  10.129  0.0027  0.0161 -0.3505
  593DPPI   GL1 9437  10.863  14.056   9.887 -0.3926 -0.1650  0.0478
  593DPPI   GL2 9438  10.913  13.804   9.776  0.1065  0.1124  0.0944
  593DPPI   C1A 9439  10.780  14.294   9.509 -0.0537  0.1834  0.0927
  593DPPI   C2A 9440  10.748  14.267   9.022  0.1344 -0.0092 -0.0932
  593DPPI   C3A 9441  10.809  14.395   8.525 -0.1956  0.1451  0.0998
  593DPPI   C4A 9442  10.550  14.412   8.121  0.4145 -0.0310  0.0395
  593DPPI   C1B 9443  11.069  13.881   9.398  0.2133  0.1136  0.4813
  593DPPI   C2B 9444  11.078  13.905   9.015  0.0381  0.2899  0.1401
  593DPPI   C3B 9445  11.232  14.106   8.512 -0.3471 -0.3985 -0.1264
  593DPPI   C4B 9446  11.288  14.539   8.398  0.1157  0.0205  0.4347
  594DPPI    C1 9447  15.528   2.008  10.205 -0.0385  0.0579 -0.0129
  594DPPI    C2 9448  15.209   2.120  10.418 -0.1498 -0.0000 -0.1473
  594DPPI    C3 9449  15.575   2.142  10.579 -0.2147  0.1273 -0.0149
  594DPPI   PO4 9450  15.445   2.072   9.764 -0.1596  0.1439 -0.2137
  594DPPI   GL1 9451  15.439   2.282   9.407  0.1480 -0.1369  0.1102
  594DPPI   GL2 9452  15.235   2.506   9.378  0.2989  0.0027  0.0626
  594DPPI   C1A 9453  15.480   2.338   8.984  0.1035  0.0552 -0.0248
  594DPPI   C2A 9454  15.628   2.359   8.553  0.1853 -0.1945 -0.1998
  594DPPI   C3A 9455  15.580   2.299   8.167  0.1597 -0.1301  0.0856
  594DPPI   C4A 9456  15.756   2.513   7.769 -0.2035  0.1894 -0.1793
  594DPPI   C1B 9457  15.039   2.667   8.898  0.2523 -0.2813 -0.0875
  594DPPI   C2B 9458  14.930   2.882   8.526  0.2241  0.1895  0.1771
  594DPPI   C3B 9459  14.931   2.912   8.080 -0.1454 -0.0065 -0.0497
  594DPPI   C4B 9460  15.179   2.908   7.708  0.0049 -0.0086 -0.1893
  595DPPI    C1 9461   2.651   7.907   9.698  0.1578  0.0877  0.4090
  595DPPI    C2 9462   2.446   8.198   9.515  0.4704  0.1936  0.2191
  595DPPI    C3 9463   2.445   8.172   9.914 -0.0203  0.1077  0.2181
  595DPPI   PO4 9464   2.810   7.854   9.602 -0.3517  0.0139  0.1439
  595DPPI   GL1 9465   2.933   8.068   9.243 -0.2204  0.2409 -0.0129
  595DPPI   GL2 9466   3.203   7.906   9.224  0.0211  0.0428 -0.0508
  595DPPI   C1A 9467   2.995   7.987   8.780 -0.2892  0.3155  0.2123
  595DPPI   C2A 9468   3.083   7.892   8.413  0.1259  0.4750 -0.1475
  595DPPI   C3A 9469   3.359   7.894   8.051  0.1123  0.4084  0.0289
  595DPPI   C4A 9470   3.387   7.770   7.598  0.1952  0.0220  0.0899
  595DPPI   C1B 9471   3.510   7.901   8.805 -0.2520  0.0704 -0.0043
  595DPPI   C2B 9472   3.668   7.849   8.417  0.3223  0.1585  0.0818
  595DPPI   C3B 9473   3.461   7.424   8.192 -0.2241  0.0364  0.0948
  595DPPI   C4B 9474   3.149   7.037   8.195  0.1317  0.2531  0.0058
  596DPPI    C1 9475  10.763   4.253  10.166  0.1747  0.0575 -0.2911
  596DPPI    C2 9476  10.994   3.986   9.981  0.1257  0.0391 -0.3258
  596DPPI    C3 9477  10.965   3.982  10.379  0.2786  0.1171 -0.3134
  596DPPI   PO4 9478  10.856   4.464   9.995  0.0665  0.2136 -0.0861
  596DPPI   GL1 9479  11.051   4.418   9.618 -0.0016 -0.0223  0.0418
  596DPPI   GL2 9480  11.336   4.395   9.504  0.0573 -0.2640 -0.0557
  596DPPI   C1A 9481  10.936   4.777   9.262  0.3069  0.0506 -0.1291
  596DPPI   C2A 9482  10.687   4.899   8.801 -0.0772  0.1569 -0.0728
  596DPPI   C3A 9483  10.667   5.040   8.417  0.2272 -0.0937  0.1357
  596DPPI   C4A 9484  10.576   5.007   7.997 -0.0125 -0.0950 -0.1268
  596DPPI   C1B 9485  11.399   4.059   9.277  0.0971 -0.2706 -0.0252
  596DPPI   C2B 9486  11.462   3.896   8.758 -0.1804 -0.2608 -0.1026
  596DPPI   C3B 9487  11.405   4.252   8.446 -0.2112 -0.0756  0.2514
  596DPPI   C4B 9488  11.468   4.464   8.028  0.1914  0.0865 -0.0864
  597PYPI    C1 9489   1.391  11.227  10.239  0.0126 -0.0479 -0.1206
  597PYPI    C2 9490   1.783  11.297  10.274 -0.0314  0.0800  0.1427
  597PYPI    C3 9491   1.556  11.267  10.602 -0.1905 -0.3018  0.0028
  597PYPI   PO4 9492   1.318  11.449  10.102  0.4883 -0.3384  0.2827
  597PYPI   GL1 9493   1.447  11.590   9.645  0.4340  0.0824  0.0819
  597PYPI   GL2 9494   1.691  11.378   9.805 -0.0223  0.2185  0.1052
  597PYPI   C1A 9495   1.556  11.557   9.142  0.0776 -0.3684 -0.3839
  597PYPI   C2A 9496   1.618  11.653   8.730  0.0398  0.1253  0.2946
  597PYPI   D3A 9497   1.644  11.914   8.347 -0.2701  0.0511 -0.1619
  597PYPI   C4A 9498   1.733  11.819   8.008  0.0823  0.1049 -0.0582
  597PYPI   C1B 9499   1.680  11.076   9.410 -0.0049  0.0669  0.0658
  597PYPI   C2B 9500   1.561  11.108   9.067 -0.1176 -0.1902  0.1333
  597PYPI   C3B 9501   1.593  11.127   8.624 -0.1710  0.0891 -0.1068
  597PYPI   C4B 9502   1.505  11.352   8.245 -0.0171  0.2854 -0.2438
  598PYPI    C1 9503  12.621  10.194  10.710  0.2346 -0.3333 -0.3181
  598PYPI    C2 9504  13.013  10.174  10.784  0.2545  0.1007 -0.2785
  598PYPI    C3 9505  12.766  10.327  11.058  0.0782 -0.0159 -0.3704
  598PYPI   PO4 9506  12.563  10.286  10.407  0.0597  0.1913  0.1827
  598PYPI   GL1 9507  12.612  10.299  10.046  0.0729  0.0148 -0.4040
  598PYPI   GL2 9508  12.879  10.277   9.854 -0.3642  0.0322  0.2150
  598PYPI   C1A 9509  12.282  10.320   9.715  0.1931 -0.1889  0.2586
  598PYPI   C2A 9510  12.379  10.464   9.401 -0.0676 -0.3288  0.0211
  598PYPI   D3A 9511  12.566  10.348   8.991 -0.0033 -0.0619 -0.1494
  598PYPI   C4A 9512  12.605  10.780   8.755 -0.1333 -0.1402  0.0213
  598PYPI   C1B 9513  13.075  10.017   9.666 -0.2663  0.2984 -0.1673
  598PYPI   C2B 9514  13.315   9.915   9.456 -0.2760 -0.0271  0.2832
  598PYPI   C3B 9515  13.349  10.000   9.001 -0.0230  0.1726  0.0954
  598PYPI   C4B 9516  13.079  10.367   8.777 -0.1932 -0.0416  0.0232
  599PYPI    C1 9517   1.906  15.508  10.277  0.0782 -0.0107  0.0770
  599PYPI    C2 9518   2.222  15.698  10.432  0.0639 -0.0813  0.1942
  599PYPI    C3 9519   2.048  15.401  10.636  0.0195 -0.1483  0.0598
  599PYPI   PO4 9520   2.037  15.392  10.020  0.3076 -0.0342  0.0974
  599PYPI   GL1 9521   2.049  15.540   9.573  0.1896 -0.2591 -0.0956
  599PYPI   GL2 9522   1.813  15.276   9.521  0.2981 -0.0843  0.0923
  599PYPI   C1A 9523   2.308  15.550   9.258  0.2552 -0.1944  0.0391
  599PYPI   C2A 9524   2.468  15.813   8.963 -0.0907 -0.2104 -0.0973
  599PYPI   D3A 9525   2.714  16.056   8.608 -0.2532 -0.1829  0.1123
  599PYPI   C4A 9526   2.630  16.159   8.177 -0.0831  0.1483  0.4159
  599PYPI   C1B 9527   1.678  15.533   9.129 -0.0197  0.2569  0.3353
  599PYPI   C2B 9528   1.517  15.530   8.684 -0.2675  0.3536 -0.1042
  599PYPI   C3B 9529   1.302  15.577   8.284  0.0491  0.1132 -0.1818
  599PYPI   C4B 9530   1.075  15.629   7.890  0.1500 -0.1753 -0.0231
  600PYPI    C1 9531   0.010   2.174  10.515  0.4137  0.0897 -0.0005
  600PYPI    C2 9532   0.306   1.924  10.413  0.1525 -0.2789  0.1228
  600PYPI    C3 9533   0.166   1.925  10.787  0.2106  0.1227  0.1478
  600PYPI   PO4 9534  -0.125   2.144  10.265  0.1484  0.1926 -0.0440
  600PYPI   GL1 9535  -0.466   2.214   9.951  0.3145 -0.1829  0.0276
  600PYPI   GL2 9536  -0.845   2.154   9.957  0.3235  0.1457  0.0962
  600PYPI   C1A 9537  -0.282   1.968   9.649 -0.1487  0.0648 -0.3225
  600PYPI   C2A 9538  -0.119   1.534   9.470  0.0177 -0.0248  0.0059
  600PYPI   D3A 9539  -0.061   1.253   9.194  0.0788 -0.1577  0.0898
  600PYPI   C4A 9540  -0.370   1.194   8.869 -0.2283  0.0741  0.1256
  600PYPI   C1B 9541  -0.825   2.149   9.465 -0.2183 -0.0062 -0.1122
  600PYPI   C2B 9542  -0.847   1.966   8.993  0.0396 -0.1161  0.2767
  600PYPI   C3B 9543  -0.759   1.955   8.525 -0.3232  0.1559 -0.1268
  600PYPI   C4B 9544  -0.554   2.134   8.102  0.2774  0.1573 -0.1934
  601PYPI    C1 9545   2.299  17.932  10.277 -0.0322  0.1290  0.2389
  601PYPI    C2 9546   2.265  17.567  10.437 -0.1167  0.0224 -0.0171
  601PYPI    C3 9547   2.548  17.817  10.569 -0.0403 -0.1448  0.1409
  601PYPI   PO4 9548   2.248  17.854   9.977 -0.1421  0.0258 -0.0316
  601PYPI   GL1 9549   2.448  18.165   9.649 -0.1706  0.0484 -0.1395
  601PYPI   GL2 9550   2.143  18.143   9.539 -0.0152  0.2201  0.0925
  601PYPI   C1A 9551   2.500  18.406   9.343 -0.2324 -0.0436 -0.0682
  601PYPI   C2A 9552   2.781  18.272   8.984  0.2732 -0.1950  0.1969
  601PYPI   D3A 9553   2.825  18.369   8.544 -0.1852 -0.0710 -0.0132
  601PYPI   C4A 9554   2.787  18.243   8.127 -0.1331  0.3743 -0.1992
  601PYPI   C1B 9555   2.163  17.975   9.113  0.1738 -0.0411  0.1064
  601PYPI   C2B 9556   2.281  18.125   8.699  0.0098 -0.3082  0.0981
  601PYPI   C3B 9557   2.256  18.262   8.252 -0.0420  0.1874  0.0022
  601PYPI   C4B 9558   2.309  18.136   7.892 -0.1752  0.1539 -0.0451
  602PYPI    C1 9559   3.002   5.103  10.246 -0.0228  0.1124  0.0380
  602PYPI    C2 9560   2.987   5.264  10.612  0.0307  0.0216  0.0804
  602PYPI    C3 9561   3.213   5.433  10.328  0.1786 -0.0431  0.1581
  602PYPI   PO4 9562   2.804   5.097  10.084  0.2841 -0.3267  0.0823
  602PYPI   GL1 9563   2.839   5.021   9.626  0.1230  0.1625  0.1292
  602PYPI   GL2 9564   2.573   5.277   9.561 -0.0337 -0.2604  0.0243
  602PYPI   C1A 9565   2.742   4.860   9.273  0.2263 -0.0614  0.0581
  602PYPI   C2A 9566   2.850   4.674   8.892 -0.0737 -0.0114 -0.2355
  602PYPI   D3A 9567   3.089   4.350   8.728  0.2186 -0.0106  0.0675
  602PYPI   C4A 9568   3.379   4.320   8.404 -0.2398  0.0212 -0.3611
  602PYPI   C1B 9569   2.659   5.287   9.069  0.2518  0.1556  0.0060
  602PYPI   C2B 9570   2.623   5.339   8.642  0.0430  0.1398 -0.2754
  602PYPI   C3B 9571   2.437   5.540   8.182  0.5264  0.0424  0.0580
  602PYPI   C4B 9572   2.198   5.854   7.987 -0.2838 -0.0201  0.0063
  603ERGO   ROH 9573   6.409  17.303   8.583 -0.1189  0.1197 -0.0558
  603ERGO    R1 9574   6.219  17.202   8.399 -0.0802  0.1637 -0.1208
  603ERGO    R2 9575   6.220  17.271   8.131  0.0790  0.0980 -0.1398
  603ERGO    R3 9576   6.226  17.001   8.096 -0.0292  0.0857 -0.0676
  603ERGO    R4 9577   6.140  17.109   7.836  0.1742  0.0577 -0.1437
  603ERGO    R5 9578   6.038  16.956   7.954  0.0331  0.1376 -0.1648
  603ERGO    C1 9579   6.099  16.762   7.631  0.1281  0.0227 -0.0781
  603ERGO    C2 9580   6.002  16.637   7.314 -0.0902 -0.3798 -0.1799
  604ERGO   ROH 9581   8.461   2.394   9.578 -0.0477  0.0854 -0.1900
  604ERGO    R1 9582   8.483   2.346   9.300 -0.0655 -0.0408 -0.1695
  604ERGO    R2 9583   8.303   2.191   9.160 -0.1962  0.0777 -0.1251
  604ERGO    R3 9584   8.283   2.411   9.003  0.0253  0.0351 -0.2163
  604ERGO    R4 9585   8.251   2.185   8.819 -0.0215 -0.0241 -0.1511
  604ERGO    R5 9586   8.394   2.348   8.799  0.0968 -0.1161 -0.1374
  604ERGO    C1 9587   8.203   2.388   8.471  0.2883 -0.1234 -0.2518
  604ERGO    C2 9588   8.286   2.542   8.195  0.0178 -0.2783  0.0532
  605ERGO   ROH 9589  12.354  13.956   9.975 -0.2033  0.0299 -0.1606
  605ERGO    R1 9590  12.352  13.974   9.692 -0.0083  0.0191 -0.1633
  605ERGO    R2 9591  12.313  14.213   9.559  0.0699  0.0077 -0.1966
  605ERGO    R3 9592  12.547  14.145   9.437  0.1580  0.0203 -0.0392
  605ERGO    R4 9593  12.413  14.322   9.246  0.3606  0.1831 -0.0483
  605ERGO    R5 9594  12.490  14.122   9.206  0.3417  0.1811 -0.1081
  605ERGO    C1 9595  12.690  14.321   8.950  0.6125  0.2970  0.1858
  605ERGO    C2 9596  12.767  14.565   8.739 -0.1977 -0.0920 -0.0129
  606ERGO   ROH 9597   3.085  15.241   9.055 -0.0821 -0.1340  0.0896
  606ERGO    R1 9598   3.077  15.104   8.807  0.1335  0.0380 -0.0166
  606ERGO    R2 9599   2.844  14.996   8.704  0.2840 -0.1899 -0.1291
  606ERGO    R3 9600   2.909  15.145   8.487  0.1246  0.0624 -0.0081
  606ERGO    R4 9601   2.681  14.984   8.400  0.1254  0.0977 -0.0597
  606ERGO    R5 9602   2.875  14.999   8.301  0.0661  0.2552 -0.1498
  606ERGO    C1 9603   2.648  15.118   8.018 -0.1166  0.5021  0.0943
  606ERGO    C2 9604   2.554  15.283   7.774 -0.3323 -0.0118 -0.0896
  607ERGO   ROH 9605  14.017   0.652   9.466 -0.0270 -0.2573 -0.0511
  607ERGO    R1 9606  13.839   0.629   9.247 -0.0249  0.3340 -0.1333
  607ERGO    R2 9607  13.861   0.785   9.020  0.6352  0.2485 -0.1532
  607ERGO    R3 9608  13.864   0.544   8.894 -0.1424  0.1899 -0.1066
  607ERGO    R4 9609  13.867   0.742   8.677  0.8331  0.1740 -0.1409
  607ERGO    R5 9610  13.727   0.577   8.701  0.1661  0.6887 -0.2560
  607ERGO    C1 9611  13.874   0.491   8.359  0.2184  0.0757 -0.0901
  607ERGO    C2 9612  13.938   0.552   8.061  0.0700  0.0911 -0.0418
  608ERGO   ROH 9613   9.294  11.379   9.948 -0.0802 -0.0503 -0.0555
  608ERGO    R1 9614   9.276  11.388   9.666  0.1148  0.2441 -0.0631
  608ERGO    R2 9615   9.473  11.499   9.508  0.4792 -0.0568  0.1632
  608ERGO    R3 9616   9.466  11.257   9.385  0.0009  0.0545 -0.0541
  608ERGO    R4 9617   9.633  11.424   9.211  0.4241 -0.1346  0.1527
  608ERGO    R5 9618   9.458  11.309   9.151  0.1886  0.2862 -0.0139
  608ERGO    C1 9619   9.720  11.153   8.923 -0.0570 -0.0753 -0.0574
  608ERGO    C2 9620   9.744  10.962   8.636 -0.0547 -0.0428 -0.4183
  609ERGO   ROH 9621   7.721   0.901   9.404 -0.0960  0.0257  0.0893
  609ERGO    R1 9622   7.677   1.079   9.187 -0.0947  0.0259  0.0896
  609ERGO    R2 9623   7.802   1.049   8.942 -0.1495 -0.0161  0.0679
  609ERGO    R3 9624   7.547   1.055   8.848 -0.1661  0.0419  0.1153
  609ERGO    R4 9625   7.707   1.179   8.636 -0.1676 -0.0447  0.0610
  609ERGO    R5 9626   7.531   1.264   8.732 -0.1250  0.0261  0.0793
  609ERGO    C1 9627   7.413   1.260   8.370 -0.1938 -0.0068  0.1017
  609ERGO    C2 9628   7.333   1.414   8.110 -0.2887 -0.2206 -0.1608
  610ERGO   ROH 9629   7.555   6.857   9.457  0.0225 -0.0330  0.1121
  610ERGO    R1 9630   7.706   6.844   9.217 -0.0782  0.0232  0.0439
  610ERGO    R2 9631   7.785   6.605   9.104  0.0863  0.0508  0.0851
  610ERGO    R3 9632   7.660   6.705   8.884 -0.1153 -0.1313  0.1141
  610ERGO    R4 9633   7.887   6.551   8.778  0.1916  0.3458  0.0673
  610ERGO    R5 9634   7.840   6.760   8.735 -0.2221  0.2675  0.1260
  610ERGO    C1 9635   7.830   6.614   8.382  0.0637  0.3466  0.0841
  610ERGO    C2 9636   7.784   6.725   8.022 -0.0239 -0.1594 -0.2071
  611ERGO   ROH 9637   2.166   7.820   9.507  0.0636 -0.2508 -0.1537
  611ERGO    R1 9638   2.172   7.698   9.252 -0.1647 -0.1571 -0.2089
  611ERGO    R2 9639   1.954   7.699   9.082 -0.2382  0.1521 -0.1403
  611ERGO    R3 9640   2.131   7.807   8.906 -0.1753  0.0348 -0.1454
  611ERGO    R4 9641   1.891   7.753   8.747 -0.1238  0.0052 -0.1843
  611ERGO    R5 9642   2.094   7.686   8.703 -0.1333 -0.0476 -0.0953
  611ERGO    C1 9643   2.020   7.887   8.387  0.0017 -0.1905 -0.2148
  611ERGO    C2 9644   1.897   8.097   8.147  0.2419 -0.1937 -0.2118
  612ERGO   ROH 9645   5.295   1.291   8.802  0.0248  0.0659 -0.0357
  612ERGO    R1 9646   5.301   1.400   8.541 -0.1402  0.0332 -0.0556
  612ERGO    R2 9647   5.342   1.246   8.315  0.0069  0.0405 -0.0423
  612ERGO    R3 9648   5.110   1.361   8.233 -0.1439 -0.2407 -0.0187
  612ERGO    R4 9649   5.265   1.321   7.987  0.0011  0.2190 -0.0001
  612ERGO    R5 9650   5.177   1.508   8.056 -0.3110  0.0221  0.1362
  612ERGO    C1 9651   5.003   1.472   7.718 -0.1438  0.0591  0.0465
  612ERGO    C2 9652   4.997   1.423   7.385 -0.0657 -0.2114  0.0748
  613ERGO   ROH 9653   3.392  11.078   9.383  0.0681 -0.2005  0.1067
  613ERGO    R1 9654   3.595  10.935   9.247  0.0913 -0.0656 -0.0011
  613ERGO    R2 9655   3.555  10.682   9.143  0.2009 -0.0870  0.0140
  613ERGO    R3 9656   3.644  10.798   8.913  0.0106 -0.0254 -0.0304
  613ERGO    R4 9657   3.592  10.520   8.839  0.2430 -0.0873  0.0187
  613ERGO    R5 9658   3.777  10.630   8.808  0.1327  0.0853 -0.0592
  613ERGO    C1 9659   3.697  10.535   8.448  0.0889 -0.0295 -0.0201
  613ERGO    C2 9660   3.814  10.432   8.132 -0.1470 -0.1272 -0.0658
  614ERGO   ROH 9661  18.212   7.864   9.812  0.0087 -0.1636  0.0309
  614ERGO    R1 9662  18.079   7.908   9.566 -0.1146  0.0095  0.1266
  614ERGO    R2 9663  18.179   7.818   9.325 -0.1430  0.3358 -0.0099
  614ERGO    R3 9664  17.934   7.701   9.304 -0.0719  0.1894 -0.0415
  614ERGO    R4 9665  18.052   7.676   9.037  0.0358  0.1370  0.0069
  614ERGO    R5 9666  17.858   7.762   9.085 -0.0317  0.0517 -0.0964
  614ERGO    C1 9667  17.748   7.483   8.849  0.2066 -0.1163 -0.0129
  614ERGO    C2 9668  17.589   7.483   8.674 -0.2303 -0.0161 -0.1006
  615ERGO   ROH 9669  16.251  16.377   9.722 -0.0070 -0.1674 -0.0992
  615ERGO    R1 9670  16.137  16.376   9.463 -0.0783 -0.0916 -0.0688
  615ERGO    R2 9671  16.132  16.600   9.302 -0.0407 -0.0676 -0.0380
  615ERGO    R3 9672  16.252  16.434   9.123 -0.1494 -0.0886 -0.0924
  615ERGO    R4 9673  16.095  16.621   8.959 -0.1456 -0.0257 -0.0245
  615ERGO    R5 9674  16.087  16.402   8.952 -0.2147 -0.0226 -0.0420
  615ERGO    C1 9675  16.186  16.477   8.591 -0.3086 -0.0209 -0.0675
  615ERGO    C2 9676  16.301  16.548   8.375 -0.4922  0.1895  0.2101
  616ERGO   ROH 9677   1.614  13.757   9.493  0.3760  0.0884  0.0872
  616ERGO    R1 9678   1.760  13.817   9.258  0.1790  0.1554 -0.0198
  616ERGO    R2 9679   1.706  13.699   9.015  0.1738 -0.0071  0.0611
  616ERGO    R3 9680   1.687  13.956   8.930 -0.1601 -0.0598 -0.0406
  616ERGO    R4 9681   1.675  13.795   8.684  0.1859 -0.1750  0.0096
  616ERGO    R5 9682   1.812  13.960   8.725 -0.0674  0.0429  0.0155
  616ERGO    C1 9683   1.639  14.093   8.412 -0.1206 -0.3222 -0.1159
  616ERGO    C2 9684   1.505  14.117   8.170 -0.1070 -0.3512  0.2212
  617ERGO   ROH 9685   6.320  13.947   9.313  0.2416 -0.1169  0.0723
  617ERGO    R1 9686   6.282  13.950   9.032  0.1520 -0.1520  0.0840
  617ERGO    R2 9687   6.410  13.773   8.863  0.0727 -0.1927  0.0691
  617ERGO    R3 9688   6.157  13.720   8.780  0.0387 -0.1705  0.1553
  617ERGO    R4 9689   6.327  13.656   8.549 -0.0458 -0.1359  0.0785
  617ERGO    R5 9690   6.155  13.790   8.550 -0.0432 -0.1294  0.1667
  617ERGO    C1 9691   6.041  13.538   8.287 -0.1466 -0.0819  0.1649
  617ERGO    C2 9692   5.885  13.379   7.954 -0.1185  0.3377 -0.2071
  618ERGO   ROH 9693   0.342  15.706   9.969 -0.2011  0.4830 -0.0092
  618ERGO    R1 9694   0.176  15.688   9.740 -0.0925  0.4020 -0.0844
  618ERGO    R2 9695   0.167  15.885   9.546 -0.0519  0.3694 -0.1287
  618ERGO    R3 9696   0.223  15.678   9.379  0.0804  0.3505 -0.0596
  618ERGO    R4 9697   0.066  15.864   9.216 -0.0867  0.1595 -0.1045
  618ERGO    R5 9698   0.025  15.652   9.248  0.0836  0.1436 -0.0193
  618ERGO    C1 9699   0.060  15.657   8.868  0.0173  0.0197 -0.0257
  618ERGO    C2 9700   0.206  15.726   8.494 -0.1418 -0.2385  0.0351
  619ERGO   ROH 9701   5.856  12.056   9.092 -0.0230  0.1567 -0.0162
  619ERGO    R1 9702   5.873  11.875   8.876 -0.0012 -0.0342  0.1410
  619ERGO    R2 9703   5.930  11.956   8.617 -0.4145 -0.1954 -0.0154
  619ERGO    R3 9704   6.128  11.771   8.638 -0.1096  0.1192 -0.0422
  619ERGO    R4 9705   6.109  11.828   8.351 -0.4300 -0.1153 -0.0636
  619ERGO    R5 9706   6.099  11.632   8.445 -0.0516 -0.0645  0.0845
  619ERGO    C1 9707   6.399  11.580   8.214 -0.1528  0.2266 -0.1168
  619ERGO    C2 9708   6.426  11.439   7.967  0.2367  0.1697  0.1176
  620ERGO   ROH 9709   1.550   5.363   9.349  0.0752  0.0692 -0.0611
  620ERGO    R1 9710   1.648   5.425   9.091  0.0973 -0.1534 -0.1096
  620ERGO    R2 9711   1.681   5.234   8.894 -0.0751 -0.2955 -0.0111
  620ERGO    R3 9712   1.525   5.403   8.749  0.0388 -0.2513 -0.0809
  620ERGO    R4 9713   1.662   5.237   8.549  0.1442 -0.2196 -0.0233
  620ERGO    R5 9714   1.658   5.455   8.556  0.1638 -0.2262  0.0158
  620ERGO    C1 9715   1.504   5.398   8.212  0.3788 -0.1339 -0.0959
  620ERGO    C2 9716   1.519   5.397   7.952  0.0704  0.0696  0.1323
  621ERGO   ROH 9717  16.442   8.245   9.804  0.0198  0.0578 -0.0030
  621ERGO    R1 9718  16.287   8.310   9.576  0.0664  0.0751 -0.0303
  621ERGO    R2 9719  16.400   8.363   9.329  0.1125  0.0299 -0.0222
  621ERGO    R3 9720  16.230   8.168   9.245  0.0813  0.0613 -0.0259
  621ERGO    R4 9721  16.243   8.357   9.021 -0.0820  0.1834  0.0721
  621ERGO    R5 9722  16.063   8.285   9.120 -0.0095  0.1109  0.1439
  621ERGO    C1 9723  15.993   8.170   8.763 -0.2248  0.3021  0.1235
  621ERGO    C2 9724  16.021   8.263   8.412  0.1341 -0.0322 -0.0503
  622ERGO   ROH 9725   1.673  10.067   9.212  0.0470 -0.1184  0.1423
  622ERGO    R1 9726   1.803  10.102   8.963 -0.1436 -0.0102  0.0565
  622ERGO    R2 9727   2.034   9.966   8.894 -0.0472  0.2172 -0.0716
  622ERGO    R3 9728   1.888   9.894   8.677 -0.1099  0.0470  0.0235
  622ERGO    R4 9729   2.158   9.794   8.621 -0.1115  0.0351  0.0112
  622ERGO    R5 9730   2.038   9.923   8.492 -0.1669 -0.0662 -0.0450
  622ERGO    C1 9731   2.094   9.627   8.258 -0.2077 -0.2306  0.1487
  622ERGO    C2 9732   2.005   9.443   8.014  0.0956 -0.0785 -0.0586
  623ERGO   ROH 9733   2.216   3.423   9.435 -0.0418 -0.1231 -0.0845
  623ERGO    R1 9734   2.287   3.274   9.204 -0.1914 -0.3368  0.0037
  623ERGO    R2 9735   2.104   3.124   9.062 -0.4186  0.0027 -0.0767
  623ERGO    R3 9736   2.193   3.272   8.853  0.0374 -0.2309 -0.0595
  623ERGO    R4 9737   2.043   3.052   8.730 -0.6086  0.2005 -0.0875
  623ERGO    R5 9738   2.249   3.110   8.685 -0.4188 -0.3921 -0.0667
  623ERGO    C1 9739   2.092   3.148   8.339 -0.2911  0.0964 -0.0776
  623ERGO    C2 9740   2.125   3.187   7.946  0.2245  0.1332  0.0338
  624ERGO   ROH 9741   6.623  10.775   9.809 -0.0237 -0.1063 -0.1336
  624ERGO    R1 9742   6.643  10.644   9.559  0.1446  0.0035 -0.1796
  624ERGO    R2 9743   6.463  10.688   9.354  0.1167 -0.1186 -0.1776
  624ERGO    R3 9744   6.689  10.742   9.211  0.0721  0.1780 -0.1426
  624ERGO    R4 9745   6.484  10.683   9.009  0.2567 -0.5014 -0.1683
  624ERGO    R5 9746   6.681  10.588   9.027  0.4600 -0.0793  0.0358
  624ERGO    C1 9747   6.708  10.730   8.674  0.2964 -0.4459 -0.1301
  624ERGO    C2 9748   6.853  10.765   8.423 -0.0576  0.2357 -0.1003
  625ERGO   ROH 9749  12.873  12.616  10.161 -0.3275  0.0102 -0.0230
  625ERGO    R1 9750  13.080  12.643   9.971 -0.2065 -0.1596  0.0813
  625ERGO    R2 9751  13.173  12.431   9.820 -0.3848 -0.2149  0.0462
  625ERGO    R3 9752  13.118  12.596   9.612 -0.0994 -0.0701  0.0803
  625ERGO    R4 9753  13.296  12.392   9.500 -0.2185 -0.1901  0.1059
  625ERGO    R5 9754  13.324  12.608   9.489 -0.0086 -0.2085  0.2152
  625ERGO    C1 9755  13.316  12.525   9.117  0.1462 -0.0396  0.1727
  625ERGO    C2 9756  13.365  12.572   8.786 -0.4671  0.0242 -0.4554
  626ERGO   ROH 9757   4.500  10.075   9.285 -0.0640  0.1168  0.0328
  626ERGO    R1 9758   4.497   9.921   9.047 -0.1473  0.1398  0.0187
  626ERGO    R2 9759   4.461  10.034   8.797  0.1370  0.2131  0.0097
  626ERGO    R3 9760   4.693   9.904   8.741 -0.0054 -0.0996  0.1195
  626ERGO    R4 9761   4.562   9.939   8.481  0.2940  0.3635  0.0133
  626ERGO    R5 9762   4.635   9.752   8.566 -0.0820  0.1580 -0.0883
  626ERGO    C1 9763   4.839   9.762   8.244  0.2517  0.1576  0.1184
  626ERGO    C2 9764   5.088   9.723   8.022  0.0446 -0.0948  0.1320
  627ERGO   ROH 9765   6.272  18.653   9.051  0.0630 -0.0476 -0.0380
  627ERGO    R1 9766   6.324  18.660   8.772  0.1570  0.1023 -0.0169
  627ERGO    R2 9767   6.162  18.534   8.588  0.3618 -0.0116 -0.1158
  627ERGO    R3 9768   6.154  18.781   8.474  0.1340  0.0176 -0.0397
  627ERGO    R4 9769   6.105  18.595   8.252  0.2042  0.0366 -0.0815
  627ERGO    R5 9770   6.257  18.751   8.260  0.0903  0.1557 -0.0846
  627ERGO    C1 9771   6.063  18.863   7.951 -0.1014  0.0923  0.0099
  627ERGO    C2 9772   6.067  18.941   7.676  0.2214 -0.0343  0.0105
  628ERGO   ROH 9773   1.055   8.248   9.271  0.0158  0.1470  0.0455
  628ERGO    R1 9774   1.077   8.293   8.993  0.0045  0.3536  0.0761
  628ERGO    R2 9775   0.976   8.117   8.805  0.6027  0.1260 -0.0561
  628ERGO    R3 9776   0.848   8.339   8.713 -0.0324 -0.1911  0.0064
  628ERGO    R4 9777   0.925   8.191   8.471  0.9089  0.3294 -0.0621
  628ERGO    R5 9778   0.970   8.400   8.516  0.1110  0.4680  0.2717
  628ERGO    C1 9779   0.775   8.442   8.190  0.4909  0.1502 -0.0069
  628ERGO    C2 9780   0.816   8.503   7.753  0.0199  0.1881 -0.0790
  629ERGO   ROH 9781  14.939   3.998   9.362 -0.0244  0.1760 -0.2197
  629ERGO    R1 9782  15.025   4.025   9.093  0.3191  0.2162 -0.1106
  629ERGO    R2 9783  15.292   4.033   9.022  0.4297 -0.3753  0.1780
  629ERGO    R3 9784  15.222   3.828   8.858  0.0835 -0.0618 -0.0804
  629ERGO    R4 9785  15.439   3.965   8.717  0.3192 -0.2483  0.0955
  629ERGO    R5 9786  15.241   3.919   8.638  0.2377  0.1807  0.0297
  629ERGO    C1 9787  15.458   3.733   8.385 -0.0700  0.1199 -0.1953
  629ERGO    C2 9788  15.707   3.512   8.254  0.0816  0.0229  0.0991
  630ERGO   ROH 9789  11.716  11.214   9.810 -0.0261  0.1517  0.0998
  630ERGO    R1 9790  11.682  11.165   9.533  0.0375  0.0318  0.1125
  630ERGO    R2 9791  11.571  11.351   9.362 -0.0885 -0.1094  0.0380
  630ERGO    R3 9792  11.801  11.312   9.222 -0.0440  0.0183  0.0745
  630ERGO    R4 9793  11.624  11.453   9.036 -0.2229 -0.3829 -0.0729
  630ERGO    R5 9794  11.728  11.265   8.999  0.0017 -0.3027  0.1217
  630ERGO    C1 9795  11.871  11.476   8.715 -0.2593 -0.4224 -0.1031
  630ERGO    C2 9796  12.097  11.468   8.408  0.2801  0.0279  0.2029
  631ERGO   ROH 9797  16.856   3.410   9.376  0.1685 -0.0053 -0.0647
  631ERGO    R1 9798  16.988   3.304   9.149  0.1325 -0.2117  0.0098
  631ERGO    R2 9799  16.889   3.090   9.006 -0.1400 -0.0383 -0.0590
  631ERGO    R3 9800  16.913   3.261   8.796  0.2744 -0.0634 -0.0413
  631ERGO    R4 9801  16.856   3.000   8.674 -0.6517  0.1040 -0.0556
  631ERGO    R5 9802  17.023   3.132   8.627 -0.2375 -0.4105 -0.1385
  631ERGO    C1 9803  16.859   3.109   8.283 -0.5609  0.1633 -0.0370
  631ERGO    C2 9804  16.629   3.209   8.064 -0.0966 -0.0312  0.0969
  632ERGO   ROH 9805   0.742  15.461   9.858  0.1259 -0.1355 -0.0414
  632ERGO    R1 9806   0.630  15.563   9.619 -0.0183 -0.1371  0.0246
  632ERGO    R2 9807   0.774  15.581   9.383 -0.0876  0.0828 -0.0006
  632ERGO    R3 9808   0.566  15.437   9.283  0.0141 -0.0595 -0.0116
  632ERGO    R4 9809   0.718  15.520   9.048 -0.0122  0.0278 -0.0036
  632ERGO    R5 9810   0.506  15.551   9.082 -0.0393 -0.1076 -0.0256
  632ERGO    C1 9811   0.491  15.350   8.758  0.1272 -0.1376 -0.0157
  632ERGO    C2 9812   0.388  15.295   8.408  0.0820  0.4299  0.0139
  633ERGO   ROH 9813   9.276   8.788   9.552  0.2691 -0.1647 -0.1515
  633ERGO    R1 9814   9.240   8.718   9.280 -0.0908 -0.1293 -0.1180
  633ERGO    R2 9815   9.003   8.760   9.145 -0.1214  0.3332  0.0706
  633ERGO    R3 9816   9.163   8.892   8.970  0.0091 -0.0067 -0.0766
  633ERGO    R4 9817   8.912   8.850   8.824 -0.2390  0.5183  0.1534
  633ERGO    R5 9818   9.112   8.795   8.757 -0.4032  0.0860 -0.0337
  633ERGO    C1 9819   9.010   9.027   8.472 -0.1850  0.3069  0.0634
  633ERGO    C2 9820   8.800   8.916   8.158  0.3956  0.0761  0.0367
  634PSPI    C1 9821  14.788  18.582   5.182 -0.1544  0.2017 -0.0523
  634PSPI    C2 9822  14.744  18.261   5.416  0.1399  0.2379  0.0564
  634PSPI    C3 9823  14.895  18.221   5.048 -0.1740  0.2030 -0.0716
  634PSPI   PO4 9824  14.680  18.807   5.502 -0.0305 -0.1079 -0.2753
  634PSPI   GL1 9825  14.627  19.018   5.943  0.1878 -0.1562 -0.0233
  634PSPI   GL2 9826  14.417  18.946   6.021 -0.3579 -0.2395  0.0038
  634PSPI   C1A 9827  14.844  19.394   6.263 -0.1407 -0.1216  0.2605
  634PSPI   C2A 9828  14.918  19.370   6.709  0.5112 -0.0169  0.1306
  634PSPI   C3A 9829  14.822  19.543   7.114 -0.1890  0.2514  0.0379
  634PSPI   C4A 9830  14.843  19.411   7.630  0.0605  0.0731  0.2610
  634PSPI   C1B 9831  14.290  19.270   6.367  0.1973 -0.0549 -0.0626
  634PSPI   C2B 9832  14.403  19.471   6.669 -0.0967 -0.0465 -0.3335
  634PSPI   C3B 9833  14.397  19.895   6.866  0.1463  0.1636 -0.1988
  634PSPI   C4B 9834  14.381  20.200   7.160 -0.2836  0.2382  0.2435
  635PSPI    C1 9835  13.814   7.038   5.697 -0.1598 -0.1859 -0.1597
  635PSPI    C2 9836  14.085   6.808   5.880 -0.2268 -0.2505 -0.1411
  635PSPI    C3 9837  14.196   7.153   5.711 -0.1685 -0.1787  0.0412
  635PSPI   PO4 9838  13.627   7.130   5.898  0.1724  0.1611 -0.1513
  635PSPI   GL1 9839  13.602   7.084   6.308  0.4214  0.0247  0.1291
  635PSPI   GL2 9840  13.852   6.920   6.317 -0.0822 -0.2795 -0.1128
  635PSPI   C1A 9841  13.222   7.122   6.523 -0.1928  0.2907 -0.1020
  635PSPI   C2A 9842  12.775   7.087   6.644 -0.0438  0.1261 -0.0479
  635PSPI   C3A 9843  12.408   6.867   6.687  0.0903 -0.1334  0.0486
  635PSPI   C4A 9844  12.257   6.525   6.786 -0.1679 -0.0681  0.0887
  635PSPI   C1B 9845  13.934   7.109   6.725 -0.0881  0.0316  0.1470
  635PSPI   C2B 9846  14.141   7.469   6.953  0.2765  0.1782  0.2699
  635PSPI   C3B 9847  14.250   7.652   7.327 -0.2789  0.0999 -0.2185
  635PSPI   C4B 9848  14.243   8.020   7.619 -0.2114 -0.0262  0.0836
  636PSPI    C1 9849  17.280  18.748   5.634  0.1273 -0.0023 -0.1064
  636PSPI    C2 9850  17.264  18.364   5.525 -0.1398 -0.0171 -0.0230
  636PSPI    C3 9851  17.028  18.632   5.345 -0.1890  0.0512  0.1415
  636PSPI   PO4 9852  17.266  18.698   5.903 -0.1010 -0.0517  0.1842
  636PSPI   GL1 9853  17.269  18.507   6.264 -0.0916  0.0071  0.0931
  636PSPI   GL2 9854  17.543  18.420   6.331 -0.0287  0.5396  0.0131
  636PSPI   C1A 9855  17.394  18.780   6.692 -0.1684  0.0612  0.0703
  636PSPI   C2A 9856  17.436  19.046   7.130  0.2680 -0.3665 -0.1228
  636PSPI   C3A 9857  17.478  19.391   7.440  0.0396 -0.0039 -0.1663
  636PSPI   C4A 9858  17.403  19.566   7.801  0.0549  0.3319  0.0269
  636PSPI   C1B 9859  17.415  18.300   6.750  0.2125 -0.3366 -0.0453
  636PSPI   C2B 9860  17.466  18.217   7.209 -0.0532  0.3006 -0.0441
  636PSPI   C3B 9861  17.335  17.923   7.536 -0.0161 -0.3385 -0.0367
  636PSPI   C4B 9862  17.702  17.868   7.811 -0.2711 -0.2252 -0.0939
  637PSPI    C1 9863  10.409   7.987   5.647 -0.0356  0.0860  0.0539
  637PSPI    C2 9864  10.228   8.321   5.772  0.3210  0.3049  0.0022
  637PSPI    C3 9865  10.520   8.342   5.500  0.2114 -0.0728 -0.1517
  637PSPI   PO4 9866  10.241   7.759   5.806 -0.2081 -0.0310 -0.2781
  637PSPI   GL1 9867  10.361   7.582   6.262  0.1786  0.2374  0.4529
  637PSPI   GL2 9868  10.100   7.353   6.320  0.1273  0.0045 -0.1349
  637PSPI   C1A 9869  10.323   7.475   6.746  0.4553  0.0402  0.1204
  637PSPI   C2A 9870  10.331   7.210   7.075 -0.4078  0.1033  0.3112
  637PSPI   C3A 9871  10.258   7.071   7.430  0.2423 -0.1673  0.0496
  637PSPI   C4A 9872  10.372   6.924   7.809  0.0978 -0.1176 -0.1011
  637PSPI   C1B 9873  10.058   7.015   6.587 -0.1068  0.2172  0.1911
  637PSPI   C2B 9874   9.785   6.883   7.002  0.0336  0.0168 -0.1876
  637PSPI   C3B 9875   9.751   6.955   7.427 -0.1594  0.0703  0.1509
  637PSPI   C4B 9876   9.879   7.158   7.775 -0.1308 -0.1646 -0.1160
  638PSPI    C1 9877  12.753   9.141   5.611  0.0503 -0.1719  0.0796
  638PSPI    C2 9878  12.479   9.088   5.325  0.1692 -0.0031 -0.0675
  638PSPI    C3 9879  12.862   8.998   5.254  0.1901 -0.0154  0.0586
  638PSPI   PO4 9880  12.619   9.037   5.884 -0.2234  0.2610  0.2640
  638PSPI   GL1 9881  12.630   9.021   6.325  0.1571 -0.2418  0.0805
  638PSPI   GL2 9882  12.687   8.698   6.494 -0.1465  0.1412  0.1389
  638PSPI   C1A 9883  12.639   9.291   6.697  0.2406 -0.0887 -0.1649
  638PSPI   C2A 9884  12.574   9.301   7.150  0.0169 -0.1871  0.1231
  638PSPI   C3A 9885  12.684   9.229   7.557  0.3764  0.0008  0.2977
  638PSPI   C4A 9886  12.798   9.213   7.940  0.3039 -0.3609  0.0141
  638PSPI   C1B 9887  12.594   8.712   6.975 -0.3818  0.0681  0.3606
  638PSPI   C2B 9888  12.465   8.609   7.322  0.0882 -0.0218  0.2969
  638PSPI   C3B 9889  12.488   8.340   7.730 -0.0982 -0.0099 -0.1360
  638PSPI   C4B 9890  12.249   8.426   8.135  0.1833 -0.0644  0.3833
  639PSPI    C1 9891   5.057  17.927   5.046 -0.0160  0.1834 -0.1784
  639PSPI    C2 9892   5.430  17.978   4.913 -0.0375 -0.1235 -0.3665
  639PSPI    C3 9893   5.123  18.138   4.713 -0.0015  0.2563 -0.1298
  639PSPI   PO4 9894   5.046  17.873   5.421 -0.1094  0.0913 -0.0059
  639PSPI   GL1 9895   5.272  17.957   5.861  0.4540  0.0340 -0.0492
  639PSPI   GL2 9896   5.408  18.250   5.781  0.2500 -0.0800 -0.2625
  639PSPI   C1A 9897   5.360  18.100   6.303  0.0900 -0.1341  0.1253
  639PSPI   C2A 9898   5.550  18.084   6.677 -0.0040 -0.1426  0.1315
  639PSPI   C3A 9899   5.495  17.995   7.132  0.0192  0.1018  0.0087
  639PSPI   C4A 9900   5.733  17.933   7.562  0.3696 -0.1271  0.3810
  639PSPI   C1B 9901   5.671  18.456   6.046  0.0979  0.0736  0.1196
  639PSPI   C2B 9902   5.732  18.753   6.332 -0.1105 -0.0556  0.1442
  639PSPI   C3B 9903   5.894  18.777   6.716 -0.1581 -0.0130  0.1923
  639PSPI   C4B 9904   5.894  18.926   7.104 -0.0334 -0.1103 -0.3069
  640PSPI    C1 9905   9.305  16.443   5.527 -0.0556 -0.0383  0.0045
  640PSPI    C2 9906   9.102  16.151   5.343  0.0592 -0.0427 -0.1169
  640PSPI    C3 9907   9.487  16.213   5.254  0.0169  0.1909 -0.1427
  640PSPI   PO4 9908   9.078  16.580   5.566  0.4976  0.3509 -0.2096
  640PSPI   GL1 9909   9.114  16.774   5.946  0.0152 -0.0830  0.0675
  640PSPI   GL2 9910   9.355  16.455   6.017 -0.0271  0.0652  0.0667
  640PSPI   C1A 9911   9.269  16.710   6.432  0.3636  0.0418  0.1063
  640PSPI   C2A 9912   9.316  16.522   6.843  0.0334  0.1011 -0.1085
  640PSPI   C3A 9913   9.116  16.552   7.236 -0.2786  0.1218 -0.1228
  640PSPI   C4A 9914   9.036  16.667   7.655 -0.4240 -0.0434  0.3148
  640PSPI   C1B 9915   9.420  16.170   6.407  0.0701  0.1499 -0.2998
  640PSPI   C2B 9916   9.543  16.003   6.810  0.1953  0.0488 -0.0886
  640PSPI   C3B 9917   9.643  16.274   7.132 -0.2380 -0.1040  0.0489
  640PSPI   C4B 9918   9.795  16.391   7.470  0.1585 -0.1628  0.0128
  641PSPI    C1 9919   0.791   3.510   5.373  0.2147 -0.0503 -0.0289
  641PSPI    C2 9920   0.473   3.298   5.258  0.1226 -0.0212  0.1680
  641PSPI    C3 9921   0.632   3.570   5.011  0.1020 -0.1576  0.0025
  641PSPI   PO4 9922   0.956   3.353   5.478 -0.1372 -0.1906 -0.1471
  641PSPI   GL1 9923   1.086   3.279   5.859  0.2002 -0.0233 -0.1828
  641PSPI   GL2 9924   1.431   3.330   5.876  0.1043  0.1690  0.4328
  641PSPI   C1A 9925   0.878   3.115   6.267 -0.0828  0.3242  0.1898
  641PSPI   C2A 9926   0.929   2.816   6.511 -0.0183  0.0665 -0.3042
  641PSPI   C3A 9927   0.809   2.747   6.943 -0.3750 -0.0570 -0.1290
  641PSPI   C4A 9928   1.057   2.673   7.278  0.2033  0.0339 -0.1923
  641PSPI   C1B 9929   1.441   3.305   6.273  0.3905  0.0026  0.0705
  641PSPI   C2B 9930   1.602   3.289   6.652  0.1689 -0.1175 -0.0762
  641PSPI   C3B 9931   1.498   3.335   7.044 -0.2370  0.3532 -0.0016
  641PSPI   C4B 9932   1.208   3.170   7.214  0.1163 -0.0570  0.0989
  642PSPI    C1 9933  13.480   9.748   5.949  0.0560 -0.1069  0.1210
  642PSPI    C2 9934  13.258  10.076   5.897  0.1902 -0.0591 -0.1723
  642PSPI    C3 9935  13.235   9.776   5.634  0.2739 -0.1675 -0.0569
  642PSPI   PO4 9936  13.481   9.691   6.242 -0.0557 -0.1167  0.2830
  642PSPI   GL1 9937  13.151   9.437   6.477 -0.0884  0.0923  0.2484
  642PSPI   GL2 9938  12.969   9.730   6.467 -0.0184  0.3211  0.0265
  642PSPI   C1A 9939  13.063   9.118   6.756  0.0110  0.1843  0.1380
  642PSPI   C2A 9940  13.125   8.688   6.814 -0.0052  0.1681  0.0563
  642PSPI   C3A 9941  13.328   8.340   7.134  0.0176  0.0143  0.1294
  642PSPI   C4A 9942  13.608   8.095   7.433 -0.1508 -0.1322 -0.1386
  642PSPI   C1B 9943  12.953   9.630   6.937 -0.2490 -0.0033  0.1002
  642PSPI   C2B 9944  13.052   9.307   7.248  0.1736  0.2562 -0.0986
  642PSPI   C3B 9945  12.968   8.871   7.302 -0.3040 -0.3691  0.1124
  642PSPI   C4B 9946  13.030   8.531   7.559 -0.0271  0.0631  0.2076
  643PSPI    C1 9947   5.480  11.456   5.108 -0.3467 -0.1783 -0.0553
  643PSPI    C2 9948   5.333  11.801   4.969 -0.0868 -0.0703 -0.0675
  643PSPI    C3 9949   5.438  11.511   4.714 -0.1770 -0.1058 -0.0643
  643PSPI   PO4 9950   5.680  11.492   5.406  0.1268 -0.3592 -0.0065
  643PSPI   GL1 9951   5.488  11.699   5.847 -0.5157  0.0986 -0.1647
  643PSPI   GL2 9952   5.784  11.525   5.979 -0.0293  0.0836 -0.2738
  643PSPI   C1A 9953   5.453  11.850   6.281  0.0998  0.0771  0.1813
  643PSPI   C2A 9954   5.316  11.908   6.594  0.0528  0.0953  0.0600
  643PSPI   C3A 9955   5.019  12.090   7.005  0.2872  0.3072  0.0552
  643PSPI   C4A 9956   4.784  12.101   7.306 -0.0519 -0.0092 -0.0404
  643PSPI   C1B 9957   5.773  11.557   6.453  0.1473  0.1172  0.0253
  643PSPI   C2B 9958   5.580  11.494   6.780  0.0593  0.1988 -0.3315
  643PSPI   C3B 9959   5.219  11.625   7.044  0.0325 -0.1602 -0.0232
  643PSPI   C4B 9960   5.066  11.581   7.458 -0.2348 -0.1695 -0.1284
  644PSPI    C1 9961   4.104  12.888   4.613  0.1559 -0.1882  0.0448
  644PSPI    C2 9962   3.734  12.942   4.469  0.2309 -0.0597 -0.1037
  644PSPI    C3 9963   3.941  13.253   4.612  0.1894 -0.1723  0.2102
  644PSPI   PO4 9964   4.142  12.766   4.720 -0.2514 -0.0188 -0.3771
  644PSPI   GL1 9965   4.025  12.650   5.151 -0.0150  0.2612 -0.0563
  644PSPI   GL2 9966   4.028  12.927   5.263 -0.1607 -0.3160 -0.5413
  644PSPI   C1A 9967   3.975  12.586   5.604  0.1956 -0.3003  0.1577
  644PSPI   C2A 9968   4.028  12.307   5.888  0.0239  0.0536 -0.1523
  644PSPI   C3A 9969   4.352  12.097   6.182 -0.0829 -0.0504 -0.0814
  644PSPI   C4A 9970   4.539  11.747   6.534 -0.0539  0.1133 -0.0856
  644PSPI   C1B 9971   4.404  13.076   5.642 -0.1162  0.1458  0.3460
  644PSPI   C2B 9972   4.559  13.069   5.963  0.1264 -0.0123 -0.2455
  644PSPI   C3B 9973   4.488  13.070   6.428  0.1036 -0.0277 -0.1582
  644PSPI   C4B 9974   4.510  13.015   6.783  0.0397  0.1159  0.1923
  645PSPI    C1 9975   2.788   7.289   5.205  0.1732  0.0309 -0.0173
  645PSPI    C2 9976   2.923   7.001   4.963  0.2248  0.0157  0.0295
  645PSPI    C3 9977   2.884   7.375   4.826  0.0217 -0.0417 -0.0730
  645PSPI   PO4 9978   2.856   7.139   5.438 -0.0175  0.1021 -0.1089
  645PSPI   GL1 9979   2.614   6.935   5.813 -0.0505  0.2685 -0.1095
  645PSPI   GL2 9980   2.766   7.019   6.065  0.2407 -0.3536 -0.4290
  645PSPI   C1A 9981   2.436   6.663   6.258 -0.1033 -0.2226 -0.0416
  645PSPI   C2A 9982   2.369   6.329   6.537 -0.0818 -0.3330 -0.1036
  645PSPI   C3A 9983   2.225   6.307   6.936 -0.2255  0.1059  0.2071
  645PSPI   C4A 9984   1.851   6.181   7.208 -0.1189  0.1817 -0.0284
  645PSPI   C1B 9985   2.691   7.051   6.492  0.1140  0.0842  0.3345
  645PSPI   C2B 9986   2.593   7.270   6.866 -0.2972  0.0592 -0.1925
  645PSPI   C3B 9987   2.790   7.156   7.289  0.0550 -0.0265  0.1392
  645PSPI   C4B 9988   3.214   7.366   7.185  0.1466  0.1375  0.0904
  646PSPI    C1 9989   9.304   8.930   5.473  0.0513 -0.1109 -0.1342
  646PSPI    C2 9990   8.911   8.863   5.438 -0.0000  0.1879 -0.1538
  646PSPI    C3 9991   9.104   9.072   5.157  0.1423  0.1786 -0.0638
  646PSPI   PO4 9992   9.326   9.177   5.713  0.2868  0.0113 -0.2799
  646PSPI   GL1 9993   9.319   9.222   6.210 -0.1985  0.0139  0.1203
  646PSPI   GL2 9994   9.323   8.870   6.384 -0.1162 -0.0039  0.0532
  646PSPI   C1A 9995   9.160   9.511   6.490  0.0460 -0.0357 -0.3845
  646PSPI   C2A 9996   8.834   9.797   6.960 -0.1255 -0.0801  0.3517
  646PSPI   C3A 9997   8.886   9.499   7.399  0.2243  0.3073 -0.1265
  646PSPI   C4A 9998   9.079   9.209   7.720  0.0117  0.0436  0.3679
  646PSPI   C1B 9999   9.557   9.200   6.674 -0.1836 -0.0321  0.5007
  646PSPI   C2B10000   9.679   9.253   7.003 -0.3516  0.0903  0.0636
  646PSPI   C3B10001   9.522   9.293   7.424  0.0304  0.1280  0.0855
  646PSPI   C4B10002   9.313   9.663   7.561 -0.0536 -0.0036 -0.0672
  647PSPI    C110003   9.467   6.057   5.165 -0.0885 -0.0084  0.2551
  647PSPI    C210004   9.471   6.457   5.166 -0.0179 -0.0043 -0.1515
  647PSPI    C310005   9.782   6.253   5.314  0.0502  0.0926 -0.1600
  647PSPI   PO410006   9.273   5.904   5.303  0.2210 -0.3643 -0.1102
  647PSPI   GL110007   9.483   5.713   5.810  0.1146 -0.1584 -0.3437
  647PSPI   GL210008   9.311   5.444   5.963 -0.0396  0.1752 -0.2073
  647PSPI   C1A10009   9.785   5.607   6.145 -0.1478  0.0349 -0.1443
  647PSPI   C2A10010  10.113   5.526   6.492  0.0836  0.3155  0.3015
  647PSPI   C3A10011  10.327   5.620   6.901 -0.1721 -0.0299  0.2169
  647PSPI   C4A10012  10.606   5.536   7.177 -0.1519 -0.1551  0.4597
  647PSPI   C1B10013   9.520   5.077   6.236  0.2801 -0.0349 -0.2618
  647PSPI   C2B10014   9.308   4.733   6.531 -0.1725  0.1626  0.1427
  647PSPI   C3B10015   9.456   4.683   6.956  0.0587 -0.0750 -0.2089
  647PSPI   C4B10016   9.477   4.506   7.349 -0.0836  0.0076  0.0793
  648PSPI    C110017   4.916   3.838   5.190 -0.0225  0.0694 -0.1638
  648PSPI    C210018   5.116   3.499   5.118  0.0048  0.0208  0.1291
  648PSPI    C310019   5.122   3.795   4.850  0.0724 -0.1662 -0.0791
  648PSPI   PO410020   4.983   3.839   5.421  0.3647 -0.2889 -0.2020
  648PSPI   GL110021   4.923   3.917   5.859 -0.5621  0.4165 -0.2967
  648PSPI   GL210022   5.269   3.682   5.897  0.0989  0.0593 -0.1542
  648PSPI   C1A10023   4.713   3.969   6.296 -0.2117 -0.1355 -0.0828
  648PSPI   C2A10024   4.620   4.125   6.680  0.0046 -0.0496 -0.0219
  648PSPI   C3A10025   4.514   4.294   7.139  0.1779 -0.0777  0.0641
  648PSPI   C4A10026   4.239   4.357   7.457  0.4112 -0.0676 -0.0864
  648PSPI   C1B10027   5.171   3.774   6.304 -0.2124  0.2556  0.0665
  648PSPI   C2B10028   5.076   3.702   6.692  0.0743 -0.0167 -0.1413
  648PSPI   C3B10029   5.291   3.709   7.160 -0.0913 -0.0335  0.1677
  648PSPI   C4B10030   5.230   3.702   7.567 -0.1392 -0.0422  0.0833
  649PSPI    C110031  12.335  18.538   5.314  0.1876 -0.1450 -0.1583
  649PSPI    C210032  12.000  18.664   5.135  0.1908 -0.1497 -0.1674
  649PSPI    C310033  12.186  18.334   5.004  0.2392 -0.1059 -0.2091
  649PSPI   PO410034  12.305  18.547   5.608  0.3678  0.0686 -0.2601
  649PSPI   GL110035  12.316  18.764   5.933  0.1056  0.0386 -0.1914
  649PSPI   GL210036  12.650  18.619   6.049  0.0718 -0.0191  0.0482
  649PSPI   C1A10037  12.132  18.466   6.298 -0.1131 -0.0592 -0.0151
  649PSPI   C2A10038  12.028  18.145   6.663  0.1909 -0.2050 -0.1873
  649PSPI   C3A10039  11.950  18.009   7.013  0.1592  0.0519  0.1163
  649PSPI   C4A10040  11.924  17.651   7.217  0.5948 -0.2193 -0.1800
  649PSPI   C1B10041  12.490  18.905   6.427 -0.2019 -0.2485 -0.0943
  649PSPI   C2B10042  12.493  19.250   6.553  0.1726  0.2445  0.0438
  649PSPI   C3B10043  12.073  19.439   6.661 -0.1594 -0.1869  0.0449
  649PSPI   C4B10044  11.677  19.288   6.800  0.0399  0.0538 -0.0345
  650PSPI    C110045   2.045   7.972   5.224 -0.0326  0.1674  0.1472
  650PSPI    C210046   2.095   7.854   4.845  0.1523  0.0782  0.1982
  650PSPI    C310047   1.778   7.727   5.054  0.0278  0.1605  0.0617
  650PSPI   PO410048   2.232   7.920   5.347  0.0351 -0.0485  0.0478
  650PSPI   GL110049   2.404   8.103   5.766 -0.1656 -0.0665  0.2483
  650PSPI   GL210050   2.163   7.770   5.798 -0.1470  0.3996  0.2460
  650PSPI   C1A10051   2.480   8.111   6.174  0.0144  0.0240  0.2625
  650PSPI   C2A10052   2.605   8.102   6.527 -0.0546  0.1097 -0.0976
  650PSPI   C3A10053   2.621   8.260   6.983 -0.0126 -0.1227 -0.0052
  650PSPI   C4A10054   2.654   8.533   7.358 -0.0696 -0.0774 -0.1592
  650PSPI   C1B10055   1.959   7.970   6.137  0.0034  0.0668  0.0267
  650PSPI   C2B10056   2.018   7.980   6.529  0.3881  0.1222  0.2434
  650PSPI   C3B10057   2.057   8.033   6.950 -0.3004  0.1236  0.0052
  650PSPI   C4B10058   1.969   7.953   7.359  0.0158 -0.2943 -0.1222
  651PSPI    C110059  18.171   0.726   5.841  0.2105 -0.3576  0.0873
  651PSPI    C210060  17.997   0.652   6.194  0.0648 -0.0392  0.0853
  651PSPI    C310061  17.778   0.653   5.859  0.1344  0.0205  0.0395
  651PSPI   PO410062  18.291   0.974   5.930 -0.0895 -0.0489  0.1188
  651PSPI   GL110063  18.423   1.069   6.379 -0.0563  0.0251 -0.1769
  651PSPI   GL210064  18.200   1.399   6.342  0.0868  0.0198  0.0548
  651PSPI   C1A10065  18.655   0.917   6.811 -0.0084  0.2630 -0.0806
  651PSPI   C2A10066  18.698   1.153   7.194  0.2412 -0.1131 -0.0008
  651PSPI   C3A10067  18.587   1.556   7.368 -0.1142  0.0352  0.0867
  651PSPI   C4A10068  18.432   1.779   7.777  0.0945 -0.0219  0.0852
  651PSPI   C1B10069  18.229   1.303   6.850  0.3392  0.0271 -0.0723
  651PSPI   C2B10070  18.199   0.964   7.188 -0.0083  0.0169 -0.1937
  651PSPI   C3B10071  17.941   0.830   7.494 -0.0496 -0.2112  0.0652
  651PSPI   C4B10072  17.840   0.549   7.861  0.0768 -0.2507  0.0165
  652PSPI    C110073  12.341   7.591   6.057 -0.2532 -0.0710 -0.1220
  652PSPI    C210074  12.251   7.844   5.761  0.0465 -0.0150 -0.1681
  652PSPI    C310075  12.346   7.464   5.678 -0.0013 -0.0348 -0.1325
  652PSPI   PO410076  12.056   7.645   6.174  0.0102  0.2637  0.1321
  652PSPI   GL110077  11.881   8.010   6.568  0.0685  0.1565 -0.0437
  652PSPI   GL210078  12.090   7.879   6.726 -0.3304 -0.1438  0.2945
  652PSPI   C1A10079  11.561   7.843   6.797 -0.0673 -0.0452 -0.0369
  652PSPI   C2A10080  11.278   7.693   6.800  0.0260 -0.0843  0.0778
  652PSPI   C3A10081  11.000   7.715   7.122 -0.2842  0.0618 -0.1536
  652PSPI   C4A10082  11.070   7.559   7.518  0.1396 -0.1169 -0.0869
  652PSPI   C1B10083  11.946   7.751   7.099 -0.0032 -0.3204  0.2390
  652PSPI   C2B10084  11.837   7.769   7.521  0.0403  0.0915  0.1337
  652PSPI   C3B10085  11.458   7.774   7.777  0.1490  0.0956 -0.2372
  652PSPI   C4B10086  11.213   7.593   8.003  0.0366 -0.1975  0.1885
  653PSPI    C110087  15.330  11.022   6.140  0.2565 -0.0876 -0.1727
  653PSPI    C210088  15.266  11.014   5.745  0.0182  0.2794 -0.1460
  653PSPI    C310089  15.501  11.296   5.904  0.3680 -0.0545 -0.0545
  653PSPI   PO410090  15.071  10.993   6.335  0.1925 -0.1491  0.1542
  653PSPI   GL110091  15.169  10.969   6.710  0.0062 -0.0296  0.1120
  653PSPI   GL210092  15.132  11.262   6.789 -0.0153 -0.2284 -0.2211
  653PSPI   C1A10093  14.901  10.846   7.070  0.0815 -0.0641  0.0127
  653PSPI   C2A10094  14.829  11.023   7.434  0.0173 -0.0630  0.0447
  653PSPI   C3A10095  14.793  11.371   7.712  0.0493 -0.1991 -0.2490
  653PSPI   C4A10096  15.010  11.600   7.916 -0.1173 -0.0321 -0.0820
  653PSPI   C1B10097  14.971  11.427   7.090 -0.1492 -0.0293 -0.3348
  653PSPI   C2B10098  14.969  11.740   7.401 -0.2845  0.1419 -0.0091
  653PSPI   C3B10099  15.195  12.142   7.521 -0.0548 -0.2002  0.0863
  653PSPI   C4B10100  15.185  12.363   7.918  0.2117  0.0356  0.0825
  654POPI    C110101   2.350  14.499   5.279 -0.0071 -0.0981 -0.1062
  654POPI    C210102   2.044  14.430   5.030 -0.0857 -0.3562  0.0583
  654POPI    C310103   2.420  14.377   4.904 -0.1052 -0.0292 -0.1474
  654POPI   PO410104   2.231  14.443   5.517  0.4632  0.1135 -0.1228
  654POPI   GL110105   2.438  14.584   5.833  0.0713 -0.0518  0.1799
  654POPI   GL210106   2.727  14.375   5.763  0.1128  0.1423 -0.0774
  654POPI   C1A10107   2.510  14.679   6.256  0.1451 -0.1661 -0.3211
  654POPI   D2A10108   2.730  14.591   6.663  0.1018 -0.1303 -0.0838
  654POPI   C3A10109   2.529  14.534   7.047  0.1519  0.0836 -0.1654
  654POPI   C4A10110   2.523  14.415   7.405  0.3673 -0.2059 -0.0182
  654POPI   C1B10111   2.644  14.104   6.222 -0.3332 -0.0453  0.1402
  654POPI   C2B10112   2.509  14.128   6.736 -0.1667  0.0071  0.3374
  654POPI   C3B10113   2.476  13.860   7.034  0.0576  0.3267 -0.2158
  654POPI   C4B10114   2.406  13.665   7.438  0.0099 -0.0175 -0.1859
  655POPI    C110115   5.594  18.453   5.363  0.1080  0.0972 -0.2479
  655POPI    C210116   5.428  18.460   4.999 -0.1551  0.1605 -0.1289
  655POPI    C310117   5.216  18.334   5.314  0.2300 -0.3860 -0.0743
  655POPI   PO410118   5.844  18.342   5.341 -0.4808  0.0761  0.1276
  655POPI   GL110119   6.006  18.346   5.655 -0.0883 -0.0359  0.1108
  655POPI   GL210120   6.001  18.001   5.643 -0.1199 -0.1980 -0.1141
  655POPI   C1A10121   6.200  18.452   6.025 -0.2753 -0.0779 -0.1046
  655POPI   D2A10122   6.252  18.698   6.346  0.0378  0.2088  0.5866
  655POPI   C3A10123   6.451  18.580   6.719 -0.2435  0.2395  0.0146
  655POPI   C4A10124   6.770  18.610   7.122 -0.1456  0.4682  0.0174
  655POPI   C1B10125   5.890  18.002   6.165  0.0571  0.1263  0.4958
  655POPI   C2B10126   5.922  17.784   6.557  0.0350  0.0924 -0.0511
  655POPI   C3B10127   5.932  17.772   6.838  0.1468  0.1477 -0.2794
  655POPI   C4B10128   6.177  17.809   7.209 -0.2961  0.0161 -0.0785
  656POPI    C110129   9.462  11.204   5.818 -0.0672  0.0639  0.0946
  656POPI    C210130   9.434  11.309   5.433 -0.2650  0.2427  0.1558
  656POPI    C310131   9.792  11.231   5.594 -0.1930  0.0432 -0.0954
  656POPI   PO410132   9.337  11.406   5.965  0.1890 -0.2277  0.3451
  656POPI   GL110133   9.487  11.598   6.338  0.0253  0.3657  0.0270
  656POPI   GL210134   9.267  11.905   6.322  0.2656 -0.5081  0.2360
  656POPI   C1A10135   9.268  11.499   6.738 -0.0157 -0.1565 -0.0505
  656POPI   D2A10136   9.176  11.562   7.158 -0.0161 -0.1007 -0.1482
  656POPI   C3A10137   9.579  11.473   7.448  0.2311  0.0746 -0.4448
  656POPI   C4A10138   9.742  11.916   7.763 -0.1253 -0.1136  0.2746
  656POPI   C1B10139   9.219  12.226   6.643  0.1807 -0.0146  0.3519
  656POPI   C2B10140   9.321  12.535   6.942  0.1632  0.2072  0.1345
  656POPI   C3B10141   9.286  12.863   7.219 -0.0163 -0.0308  0.2120
  656POPI   C4B10142   9.148  13.250   7.450  0.1756  0.2676 -0.1411
  657POPI    C110143  12.761   7.784   5.903  0.2678 -0.1954 -0.0549
  657POPI    C210144  12.604   8.152   5.900  0.1300 -0.2503  0.1386
  657POPI    C310145  12.962   8.085   5.733  0.0926 -0.0584 -0.0227
  657POPI   PO410146  12.759   7.693   6.250 -0.2873 -0.3494 -0.0681
  657POPI   GL110147  12.506   7.726   6.534 -0.4077 -0.2084 -0.0830
  657POPI   GL210148  12.575   7.905   6.736  0.0712  0.0260  0.2883
  657POPI   C1A10149  12.257   7.401   6.743  0.1879  0.0980  0.2944
  657POPI   D2A10150  12.199   7.257   7.086  0.2777  0.2194  0.1438
  657POPI   C3A10151  12.452   6.959   7.305 -0.5176 -0.0231  0.1471
  657POPI   C4A10152  12.441   6.525   7.236  0.0653  0.1083  0.5159
  657POPI   C1B10153  12.433   7.916   7.123  0.3371  0.0936  0.1229
  657POPI   C2B10154  12.288   7.866   7.518  0.0448 -0.0352  0.3725
  657POPI   C3B10155  12.334   7.952   7.963  0.0826  0.2472 -0.0877
  657POPI   C4B10156  12.532   7.831   8.339  0.4142  0.0800 -0.1018
  658POPI    C110157   4.322   2.971   5.153  0.0863 -0.0162  0.1887
  658POPI    C210158   4.694   2.977   5.006  0.0464 -0.1327  0.0812
  658POPI    C310159   4.447   2.676   4.913 -0.1570  0.0713 -0.0507
  658POPI   PO410160   4.299   2.989   5.426 -0.0637 -0.0554 -0.0874
  658POPI   GL110161   4.091   3.223   5.769  0.0380 -0.1795 -0.3640
  658POPI   GL210162   4.252   3.459   5.761  0.3625  0.1178  0.2081
  658POPI   C1A10163   4.006   3.018   6.102 -0.1865 -0.1670  0.0511
  658POPI   D2A10164   4.014   2.639   6.264  0.0527 -0.3801 -0.0279
  658POPI   C3A10165   3.988   2.245   6.173  0.0279 -0.0113  0.1972
  658POPI   C4A10166   3.836   1.822   6.141 -0.1679 -0.0813 -0.2872
  658POPI   C1B10167   4.569   3.482   5.865 -0.0401  0.2203 -0.1224
  658POPI   C2B10168   4.798   3.439   6.173  0.0185 -0.2647  0.1488
  658POPI   C3B10169   4.974   3.244   6.561 -0.0212 -0.0259  0.1043
  658POPI   C4B10170   5.077   3.342   6.986 -0.3146  0.0360 -0.2401
  659POPI    C110171   8.039  15.915   5.403 -0.0171  0.1949 -0.0125
  659POPI    C210172   8.405  16.017   5.277  0.0649 -0.1568 -0.0689
  659POPI    C310173   8.269  15.645   5.218 -0.1920 -0.1110  0.2072
  659POPI   PO410174   7.977  16.027   5.727 -0.2066  0.2285  0.0106
  659POPI   GL110175   8.247  16.127   6.123  0.1728  0.1618  0.2941
  659POPI   GL210176   8.309  16.294   6.024  0.2558 -0.2204 -0.2311
  659POPI   C1A10177   7.981  16.153   6.452 -0.0053  0.0676  0.0735
  659POPI   D2A10178   8.032  16.174   6.920 -0.0282  0.1595 -0.2818
  659POPI   C3A10179   7.949  15.874   7.242  0.0819  0.1674 -0.0232
  659POPI   C4A10180   7.950  15.502   7.536  0.0124  0.1448 -0.0562
  659POPI   C1B10181   8.412  16.448   6.377 -0.2263 -0.0299  0.0951
  659POPI   C2B10182   8.460  16.458   6.776  0.2743 -0.1091  0.3890
  659POPI   C3B10183   8.664  16.339   7.020 -0.2243 -0.0911 -0.0601
  659POPI   C4B10184   8.739  16.290   7.500  0.1790 -0.0909  0.1414
  660POPI    C110185  13.295  16.413   5.370 -0.3843  0.0379 -0.0368
  660POPI    C210186  13.607  16.214   5.219 -0.3153  0.0217  0.1248
  660POPI    C310187  13.308  16.329   4.979 -0.0828  0.2296 -0.0707
  660POPI   PO410188  13.359  16.420   5.652 -0.0322 -0.2995  0.4477
  660POPI   GL110189  13.179  16.678   6.007  0.0188 -0.1882 -0.2783
  660POPI   GL210190  12.940  16.333   6.051 -0.2292 -0.1425 -0.0251
  660POPI   C1A10191  13.254  16.768   6.433  0.2277  0.0896  0.3713
  660POPI   D2A10192  13.139  16.952   6.831  0.1065 -0.2663 -0.2056
  660POPI   C3A10193  13.191  16.750   7.243 -0.3083  0.1872 -0.0603
  660POPI   C4A10194  13.385  16.647   7.618 -0.0668 -0.1237  0.1476
  660POPI   C1B10195  12.941  16.273   6.439  0.0221 -0.1274 -0.3571
  660POPI   C2B10196  13.226  16.396   6.810 -0.1433  0.0109 -0.1088
  660POPI   C3B10197  13.530  16.209   7.034 -0.0723 -0.2539 -0.1924
  660POPI   C4B10198  13.961  16.097   7.197  0.0223  0.3135 -0.0811
  661POPI    C110199   3.661   1.419   4.954  0.1425 -0.1581 -0.0954
  661POPI    C210200   3.995   1.233   4.838  0.1144 -0.1981 -0.1126
  661POPI    C310201   3.720   1.336   4.567  0.1293 -0.1322 -0.1030
  661POPI   PO410202   3.772   1.613   5.244 -0.2233 -0.0766  0.1033
  661POPI   GL110203   4.166   1.631   5.526 -0.0841 -0.3433  0.1752
  661POPI   GL210204   4.201   1.363   5.270  0.1748 -0.1383  0.0888
  661POPI   C1A10205   4.119   1.516   5.897 -0.1247 -0.1505  0.1422
  661POPI   D2A10206   3.981   1.124   6.020 -0.1792 -0.1254  0.0168
  661POPI   C3A10207   3.787   0.978   6.460 -0.1278 -0.1320 -0.0370
  661POPI   C4A10208   3.597   1.054   6.896  0.2917  0.2726 -0.4833
  661POPI   C1B10209   4.257   1.100   5.596  0.1139  0.0582 -0.2094
  661POPI   C2B10210   4.501   0.886   5.859  0.0215 -0.3179  0.0472
  661POPI   C3B10211   4.378   0.733   6.157 -0.1534 -0.0967  0.4093
  661POPI   C4B10212   4.447   0.336   6.390 -0.0251  0.1433 -0.1973
  662POPI    C110213   0.265   8.783   5.717 -0.2154 -0.1868 -0.0025
  662POPI    C210214   0.145   8.546   5.417  0.0514 -0.2713 -0.0455
  662POPI    C310215   0.158   8.405   5.791 -0.0289 -0.2468 -0.0332
  662POPI   PO410216   0.499   8.940   5.705 -0.2947 -0.2974  0.0979
  662POPI   GL110217   0.709   9.179   6.053 -0.2900 -0.1650 -0.2723
  662POPI   GL210218   1.101   9.135   6.133 -0.2356 -0.3447  0.0514
  662POPI   C1A10219   0.662   9.120   6.515 -0.0144 -0.3042 -0.3582
  662POPI   D2A10220   0.641   8.903   6.985  0.0124 -0.0396  0.1152
  662POPI   C3A10221   0.377   8.707   7.189 -0.0206  0.1128  0.2673
  662POPI   C4A10222  -0.058   8.795   7.219 -0.0151  0.0276 -0.0401
  662POPI   C1B10223   1.131   9.058   6.616 -0.0761  0.2507 -0.0388
  662POPI   C2B10224   0.986   9.244   6.992 -0.1254 -0.2285  0.1390
  662POPI   C3B10225   1.073   9.325   7.452 -0.2371 -0.0103 -0.3055
  662POPI   C4B10226   1.087   8.996   7.786  0.1052 -0.1840 -0.1161
  663POPI    C110227   0.946  13.179   5.716  0.0116  0.0867  0.1049
  663POPI    C210228   1.046  13.519   5.531  0.0667 -0.0689 -0.1554
  663POPI    C310229   1.218  13.174   5.422 -0.1343 -0.2105 -0.0292
  663POPI   PO410230   0.607  13.202   5.788  0.0939 -0.3261 -0.1835
  663POPI   GL110231   0.525  13.222   6.202  0.0107 -0.0443  0.0542
  663POPI   GL210232   0.248  13.022   6.307  0.2796 -0.0868  0.0288
  663POPI   C1A10233   0.413  13.560   6.482  0.1678 -0.0348 -0.0302
  663POPI   D2A10234   0.360  13.659   6.894  0.0984 -0.3653  0.2064
  663POPI   C3A10235   0.319  13.585   7.356 -0.3152  0.2525 -0.0257
  663POPI   C4A10236   0.574  13.368   7.758  0.1180  0.0044  0.0345
  663POPI   C1B10237   0.501  13.105   6.733  0.0803  0.0444  0.1593
  663POPI   C2B10238   0.649  13.073   7.187  0.1717 -0.1299 -0.0327
  663POPI   C3B10239   0.833  12.982   7.554  0.1504 -0.1226  0.2017
  663POPI   C4B10240   1.240  12.848   7.634  0.2186 -0.2561 -0.0142
  664POPI    C110241  16.037  15.747   5.535  0.1169  0.0652 -0.3418
  664POPI    C210242  16.086  15.374   5.671 -0.1542  0.0937 -0.1577
  664POPI    C310243  15.901  15.437   5.322 -0.1964  0.0611 -0.1412
  664POPI   PO410244  16.144  15.905   5.808 -0.1454  0.1240  0.1372
  664POPI   GL110245  15.900  15.972   6.284 -0.5714  0.1896  0.1401
  664POPI   GL210246  15.920  15.600   6.208 -0.0089  0.1572 -0.0670
  664POPI   C1A10247  15.992  15.955   6.671  0.1278  0.0182  0.1157
  664POPI   D2A10248  16.119  16.102   7.063 -0.1927  0.1593  0.1031
  664POPI   C3A10249  16.182  16.515   7.023 -0.0064  0.1371 -0.1036
  664POPI   C4A10250  16.110  16.985   7.144  0.4679 -0.1837 -0.1401
  664POPI   C1B10251  15.567  15.522   6.504 -0.0505 -0.1269  0.0412
  664POPI   C2B10252  15.371  15.335   6.986 -0.0279  0.0994  0.0680
  664POPI   C3B10253  15.456  15.356   7.433 -0.0122  0.0890  0.0412
  664POPI   C4B10254  15.251  15.539   7.822 -0.1215 -0.0353  0.0689
  665POPI    C110255  14.333  17.927   5.440  0.0956  0.1318  0.0390
  665POPI    C210256  14.694  17.804   5.321  0.0099  0.0799 -0.1731
  665POPI    C310257  14.397  17.540   5.363 -0.1000  0.1727 -0.3562
  665POPI   PO410258  14.370  18.023   5.746  0.0288 -0.3629  0.0665
  665POPI   GL110259  14.410  18.027   6.114 -0.1415 -0.3846 -0.0416
  665POPI   GL210260  14.111  17.857   6.179  0.0767 -0.3229  0.1752
  665POPI   C1A10261  14.692  17.942   6.561 -0.1913  0.0216 -0.3204
  665POPI   D2A10262  14.459  17.968   6.888  0.0667 -0.4770  0.1887
  665POPI   C3A10263  14.558  18.281   7.053 -0.1047  0.3370  0.3677
  665POPI   C4A10264  14.831  18.406   6.815 -0.0175 -0.1533 -0.3576
  665POPI   C1B10265  13.983  17.889   6.677 -0.0452 -0.2377  0.1440
  665POPI   C2B10266  14.048  17.773   7.092  0.1848  0.0045  0.1358
  665POPI   C3B10267  13.780  17.869   7.450 -0.1411  0.0478  0.1044
  665POPI   C4B10268  13.646  18.112   7.893 -0.0051  0.0331 -0.2364
  666POPI    C110269  14.107  17.130   5.629 -0.1404  0.1447  0.0214
  666POPI    C210270  13.964  17.208   5.264 -0.0281  0.2329 -0.0043
  666POPI    C310271  14.242  16.924   5.314  0.1725  0.4214 -0.0314
  666POPI   PO410272  13.885  17.175   5.792  0.2286  0.0117  0.1011
  666POPI   GL110273  13.902  17.323   6.128  0.0086 -0.2509 -0.0985
  666POPI   GL210274  13.760  17.028   6.274  0.1402  0.0849 -0.0791
  666POPI   C1A10275  14.001  17.442   6.472 -0.2055  0.2027 -0.1508
  666POPI   D2A10276  14.310  17.521   6.750 -0.0551  0.0874 -0.0505
  666POPI   C3A10277  14.380  17.455   7.182  0.2333 -0.2638 -0.2104
  666POPI   C4A10278  14.320  17.300   7.673  0.0940  0.0479 -0.0444
  666POPI   C1B10279  13.638  16.927   6.733  0.0184 -0.3482  0.0342
  666POPI   C2B10280  13.725  16.747   7.162  0.2558 -0.0909 -0.0411
  666POPI   C3B10281  13.900  16.562   7.554  0.2921 -0.1668  0.0368
  666POPI   C4B10282  14.092  16.225   7.750 -0.2120  0.1047  0.0040
  667POPI    C110283   6.665  10.869   5.692  0.1299 -0.1047 -0.1172
  667POPI    C210284   6.477  10.946   5.347 -0.0835  0.3169  0.0856
  667POPI    C310285   6.820  10.739   5.346 -0.3976 -0.2278 -0.3163
  667POPI   PO410286   6.516  11.140   5.820  0.3716 -0.0837 -0.1068
  667POPI   GL110287   6.378  11.337   6.238 -0.3021 -0.0693 -0.0239
  667POPI   GL210288   6.071  11.100   6.165  0.1423 -0.1299  0.2355
  667POPI   C1A10289   6.237  11.376   6.679  0.3294  0.0383 -0.0130
  667POPI   D2A10290   6.012  11.388   7.094  0.1305 -0.0512 -0.1092
  667POPI   C3A10291   6.053  11.448   7.477 -0.0777 -0.2837 -0.0822
  667POPI   C4A10292   5.958  11.384   7.860 -0.0196  0.1241  0.1204
  667POPI   C1B10293   5.875  11.051   6.536  0.1143  0.1684 -0.2063
  667POPI   C2B10294   5.739  11.011   6.941  0.0925 -0.1793 -0.1305
  667POPI   C3B10295   5.538  11.315   7.235  0.0203  0.0702  0.0430
  667POPI   C4B10296   5.510  11.473   7.634 -0.2849  0.0263 -0.0303
  668POPI    C110297  12.347  17.666   5.571 -0.1391 -0.0240 -0.1014
  668POPI    C210298  12.286  17.439   5.247 -0.2272  0.1376 -0.1988
  668POPI    C310299  12.114  17.342   5.595  0.1171 -0.2129 -0.1202
  668POPI   PO410300  12.283  17.889   5.548 -0.2917  0.1581 -0.2748
  668POPI   GL110301  12.297  18.135   5.935  0.2217 -0.1968 -0.1793
  668POPI   GL210302  11.930  18.172   5.966  0.1076  0.2866  0.5589
  668POPI   C1A10303  12.532  18.182   6.327  0.1442  0.0216  0.0462
  668POPI   D2A10304  12.551  18.419   6.638 -0.1373 -0.0803  0.1981
  668POPI   C3A10305  12.503  18.326   7.090 -0.0092 -0.0106  0.1653
  668POPI   C4A10306  12.202  18.324   7.326 -0.2545  0.1999 -0.0555
  668POPI   C1B10307  11.738  17.897   6.306 -0.0844  0.0663 -0.2087
  668POPI   C2B10308  11.775  17.684   6.718  0.1142  0.0554  0.0009
  668POPI   C3B10309  11.531  17.440   6.873  0.2451 -0.1350  0.0689
  668POPI   C4B10310  11.454  17.425   7.272 -0.0434  0.0140 -0.4397
  669POPI    C110311  12.914  15.656   4.966 -0.1387  0.0967  0.4364
  669POPI    C210312  12.832  16.048   4.970 -0.1948  0.0900  0.1339
  669POPI    C310313  13.115  15.905   4.726 -0.1548 -0.0549  0.2635
  669POPI   PO410314  12.778  15.646   5.227 -0.2567  0.0218 -0.0818
  669POPI   GL110315  12.912  15.701   5.711 -0.0969  0.0542  0.0870
  669POPI   GL210316  12.876  15.479   5.819  0.2851  0.1573  0.1357
  669POPI   C1A10317  12.669  15.910   6.085  0.0351 -0.1868  0.1438
  669POPI   D2A10318  12.710  15.829   6.573 -0.1283 -0.1944  0.1641
  669POPI   C3A10319  12.820  15.922   6.949  0.1868  0.0116  0.0080
  669POPI   C4A10320  13.077  16.071   7.162  0.0721  0.2753  0.2005
  669POPI   C1B10321  12.872  15.464   6.270 -0.0905  0.1537  0.2726
  669POPI   C2B10322  12.955  15.425   6.693  0.1795 -0.1670  0.0311
  669POPI   C3B10323  13.130  15.484   7.109  0.1223  0.0442  0.4836
  669POPI   C4B10324  13.332  15.661   7.414 -0.2380 -0.1551  0.0652
  670POPI    C110325  18.425   5.550   5.787 -0.1201  0.1137  0.0474
  670POPI    C210326  18.124   5.813   5.801 -0.0279  0.2259 -0.0569
  670POPI    C310327  18.112   5.509   5.542 -0.1519  0.1045  0.0896
  670POPI   PO410328  18.688   5.708   5.878  0.4610  0.4614 -0.0508
  670POPI   GL110329  19.099   5.740   5.879  0.2298 -0.0697 -0.4417
  670POPI   GL210330  18.966   5.743   6.273  0.3815  0.0949  0.0751
  670POPI   C1A10331  19.371   5.550   6.098 -0.4950 -0.0014  0.0687
  670POPI   D2A10332  19.495   5.442   6.599 -0.0156 -0.0527 -0.0178
  670POPI   C3A10333  19.244   5.136   6.749  0.0977  0.1028  0.1723
  670POPI   C4A10334  19.286   5.032   7.319  0.2774  0.0413  0.1955
  670POPI   C1B10335  19.064   5.615   6.661 -0.0083  0.2175  0.1426
  670POPI   C2B10336  19.242   5.667   7.058  0.1116 -0.4849 -0.2026
  670POPI   C3B10337  18.925   5.502   7.350  0.1155 -0.0592 -0.0780
  670POPI   C4B10338  18.936   5.172   7.684 -0.1101  0.2065 -0.0456
  671POPI    C110339  15.060  17.516   5.476  0.1947 -0.2936  0.1047
  671POPI    C210340  15.187  17.229   5.228  0.1041 -0.1414 -0.1203
  671POPI    C310341  15.134  17.602   5.093  0.1311 -0.0383  0.1482
  671POPI   PO410342  14.811  17.381   5.619  0.1563  0.1329 -0.1419
  671POPI   GL110343  14.757  17.245   6.073  0.0061 -0.0508  0.4058
  671POPI   GL210344  14.743  17.572   6.224 -0.1018 -0.0394 -0.0687
  671POPI   C1A10345  14.532  17.110   6.416  0.2889  0.4407  0.4980
  671POPI   D2A10346  14.112  17.015   6.618  0.1112  0.0970 -0.3096
  671POPI   C3A10347  13.992  17.196   6.964  0.2003  0.1685  0.1744
  671POPI   C4A10348  13.924  17.395   7.403  0.0588 -0.1989 -0.1916
  671POPI   C1B10349  14.998  17.556   6.562  0.0294  0.1706  0.0546
  671POPI   C2B10350  14.985  17.767   6.927  0.0837  0.2104 -0.3139
  671POPI   C3B10351  15.022  18.118   7.253  0.1745  0.5207 -0.0508
  671POPI   C4B10352  15.025  18.020   7.686 -0.0460 -0.0302 -0.3389
  672POPI    C110353   5.877   4.066   5.171  0.0364  0.0621 -0.0064
  672POPI    C210354   5.669   3.794   4.964 -0.1053  0.1228  0.0550
  672POPI    C310355   5.966   3.997   4.787  0.0469 -0.1199  0.0278
  672POPI   PO410356   5.957   3.900   5.493  0.0344 -0.0168 -0.0227
  672POPI   GL110357   6.081   3.940   5.857  0.4251 -0.1047 -0.2199
  672POPI   GL210358   5.947   4.202   6.040 -0.0682 -0.0665  0.0937
  672POPI   C1A10359   6.323   3.753   6.237  0.2378 -0.1116 -0.1340
  672POPI   D2A10360   6.351   3.693   6.696  0.1623 -0.0374  0.2057
  672POPI   C3A10361   6.688   3.933   6.885 -0.1892 -0.1278 -0.1718
  672POPI   C4A10362   7.083   3.911   6.639 -0.1605  0.2187 -0.0729
  672POPI   C1B10363   5.938   4.290   6.426  0.0952 -0.0080 -0.5052
  672POPI   C2B10364   6.297   4.512   6.672  0.3752 -0.2268  0.1794
  672POPI   C3B10365   6.413   4.313   7.089 -0.0059  0.1426 -0.1462
  672POPI   C4B10366   6.636   4.142   7.347 -0.1564  0.1062 -0.0844
  673POPI    C110367  18.153   9.002   5.498  0.0098 -0.0178  0.0211
  673POPI    C210368  17.978   9.304   5.694 -0.0247  0.0264 -0.0771
  673POPI    C310369  18.076   9.346   5.308  0.1744 -0.0091 -0.0314
  673POPI   PO410370  18.174   8.814   5.737  0.0921  0.3245  0.3211
  673POPI   GL110371  17.955   8.912   6.113 -0.5776  0.2418 -0.2068
  673POPI   GL210372  17.676   9.166   6.089 -0.2290  0.0321  0.2739
  673POPI   C1A10373  18.255   9.062   6.508 -0.4864  0.2109 -0.2790
  673POPI   D2A10374  18.340   8.929   6.906  0.3120  0.0332 -0.0078
  673POPI   C3A10375  18.031   8.951   7.158 -0.1013 -0.1591 -0.2569
  673POPI   C4A10376  17.983   8.904   7.640 -0.0779 -0.0259 -0.2416
  673POPI   C1B10377  17.929   9.397   6.316 -0.1754 -0.0260  0.1290
  673POPI   C2B10378  17.970   9.741   6.571 -0.2830 -0.1857  0.1262
  673POPI   C3B10379  18.313   9.924   6.726  0.4157 -0.0451  0.2102
  673POPI   C4B10380  18.624  10.120   6.857  0.0219 -0.0400  0.0234
  674POPI    C110381  15.502   2.114   5.352  0.1552  0.1840  0.1394
  674POPI    C210382  15.732   2.356   5.131 -0.0704  0.0381 -0.2652
  674POPI    C310383  15.612   2.004   4.984 -0.3940  0.0262  0.0138
  674POPI   PO410384  15.595   2.080   5.548 -0.0411  0.0823  0.1681
  674POPI   GL110385  15.758   1.862   5.943  0.2205  0.1998 -0.2737
  674POPI   GL210386  15.669   1.515   5.963  0.0612 -0.2188  0.1120
  674POPI   C1A10387  15.776   1.969   6.358 -0.2780  0.3021  0.1043
  674POPI   D2A10388  15.537   2.133   6.633 -0.0971  0.3974  0.0337
  674POPI   C3A10389  15.156   2.156   6.657 -0.1341  0.0866  0.1559
  674POPI   C4A10390  14.825   1.998   6.738 -0.0624  0.0753 -0.4716
  674POPI   C1B10391  15.363   1.730   6.336  0.5280 -0.1074 -0.1088
  674POPI   C2B10392  15.277   1.692   6.727 -0.0961  0.0156 -0.0195
  674POPI   C3B10393  15.291   1.900   7.111 -0.4324 -0.2240  0.0316
  674POPI   C4B10394  15.687   1.983   7.289 -0.1330 -0.2666 -0.0504
  675POPI    C110395   6.220   8.267   5.132 -0.0265  0.2471  0.0470
  675POPI    C210396   6.186   7.869   5.121 -0.0926  0.2499  0.1387
  675POPI    C310397   6.190   8.078   4.781  0.2901  0.1430  0.0726
  675POPI   PO410398   6.118   8.368   5.386  0.1167  0.1791  0.1412
  675POPI   GL110399   6.077   8.154   5.736 -0.3673  0.2705  0.2463
  675POPI   GL210400   6.083   7.927   5.857  0.0904  0.2460 -0.2554
  675POPI   C1A10401   5.641   8.131   5.866  0.0490  0.2170 -0.0702
  675POPI   D2A10402   5.232   7.964   6.006  0.0838 -0.0369  0.0597
  675POPI   C3A10403   4.867   7.954   5.958  0.2185 -0.2440  0.2535
  675POPI   C4A10404   4.596   8.155   6.014  0.3121 -0.1122 -0.3018
  675POPI   C1B10405   5.921   8.044   6.243 -0.2989 -0.3928  0.3079
  675POPI   C2B10406   5.787   8.182   6.640 -0.2760  0.1942 -0.3539
  675POPI   C3B10407   5.720   7.942   7.073 -0.3639 -0.0026 -0.1693
  675POPI   C4B10408   5.617   7.757   7.465 -0.0829 -0.2252  0.3188
  676POPI    C110409   7.184  12.240   5.195 -0.1008 -0.0809 -0.1906
  676POPI    C210410   7.418  11.916   5.211 -0.0445 -0.0309  0.0313
  676POPI    C310411   7.263  12.034   4.862 -0.1959 -0.3886 -0.0265
  676POPI   PO410412   7.010  12.257   5.495 -0.0649  0.0852 -0.0069
  676POPI   GL110413   7.259  12.147   5.877 -0.2158  0.0159  0.2427
  676POPI   GL210414   7.261  11.924   6.045 -0.1779 -0.2457  0.0432
  676POPI   C1A10415   7.540  12.483   5.850  0.0513  0.1217  0.2743
  676POPI   D2A10416   7.520  12.863   5.637 -0.1303 -0.0252 -0.1477
  676POPI   C3A10417   7.636  13.234   5.791  0.4049  0.1537  0.1834
  676POPI   C4A10418   7.552  13.476   6.150  0.0354 -0.3886  0.1570
  676POPI   C1B10419   7.097  12.083   6.415  0.1946 -0.3544  0.2300
  676POPI   C2B10420   6.729  12.190   6.718 -0.2907  0.1702 -0.0031
  676POPI   C3B10421   6.535  12.496   6.970  0.4457 -0.2867 -0.1819
  676POPI   C4B10422   6.311  12.662   7.332  0.2898 -0.4082 -0.1129
  677POPI    C110423   4.129   3.999   5.090  0.0403 -0.0910 -0.1271
  677POPI    C210424   3.967   4.333   5.239  0.0736 -0.1514  0.0475
  677POPI    C310425   3.761   4.109   4.979  0.1583  0.1506 -0.2892
  677POPI   PO410426   4.245   3.853   5.315 -0.2032  0.0635  0.1136
  677POPI   GL110427   4.508   3.895   5.614 -0.0245 -0.1955 -0.0858
  677POPI   GL210428   4.563   4.222   5.681 -0.0880 -0.2112  0.2330
  677POPI   C1A10429   4.341   3.903   6.020  0.0600  0.2076 -0.0458
  677POPI   D2A10430   3.999   4.029   6.286 -0.1142  0.2174  0.2177
  677POPI   C3A10431   4.146   4.051   6.842  0.0675  0.2213  0.1640
  677POPI   C4A10432   4.087   3.958   7.207  0.0384 -0.1221 -0.2670
  677POPI   C1B10433   4.364   4.516   5.901 -0.1130  0.1675  0.0023
  677POPI   C2B10434   4.336   4.512   6.410 -0.0089  0.0728  0.0697
  677POPI   C3B10435   4.587   4.643   6.825 -0.0660 -0.1422 -0.0410
  677POPI   C4B10436   4.740   4.814   7.236 -0.0640 -0.1688 -0.1781
  678POPI    C110437   7.628  11.161   5.703 -0.0990 -0.1374  0.1818
  678POPI    C210438   7.392  11.340   5.435 -0.1160 -0.0508  0.2544
  678POPI    C310439   7.580  11.000   5.340 -0.1470 -0.0373  0.1436
  678POPI   PO410440   7.756  11.332   5.897  0.0502 -0.2437  0.1671
  678POPI   GL110441   8.025  11.264   6.207  0.2720 -0.0153  0.1993
  678POPI   GL210442   7.842  11.170   6.410  0.1479  0.1763  0.0438
  678POPI   C1A10443   8.398  11.443   6.392 -0.0086 -0.1049 -0.0005
  678POPI   D2A10444   8.660  11.332   6.723  0.1393 -0.0036 -0.2305
  678POPI   C3A10445   8.678  11.555   7.081 -0.0220 -0.1527 -0.1860
  678POPI   C4A10446   8.844  11.787   7.462 -0.0475 -0.2688  0.2528
  678POPI   C1B10447   8.069  11.378   6.749 -0.1103  0.0436  0.2529
  678POPI   C2B10448   8.047  11.425   7.190  0.0493 -0.0144 -0.2196
  678POPI   C3B10449   8.000  11.376   7.674  0.0386  0.0472  0.0881
  678POPI   C4B10450   7.990  11.224   8.009  0.0292  0.1835 -0.2562
  679POPI    C110451   2.179  16.358   5.249 -0.1898 -0.1068  0.0563
  679POPI    C210452   2.301  16.582   4.941 -0.1664  0.0463  0.1755
  679POPI    C310453   2.146  16.219   4.876 -0.2308  0.1080 -0.0215
  679POPI   PO410454   2.148  16.526   5.465  0.2075 -0.2596  0.2168
  679POPI   GL110455   1.900  16.902   5.643 -0.1650 -0.0114  0.3611
  679POPI   GL210456   1.631  16.902   5.849 -0.1336  0.0244 -0.2613
  679POPI   C1A10457   2.007  17.336   5.799  0.1144  0.0174  0.4131
  679POPI   D2A10458   1.893  17.738   5.872 -0.1148 -0.1692 -0.1264
  679POPI   C3A10459   2.110  18.125   6.056  0.0814 -0.2674  0.0841
  679POPI   C4A10460   2.287  18.188   6.412 -0.2197 -0.0641 -0.1219
  679POPI   C1B10461   1.341  16.936   6.056  0.0687  0.3726 -0.2541
  679POPI   C2B10462   1.158  17.043   6.436 -0.0101  0.0334 -0.3128
  679POPI   C3B10463   0.973  16.963   6.854 -0.1302 -0.1948 -0.0708
  679POPI   C4B10464   0.799  16.699   7.173 -0.1945 -0.1324 -0.1380
  680POPI    C110465  14.603  16.575   5.381 -0.0007 -0.2400 -0.0196
  680POPI    C210466  14.885  16.532   5.101 -0.0091  0.3257 -0.1280
  680POPI    C310467  14.517  16.648   4.997 -0.0814  0.2995  0.0932
  680POPI   PO410468  14.675  16.502   5.598  0.3750 -0.0035 -0.2541
  680POPI   GL110469  14.818  16.352   6.023  0.1791 -0.4757 -0.2797
  680POPI   GL210470  14.934  16.704   6.026  0.1846 -0.3242 -0.0048
  680POPI   C1A10471  14.762  16.157   6.469 -0.2577  0.3235 -0.0618
  680POPI   D2A10472  14.770  16.202   6.932  0.3524  0.1306  0.0119
  680POPI   C3A10473  15.131  16.245   7.135 -0.0362  0.0650  0.0504
  680POPI   C4A10474  15.327  16.039   7.529  0.3186 -0.2420  0.2868
  680POPI   C1B10475  15.057  16.926   6.381  0.1219  0.1366  0.1147
  680POPI   C2B10476  14.971  17.052   6.789 -0.2260 -0.1434 -0.0905
  680POPI   C3B10477  14.924  17.335   7.143  0.0827  0.0830 -0.1643
  680POPI   C4B10478  14.857  17.632   7.444  0.2216  0.2450  0.2900
  681POPI    C110479   6.043   4.662   5.040  0.1411 -0.0439  0.1521
  681POPI    C210480   6.346   4.400   5.043  0.1118 -0.0798  0.0404
  681POPI    C310481   6.421   4.793   5.020  0.1529 -0.0826  0.1202
  681POPI   PO410482   5.809   4.545   5.291 -0.0606  0.0717 -0.0845
  681POPI   GL110483   5.558   4.449   5.609  0.2165 -0.0585 -0.0456
  681POPI   GL210484   5.582   4.173   5.640 -0.0532 -0.2512 -0.1179
  681POPI   C1A10485   5.588   4.625   6.035 -0.2137 -0.3100 -0.1860
  681POPI   D2A10486   5.459   4.791   6.410  0.0919  0.1824 -0.1497
  681POPI   C3A10487   5.599   4.536   6.749 -0.0207 -0.2663  0.1035
  681POPI   C4A10488   5.899   4.610   7.080 -0.0040 -0.0929  0.0542
  681POPI   C1B10489   5.501   4.135   6.121  0.1376 -0.3349 -0.0025
  681POPI   C2B10490   5.429   4.076   6.550  0.0014  0.0630  0.1249
  681POPI   C3B10491   5.556   4.062   6.931  0.1241 -0.0271  0.1684
  681POPI   C4B10492   5.478   4.100   7.388 -0.0320 -0.2860  0.0910
  682POPI    C110493   5.099   9.797   5.471  0.0048 -0.0402 -0.1633
  682POPI    C210494   5.111   9.971   5.111 -0.2126  0.3226 -0.0008
  682POPI    C310495   4.762   9.932   5.304 -0.1712 -0.3082 -0.0320
  682POPI   PO410496   5.405   9.775   5.533  0.0027 -0.0494 -0.1253
  682POPI   GL110497   5.648   9.718   5.870 -0.0246  0.2729 -0.2713
  682POPI   GL210498   5.998   9.703   6.026  0.0354  0.1579 -0.1714
  682POPI   C1A10499   5.680  10.135   6.135 -0.2484 -0.0580 -0.2511
  682POPI   D2A10500   5.583  10.172   6.461  0.1834  0.0294 -0.3714
  682POPI   C3A10501   5.724  10.138   6.786  0.2979  0.1007  0.0670
  682POPI   C4A10502   5.479  10.175   7.134 -0.0639 -0.1009 -0.4544
  682POPI   C1B10503   5.839   9.718   6.527  0.2861 -0.1901 -0.0508
  682POPI   C2B10504   5.714   9.505   6.925 -0.2402  0.1674 -0.3342
  682POPI   C3B10505   5.538   9.716   7.336  0.1768  0.0118 -0.0271
  682POPI   C4B10506   5.250   9.974   7.571 -0.0655 -0.2675 -0.2575
  683POPI    C110507   6.392   1.057   4.581  0.0277  0.1339 -0.1037
  683POPI    C210508   6.001   1.015   4.655  0.0547  0.0967  0.0187
  683POPI    C310509   6.144   1.367   4.530  0.0038  0.1517  0.1144
  683POPI   PO410510   6.575   1.050   4.891  0.1494 -0.1653 -0.0477
  683POPI   GL110511   6.518   1.184   5.354 -0.0661  0.1037 -0.1736
  683POPI   GL210512   6.245   0.859   5.272  0.0797 -0.1182  0.2002
  683POPI   C1A10513   6.665   1.241   5.876 -0.0902 -0.1894  0.0116
  683POPI   D2A10514   6.923   1.576   6.055 -0.2771 -0.1205 -0.0365
  683POPI   C3A10515   6.968   1.471   6.535 -0.2638 -0.0017  0.0443
  683POPI   C4A10516   7.051   1.263   6.862 -0.0432  0.2041  0.0279
  683POPI   C1B10517   6.489   0.716   5.667  0.1625 -0.0121  0.1278
  683POPI   C2B10518   6.624   0.809   6.128  0.3584 -0.0640  0.1413
  683POPI   C3B10519   6.787   1.039   6.514  0.3235 -0.1105  0.1970
  683POPI   C4B10520   6.612   1.010   6.935 -0.0506  0.1034  0.0298
  684POPI    C110521   9.233   3.503   5.557  0.2712 -0.0720 -0.0326
  684POPI    C210522   9.223   3.741   5.235 -0.1778  0.0947  0.0970
  684POPI    C310523   9.297   3.350   5.193 -0.2032  0.1204 -0.2054
  684POPI   PO410524   9.428   3.632   5.742  0.0056 -0.1652  0.0238
  684POPI   GL110525   9.480   3.822   6.104 -0.1081  0.1119 -0.3445
  684POPI   GL210526   9.387   4.195   6.040 -0.0585 -0.0932  0.4085
  684POPI   C1A10527   9.535   3.796   6.583 -0.2135  0.0523 -0.3320
  684POPI   D2A10528   9.768   3.804   6.845  0.2152  0.0049  0.3047
  684POPI   C3A10529   9.743   3.544   7.191  0.0885  0.0611 -0.1764
  684POPI   C4A10530   9.801   3.085   7.350 -0.2073  0.0548  0.2024
  684POPI   C1B10531   9.379   4.258   6.533  0.0563 -0.1943  0.0597
  684POPI   C2B10532   9.353   4.194   6.964 -0.2458  0.1379 -0.3070
  684POPI   C3B10533   9.669   4.009   7.296  0.2058 -0.1309  0.1607
  684POPI   C4B10534   9.867   4.249   7.606 -0.0710 -0.0964 -0.0083
  685POPI    C110535   4.603  14.948   5.172 -0.0830  0.1959  0.0680
  685POPI    C210536   4.252  14.934   4.981  0.0897  0.2008 -0.2570
  685POPI    C310537   4.534  15.190   4.861  0.1024  0.4035  0.1858
  685POPI   PO410538   4.640  14.948   5.480  0.3555  0.0562 -0.0534
  685POPI   GL110539   4.541  14.846   5.933  0.1558  0.1437 -0.1970
  685POPI   GL210540   4.177  14.886   5.952 -0.0403 -0.1091 -0.1304
  685POPI   C1A10541   4.677  14.397   5.831 -0.0693  0.1342  0.1620
  685POPI   D2A10542   4.581  14.074   6.097 -0.0528  0.3073 -0.0631
  685POPI   C3A10543   4.407  14.205   6.440  0.3567 -0.0811  0.1601
  685POPI   C4A10544   4.542  14.519   6.720  0.3112 -0.5725 -0.0455
  685POPI   C1B10545   4.242  15.055   6.273 -0.1474  0.0719  0.2873
  685POPI   C2B10546   4.504  15.202   6.599 -0.0851  0.0470  0.1961
  685POPI   C3B10547   4.545  15.071   6.940 -0.2639  0.1028 -0.1235
  685POPI   C4B10548   4.510  15.386   7.184  0.0515  0.0353  0.1629
  686POPI    C110549  13.840   0.223   5.572 -0.1076  0.0560  0.0624
  686POPI    C210550  13.720  -0.095   5.783 -0.1763  0.0208 -0.0290
  686POPI    C310551  13.825  -0.137   5.399 -0.1975  0.1107 -0.0450
  686POPI   PO410552  13.951   0.386   5.771  0.2067 -0.0817 -0.1127
  686POPI   GL110553  13.823   0.357   6.158  0.1180  0.2124 -0.3739
  686POPI   GL210554  13.482   0.438   6.044  0.1329  0.3420 -0.0072
  686POPI   C1A10555  13.799   0.594   6.560  0.1641 -0.1172 -0.0005
  686POPI   D2A10556  13.882   0.884   6.852  0.1196  0.1737  0.2953
  686POPI   C3A10557  13.742   0.692   7.150 -0.0059  0.2602  0.1870
  686POPI   C4A10558  13.887   0.539   7.541 -0.1089 -0.0327  0.3022
  686POPI   C1B10559  13.345   0.742   6.289 -0.2695 -0.0424 -0.3457
  686POPI   C2B10560  13.325   0.815   6.828  0.1540 -0.1594  0.0031
  686POPI   C3B10561  13.052   0.933   7.082 -0.0726 -0.2411  0.0554
  686POPI   C4B10562  12.762   0.957   7.397  0.0838  0.1173 -0.0026
  687POPI    C110563  11.645  11.364   5.644  0.0797 -0.0850 -0.1007
  687POPI    C210564  11.305  11.323   5.851  0.2058  0.1177  0.1524
  687POPI    C310565  11.406  11.679   5.700  0.3536  0.0815  0.1636
  687POPI   PO410566  11.956  11.275   5.799 -0.0921 -0.0656 -0.0220
  687POPI   GL110567  12.226  11.220   6.141  0.2075 -0.1242  0.2057
  687POPI   GL210568  12.559  11.270   6.391  0.3368 -0.4286  0.6246
  687POPI   C1A10569  11.983  11.309   6.616 -0.2340 -0.0301 -0.2194
  687POPI   D2A10570  11.656  11.215   6.637 -0.1463  0.0555 -0.0335
  687POPI   C3A10571  11.486  11.148   7.054 -0.0429  0.0170  0.0299
  687POPI   C4A10572  11.147  11.283   7.410  0.1576 -0.1100  0.1503
  687POPI   C1B10573  12.453  11.316   6.812  0.0507  0.0954  0.0785
  687POPI   C2B10574  12.374  11.159   7.241 -0.0811 -0.3194 -0.0957
  687POPI   C3B10575  12.611  11.045   7.591  0.0626  0.0182 -0.1867
  687POPI   C4B10576  12.942  11.072   7.836 -0.1962  0.0706 -0.0767
  688POPI    C110577  18.765  16.758   5.401 -0.1301  0.0284 -0.0749
  688POPI    C210578  18.699  16.895   5.031  0.1691 -0.1016 -0.1792
  688POPI    C310579  18.919  17.109   5.287 -0.0960  0.0213 -0.0504
  688POPI   PO410580  18.509  16.584   5.483 -0.0864  0.0335 -0.2450
  688POPI   GL110581  18.423  16.553   5.866  0.1634  0.1184 -0.1411
  688POPI   GL210582  18.329  16.802   5.923  0.3216 -0.2209  0.1043
  688POPI   C1A10583  18.336  16.321   6.210 -0.0120 -0.2120 -0.0492
  688POPI   D2A10584  18.586  16.374   6.548 -0.3851 -0.1821 -0.0932
  688POPI   C3A10585  18.448  16.224   6.902  0.0038 -0.4249  0.0486
  688POPI   C4A10586  18.598  15.957   7.131  0.0701  0.0724  0.2373
  688POPI   C1B10587  18.490  16.820   6.352  0.0327 -0.0844 -0.3506
  688POPI   C2B10588  18.468  16.852   6.792 -0.2736 -0.1382  0.0578
  688POPI   C3B10589  18.670  16.583   7.068 -0.1431 -0.0394 -0.3133
  688POPI   C4B10590  18.684  16.666   7.596 -0.0960  0.0406  0.3343
  689POPI    C110591   1.611   8.214   5.247  0.0280  0.0488 -0.0354
  689POPI    C210592   1.345   8.304   4.961  0.0398  0.2297  0.0099
  689POPI    C310593   1.701   8.152   4.862 -0.2082 -0.3490 -0.0330
  689POPI   PO410594   1.537   8.330   5.434 -0.0210 -0.0312 -0.0558
  689POPI   GL110595   1.416   8.217   5.853 -0.5627 -0.0677  0.3171
  689POPI   GL210596   1.108   8.354   5.930  0.2843  0.0497  0.1590
  689POPI   C1A10597   1.513   8.200   6.312  0.2052 -0.0893 -0.0595
  689POPI   D2A10598   1.672   8.306   6.854 -0.2811  0.3679 -0.1912
  689POPI   C3A10599   1.522   8.413   7.312  0.0095 -0.2238 -0.0998
  689POPI   C4A10600   1.403   8.561   7.637  0.4194  0.0357 -0.0485
  689POPI   C1B10601   1.125   7.925   6.155  0.2458  0.0054  0.2076
  689POPI   C2B10602   1.092   7.468   6.134 -0.2256 -0.3553  0.0885
  689POPI   C3B10603   1.062   6.977   6.046 -0.0617  0.0696 -0.1528
  689POPI   C4B10604   0.836   6.598   6.178  0.2723 -0.2929  0.1598
  690POPI    C110605   4.654   0.678   4.957  0.1292 -0.0472 -0.1869
  690POPI    C210606   4.901   0.402   4.806  0.2406  0.0489 -0.1810
  690POPI    C310607   4.884   0.767   4.642  0.2465  0.1040 -0.0596
  690POPI   PO410608   4.728   0.586   5.276 -0.1956 -0.1889  0.1538
  690POPI   GL110609   4.496   0.449   5.583  0.0274 -0.1952 -0.0453
  690POPI   GL210610   4.310   0.278   5.823 -0.1066 -0.2783  0.2476
  690POPI   C1A10611   4.766   0.401   5.936 -0.1401 -0.0133  0.4866
  690POPI   D2A10612   4.910   0.103   6.269  0.4655 -0.1228  0.0209
  690POPI   C3A10613   4.915   0.385   6.594 -0.0466  0.1116  0.1721
  690POPI   C4A10614   4.682   0.545   6.825 -0.2996  0.0074  0.2950
  690POPI   C1B10615   4.117   0.148   6.054 -0.1235  0.2596 -0.1816
  690POPI   C2B10616   3.884   0.138   6.313  0.0669  0.1948 -0.0538
  690POPI   C3B10617   3.504   0.454   6.381  0.3085  0.2349 -0.1232
  690POPI   C4B10618   3.611   0.563   6.883  0.1071  0.0672  0.1006
  691POPI    C110619  11.694   1.960   5.590 -0.2654 -0.0491  0.2763
  691POPI    C210620  11.657   1.572   5.677  0.4173 -0.2609 -0.2888
  691POPI    C310621  11.526   1.712   5.326 -0.1374  0.1039  0.0478
  691POPI   PO410622  11.622   2.095   5.801 -0.0153 -0.0551 -0.0200
  691POPI   GL110623  11.647   2.412   6.142  0.0218 -0.0760 -0.1109
  691POPI   GL210624  11.411   2.708   6.147  0.1270 -0.1786  0.1725
  691POPI   C1A10625  11.351   2.346   6.491 -0.0320 -0.2947 -0.0425
  691POPI   D2A10626  11.070   2.509   6.743  0.5188 -0.1377 -0.0652
  691POPI   C3A10627  11.327   2.750   7.064 -0.1742  0.0135  0.2063
  691POPI   C4A10628  11.662   3.005   7.252  0.2166  0.1555 -0.1382
  691POPI   C1B10629  10.965   2.447   6.275  0.0892 -0.0630 -0.1571
  691POPI   C2B10630  10.871   2.129   6.484  0.0447  0.1061  0.4303
  691POPI   C3B10631  10.798   2.074   6.899  0.1137  0.0444  0.1636
  691POPI   C4B10632  10.868   1.721   7.087  0.1280 -0.2551  0.0056
  692POPI    C110633  16.584   1.372   5.569 -0.1271  0.1403  0.0897
  692POPI    C210634  16.755   1.732   5.533  0.3871 -0.1039 -0.0090
  692POPI    C310635  16.849   1.439   5.277  0.0852 -0.3535  0.1579
  692POPI   PO410636  16.455   1.486   5.817 -0.2427  0.4493  0.0710
  692POPI   GL110637  16.632   1.229   6.203  0.2453 -0.1802  0.0482
  692POPI   GL210638  16.803   1.536   6.249 -0.0166 -0.1671  0.1037
  692POPI   C1A10639  16.697   0.999   6.654 -0.1843  0.2776 -0.1472
  692POPI   D2A10640  16.616   0.877   6.981  0.3519 -0.2909 -0.1787
  692POPI   C3A10641  16.306   0.876   7.201  0.1993  0.0944 -0.3464
  692POPI   C4A10642  16.139   1.173   7.432  0.3169 -0.0643 -0.1156
  692POPI   C1B10643  16.882   1.490   6.649  0.0425  0.0179  0.1332
  692POPI   C2B10644  16.858   1.308   7.014 -0.0998  0.0073  0.1373
  692POPI   C3B10645  17.163   1.418   7.405 -0.2744 -0.0985 -0.0619
  692POPI   C4B10646  17.287   1.299   7.804  0.1010 -0.2990 -0.1739
  693POPI    C110647   1.193   4.840   5.470  0.1947  0.0802  0.0487
  693POPI    C210648   1.077   4.697   5.115  0.3488  0.0398  0.0139
  693POPI    C310649   1.461   4.787   5.178  0.3037  0.1496  0.1358
  693POPI   PO410650   1.084   4.684   5.665 -0.2334  0.0991  0.0506
  693POPI   GL110651   1.000   4.729   6.056  0.0590 -0.1671 -0.0749
  693POPI   GL210652   0.841   5.052   6.106  0.2570 -0.1020 -0.5711
  693POPI   C1A10653   1.175   4.595   6.447 -0.1381  0.3209 -0.0651
  693POPI   D2A10654   1.275   4.604   6.867  0.1090 -0.0957  0.1108
  693POPI   C3A10655   1.183   4.645   7.271 -0.0171  0.3116  0.1243
  693POPI   C4A10656   1.329   4.308   7.524 -0.0305  0.1246  0.0762
  693POPI   C1B10657   0.986   5.063   6.462 -0.1088  0.1057  0.2085
  693POPI   C2B10658   1.245   5.097   6.725 -0.0020  0.1060 -0.1290
  693POPI   C3B10659   1.360   5.068   7.138 -0.0841  0.0623  0.1297
  693POPI   C4B10660   1.486   5.353   7.442 -0.1420  0.0053  0.1484
  694POPI    C110661  13.174  10.916   6.238 -0.0425  0.1678  0.1569
  694POPI    C210662  13.546  10.898   6.091 -0.1360  0.0343 -0.0692
  694POPI    C310663  13.460  10.721   6.440  0.0222  0.1068  0.0078
  694POPI   PO410664  13.087  11.232   6.299  0.3245 -0.1467 -0.0971
  694POPI   GL110665  12.996  11.307   6.669 -0.1483  0.1727 -0.0313
  694POPI   GL210666  13.139  10.992   6.731 -0.0970  0.1301 -0.0929
  694POPI   C1A10667  12.877  11.273   7.040  0.0519  0.1255  0.0367
  694POPI   D2A10668  12.745  11.476   7.348 -0.1425 -0.0869 -0.1921
  694POPI   C3A10669  12.513  11.509   7.751  0.0840  0.5395  0.3936
  694POPI   C4A10670  12.190  11.654   7.975 -0.2607 -0.1930 -0.1300
  694POPI   C1B10671  13.092  10.832   7.127  0.0372  0.2150  0.1187
  694POPI   C2B10672  12.896  10.640   7.481 -0.2397 -0.1507 -0.0042
  694POPI   C3B10673  12.631  10.676   7.880  0.1838 -0.0777 -0.0674
  694POPI   C4B10674  12.697  10.900   8.231 -0.0816 -0.4313 -0.1562
  695POPI    C110675  12.081   4.321   5.493 -0.1488 -0.1456 -0.1389
  695POPI    C210676  12.300   4.045   5.304 -0.1699 -0.1223 -0.1976
  695POPI    C310677  11.902   4.009   5.319 -0.1725 -0.0968 -0.2027
  695POPI   PO410678  12.180   4.304   5.719  0.0584 -0.0536  0.0427
  695POPI   GL110679  11.891   4.521   6.043  0.1074  0.0158 -0.0756
  695POPI   GL210680  11.803   4.158   6.186 -0.0581 -0.0801  0.0084
  695POPI   C1A10681  11.875   4.563   6.473  0.1251 -0.3530  0.1651
  695POPI   D2A10682  11.788   4.671   6.826 -0.2475  0.1665 -0.1732
  695POPI   C3A10683  11.734   4.852   7.260 -0.1568  0.0992  0.1560
  695POPI   C4A10684  11.590   4.973   7.689 -0.0787 -0.1214  0.1197
  695POPI   C1B10685  11.605   4.161   6.521  0.0305 -0.1392 -0.3596
  695POPI   C2B10686  11.462   4.128   6.827  0.0693  0.1694  0.1854
  695POPI   C3B10687  11.227   4.019   7.177  0.0404 -0.2110 -0.1203
  695POPI   C4B10688  10.966   4.081   7.545  0.1050 -0.0560  0.0587
  696POPI    C110689   5.583  17.526   5.170 -0.1260  0.0950 -0.0157
  696POPI    C210690   5.219  17.396   5.272 -0.0525 -0.1147 -0.0151
  696POPI    C310691   5.293  17.511   4.896 -0.1857  0.1710  0.0429
  696POPI   PO410692   5.714  17.476   5.358 -0.1206 -0.1318 -0.0528
  696POPI   GL110693   5.454  17.372   5.780  0.0162 -0.3991  0.0541
  696POPI   GL210694   5.653  17.664   5.850  0.3439  0.1598  0.2951
  696POPI   C1A10695   5.363  17.126   6.045 -0.0525  0.3762 -0.0189
  696POPI   D2A10696   5.125  17.117   6.406  0.0702 -0.1581 -0.2000
  696POPI   C3A10697   5.051  17.365   6.754 -0.3109  0.0951 -0.2450
  696POPI   C4A10698   5.047  17.586   7.109  0.0175  0.2077 -0.3298
  696POPI   C1B10699   5.544  17.617   6.209  0.3119 -0.0966  0.1116
  696POPI   C2B10700   5.444  17.563   6.620 -0.0739  0.1720 -0.2414
  696POPI   C3B10701   5.564  17.445   7.077 -0.1940 -0.1790  0.0020
  696POPI   C4B10702   5.402  17.434   7.449 -0.0543 -0.0076  0.6598
  697POPI    C110703  15.807   8.275   5.883  0.1252 -0.0907 -0.1828
  697POPI    C210704  16.191   8.256   5.994  0.1080  0.3857 -0.0179
  697POPI    C310705  16.094   8.393   5.630  0.1051 -0.0603 -0.1915
  697POPI   PO410706  15.759   8.026   5.996  0.3666  0.1305  0.0654
  697POPI   GL110707  15.623   7.878   6.353  0.0284  0.2219 -0.0942
  697POPI   GL210708  15.407   7.813   6.389  0.1309  0.0222 -0.0009
  697POPI   C1A10709  15.724   7.912   6.779 -0.0242  0.2407  0.2486
  697POPI   D2A10710  15.803   7.884   7.257 -0.1535 -0.1188 -0.2192
  697POPI   C3A10711  15.755   7.805   7.715  0.0067  0.0027  0.1425
  697POPI   C4A10712  15.716   7.877   8.144  0.1355 -0.0651 -0.0217
  697POPI   C1B10713  15.273   7.718   6.760  0.1908 -0.0495  0.0050
  697POPI   C2B10714  15.256   7.886   7.210  0.1211  0.0230 -0.0317
  697POPI   C3B10715  15.325   7.666   7.547 -0.0836  0.1310  0.1484
  697POPI   C4B10716  15.337   7.475   7.845  0.0302  0.0003  0.2323
  698POPI    C110717   0.813   5.574   5.168 -0.0297 -0.0745 -0.1710
  698POPI    C210718   0.552   5.611   5.469 -0.1256 -0.0215 -0.2601
  698POPI    C310719   0.485   5.799   5.122  0.0862  0.0805 -0.2470
  698POPI   PO410720   1.054   5.755   5.212 -0.1702 -0.5649  0.1044
  698POPI   GL110721   1.208   6.082   5.615 -0.1339 -0.3052 -0.2294
  698POPI   GL210722   1.000   5.707   5.723 -0.1001  0.0833 -0.2113
  698POPI   C1A10723   1.072   6.097   5.997  0.1025 -0.1951  0.2685
  698POPI   D2A10724   1.376   6.011   6.281  0.1082 -0.1145  0.1125
  698POPI   C3A10725   1.320   6.308   6.661 -0.0440 -0.1244  0.0948
  698POPI   C4A10726   1.379   6.288   7.084  0.0553 -0.1294 -0.0799
  698POPI   C1B10727   1.059   5.567   6.174  0.0037 -0.0328 -0.1145
  698POPI   C2B10728   1.266   5.594   6.598  0.1962 -0.0020 -0.0646
  698POPI   C3B10729   1.301   5.705   7.074 -0.1724  0.3678  0.0769
  698POPI   C4B10730   1.285   5.894   7.483  0.1380  0.2136 -0.2682
  699POPI    C110731  16.033   2.771   5.340  0.1316  0.0354  0.0530
  699POPI    C210732  16.300   2.524   5.172  0.1163 -0.0093  0.0945
  699POPI    C310733  16.129   2.812   4.954  0.2434  0.0575  0.0829
  699POPI   PO410734  16.080   2.799   5.547 -0.0837  0.2281 -0.2154
  699POPI   GL110735  16.170   2.778   5.896 -0.2111  0.3218  0.0168
  699POPI   GL210736  16.351   2.433   5.876 -0.0005 -0.2483  0.0827
  699POPI   C1A10737  16.312   2.803   6.225 -0.1978 -0.0194 -0.0328
  699POPI   D2A10738  16.250   2.907   6.695  0.3030 -0.2634 -0.2211
  699POPI   C3A10739  16.446   3.279   6.731 -0.1490  0.2821  0.0067
  699POPI   C4A10740  16.673   3.537   6.999  0.1117  0.2047  0.1420
  699POPI   C1B10741  16.205   2.218   6.201 -0.3961  0.1441  0.1182
  699POPI   C2B10742  16.033   2.412   6.572  0.1177 -0.0137 -0.0944
  699POPI   C3B10743  15.834   2.409   6.932 -0.1011  0.0948  0.0726
  699POPI   C4B10744  16.016   2.415   7.313  0.0474  0.1575 -0.0521
  700POPI    C110745  13.931  18.156   5.640 -0.1882 -0.0182  0.2089
  700POPI    C210746  13.589  18.190   5.436 -0.0012  0.0035 -0.1068
  700POPI    C310747  13.928  18.096   5.245  0.1414 -0.1779  0.2270
  700POPI   PO410748  13.831  18.139   5.850  0.0898 -0.2040 -0.3808
  700POPI   GL110749  13.985  18.331   6.208  0.3330 -0.0180 -0.2209
  700POPI   GL210750  14.115  18.574   6.110 -0.2627 -0.2514 -0.3218
  700POPI   C1A10751  13.637  18.648   6.384  0.0088 -0.0141  0.0755
  700POPI   D2A10752  13.394  19.021   6.536  0.0887 -0.2845 -0.0885
  700POPI   C3A10753  13.541  19.077   6.929 -0.0145 -0.3224  0.1036
  700POPI   C4A10754  13.578  18.866   7.267  0.0526 -0.0443  0.0847
  700POPI   C1B10755  14.074  18.777   6.534  0.3603 -0.0493 -0.0571
  700POPI   C2B10756  14.063  19.029   6.766  0.0955 -0.4510 -0.2787
  700POPI   C3B10757  14.181  19.275   7.058  0.0625  0.1693  0.3187
  700POPI   C4B10758  14.384  19.631   7.391  0.0723 -0.0576  0.0087
  701POPS   CNO10759  17.535   3.059   5.289 -0.1998  0.2774 -0.0201
  701POPS   PO410760  17.619   3.424   5.485 -0.0253  0.1737  0.2296
  701POPS   GL110761  17.569   3.451   5.883 -0.1374 -0.1422 -0.0237
  701POPS   GL210762  17.801   3.260   6.013 -0.0948 -0.2070 -0.2093
  701POPS   C1A10763  17.241   3.530   6.225  0.1949 -0.0969 -0.4827
  701POPS   D2A10764  16.874   3.570   6.411  0.1473  0.1146 -0.0460
  701POPS   C3A10765  16.495   3.819   6.561  0.1259  0.0001  0.0153
  701POPS   C4A10766  16.208   3.697   6.989 -0.2988 -0.2146  0.0616
  701POPS   C1B10767  17.849   2.878   6.165  0.3719  0.1995  0.0482
  701POPS   C2B10768  17.729   2.724   6.492 -0.0535 -0.2413 -0.1008
  701POPS   C3B10769  18.028   2.854   6.833  0.2107  0.1136 -0.1097
  701POPS   C4B10770  18.117   2.653   7.221 -0.0686  0.1332 -0.4340
  702POPS   CNO10771   1.701  10.408   5.775  0.2217  0.0094 -0.0682
  702POPS   PO410772   1.429  10.210   5.476 -0.0161  0.0506 -0.0023
  702POPS   GL110773   1.358  10.008   5.898 -0.0471  0.2822  0.3193
  702POPS   GL210774   1.068  10.150   6.097  0.2320  0.3020  0.1130
  702POPS   C1A10775   1.517   9.841   6.292 -0.1671  0.1272  0.1561
  702POPS   D2A10776   1.908   9.683   6.531 -0.3188 -0.1241  0.1858
  702POPS   C3A10777   1.836   9.758   6.875 -0.3817  0.2274 -0.1641
  702POPS   C4A10778   2.033   9.740   7.332 -0.0898  0.0413  0.0628
  702POPS   C1B10779   1.549  10.341   6.235  0.1506  0.0218  0.2923
  702POPS   C2B10780   1.779  10.583   6.544 -0.0902  0.0768 -0.2762
  702POPS   C3B10781   1.721  10.944   6.906 -0.0016 -0.1884  0.1607
  702POPS   C4B10782   1.774  11.227   7.208  0.0956  0.0119 -0.1048
  703POPS   CNO10783  17.057  17.887   5.461  0.0118 -0.3453  0.2958
  703POPS   PO410784  17.423  17.875   5.681  0.2582  0.0467  0.1657
  703POPS   GL110785  17.253  17.687   6.042 -0.2043 -0.0705  0.0688
  703POPS   GL210786  17.278  17.914   6.309 -0.1332 -0.0484 -0.0369
  703POPS   C1A10787  16.943  17.597   6.460  0.1385  0.1370  0.1815
  703POPS   D2A10788  16.582  17.708   6.395  0.0039  0.1377  0.1941
  703POPS   C3A10789  16.407  17.946   6.666  0.1132 -0.0248 -0.1783
  703POPS   C4A10790  16.186  18.357   6.613  0.1688 -0.1869 -0.0884
  703POPS   C1B10791  17.335  17.833   6.653  0.2127  0.1528  0.0575
  703POPS   C2B10792  17.558  17.631   6.993  0.2605  0.0658  0.1562
  703POPS   C3B10793  17.855  17.706   7.338  0.0419  0.0312 -0.0846
  703POPS   C4B10794  18.183  17.361   7.610  0.1839  0.2571  0.1229
  704POPS   CNO10795  16.032  18.019   5.800  0.0437  0.0836  0.0476
  704POPS   PO410796  15.835  17.635   5.760 -0.1764 -0.2766 -0.3272
  704POPS   GL110797  15.712  17.786   6.127 -0.0869 -0.1952  0.1472
  704POPS   GL210798  16.055  17.874   6.326  0.4014  0.2479 -0.2187
  704POPS   C1A10799  15.500  17.733   6.482 -0.1062 -0.1336  0.1123
  704POPS   D2A10800  15.497  17.793   6.971  0.0177 -0.3533 -0.0163
  704POPS   C3A10801  15.344  17.672   7.252 -0.1711 -0.0828 -0.1573
  704POPS   C4A10802  15.228  17.270   7.629  0.4058  0.0896  0.0099
  704POPS   C1B10803  15.921  17.877   6.717 -0.0431 -0.0732  0.3098
  704POPS   C2B10804  16.003  18.168   7.081  0.2845 -0.1573  0.1610
  704POPS   C3B10805  15.971  18.375   7.408 -0.0516 -0.1713  0.1122
  704POPS   C4B10806  16.216  18.657   7.771 -0.1624 -0.2666  0.2005
  705POPS   CNO10807  17.665  11.677   5.673 -0.0515 -0.1021 -0.2717
  705POPS   PO410808  17.590  11.377   5.854 -0.4858  0.1323  0.0696
  705POPS   GL110809  17.938  11.139   6.163  0.3349  0.3124  0.0501
  705POPS   GL210810  18.211  11.309   6.356  0.1966  0.1300 -0.0743
  705POPS   C1A10811  18.118  10.742   6.344  0.0122  0.0943 -0.0520
  705POPS   D2A10812  18.230  10.450   6.679 -0.2997  0.3401 -0.2183
  705POPS   C3A10813  18.172  10.189   7.181 -0.2343  0.0119 -0.3499
  705POPS   C4A10814  18.106  10.153   7.618 -0.1009  0.1319 -0.1153
  705POPS   C1B10815  18.026  11.147   6.731  0.0881  0.2606  0.0533
  705POPS   C2B10816  18.084  10.958   7.126 -0.1893 -0.0230  0.0429
  705POPS   C3B10817  18.053  10.656   7.475 -0.1189  0.2151  0.0834
  705POPS   C4B10818  18.265  10.605   7.805 -0.2069 -0.0917  0.0759
  706POPS   CNO10819   7.589  17.669   5.395 -0.0353  0.1093 -0.0407
  706POPS   PO410820   7.305  17.503   5.330 -0.0913 -0.0674 -0.0780
  706POPS   GL110821   7.465  17.459   5.802 -0.1347 -0.0873 -0.0059
  706POPS   GL210822   7.800  17.631   5.853 -0.4954  0.0258 -0.1987
  706POPS   C1A10823   7.405  17.408   6.172 -0.1556 -0.1378 -0.0637
  706POPS   D2A10824   7.409  17.614   6.564  0.1211  0.2641  0.0024
  706POPS   C3A10825   7.784  17.878   6.678 -0.2599  0.2523  0.1587
  706POPS   C4A10826   8.038  18.213   6.672 -0.0564  0.0832 -0.2577
  706POPS   C1B10827   7.862  17.492   6.250  0.3267  0.0407 -0.2751
  706POPS   C2B10828   7.849  17.361   6.694 -0.0409  0.0023 -0.3134
  706POPS   C3B10829   7.880  17.175   7.060  0.0272  0.1753 -0.1298
  706POPS   C4B10830   8.014  16.953   7.389 -0.0669  0.1823 -0.3597
  707POPS   CNO10831   3.024  10.762   5.141 -0.0695  0.0693 -0.2635
  707POPS   PO410832   3.159  11.039   5.280  0.1775  0.0043 -0.2035
  707POPS   GL110833   3.057  11.081   5.742 -0.0965  0.1110 -0.1547
  707POPS   GL210834   3.398  11.152   5.722  0.2774  0.0682  0.0892
  707POPS   C1A10835   2.849  11.163   6.095  0.1006  0.2179  0.0442
  707POPS   D2A10836   2.704  11.398   6.444 -0.0805 -0.0080  0.0003
  707POPS   C3A10837   3.000  11.649   6.623 -0.2505  0.3342 -0.0970
  707POPS   C4A10838   3.348  11.798   6.973 -0.1033 -0.1860  0.0870
  707POPS   C1B10839   3.350  11.342   6.134 -0.2170  0.2593  0.0973
  707POPS   C2B10840   3.544  11.356   6.557  0.3855 -0.3122 -0.1887
  707POPS   C3B10841   3.560  11.067   6.875 -0.1418 -0.2012 -0.3895
  707POPS   C4B10842   3.255  10.798   7.060 -0.0229  0.2169 -0.3079
  708POPS   CNO10843  10.907  11.772   5.706 -0.1860  0.2518 -0.0989
  708POPS   PO410844  10.724  11.337   5.765 -0.4214  0.1271 -0.0309
  708POPS   GL110845  10.861  11.383   6.219  0.0728 -0.2069 -0.0915
  708POPS   GL210846  10.622  11.215   6.327 -0.0497  0.1844 -0.1995
  708POPS   C1A10847  11.089  11.252   6.631  0.0467  0.0425  0.1887
  708POPS   D2A10848  11.395  11.575   6.829 -0.0342 -0.0438 -0.0286
  708POPS   C3A10849  11.503  11.653   7.264  0.0585  0.2084 -0.1202
  708POPS   C4A10850  11.616  11.838   7.629 -0.0183 -0.0592  0.0829
  708POPS   C1B10851  10.633  11.398   6.658  0.2170 -0.0091 -0.0455
  708POPS   C2B10852  10.866  11.730   6.778  0.1052  0.2520  0.1488
  708POPS   C3B10853  10.982  11.974   7.087 -0.1404 -0.3607 -0.4535
  708POPS   C4B10854  10.655  12.161   7.305  0.0012  0.0821  0.3840
  709POPS   CNO10855   8.859   4.944   5.446  0.2770 -0.0105  0.1501
  709POPS   PO410856   9.112   4.567   5.300 -0.1177  0.0597 -0.0268
  709POPS   GL110857   9.269   4.631   5.704  0.3506  0.1067  0.1919
  709POPS   GL210858   9.541   4.787   5.838 -0.1830  0.2316 -0.3558
  709POPS   C1A10859   9.146   4.583   6.109 -0.2273 -0.0585  0.0723
  709POPS   D2A10860   8.843   4.503   6.471  0.1833  0.0082  0.3448
  709POPS   C3A10861   8.994   4.522   6.852 -0.2237 -0.0382 -0.2012
  709POPS   C4A10862   8.975   4.283   7.253  0.0428  0.0034 -0.1789
  709POPS   C1B10863   9.885   4.657   6.150  0.0146  0.1252  0.3205
  709POPS   C2B10864  10.337   4.659   6.145  0.1192 -0.0911  0.0847
  709POPS   C3B10865  10.521   5.090   5.952 -0.1458  0.1060 -0.3359
  709POPS   C4B10866  10.698   5.372   6.314 -0.1354 -0.3402  0.0984
  710POPS   CNO10867   4.334  15.809   5.700 -0.1276 -0.0900  0.0495
  710POPS   PO410868   4.048  15.529   5.647 -0.1046 -0.0330 -0.1278
  710POPS   GL110869   3.984  15.576   6.083  0.2070  0.0970 -0.0178
  710POPS   GL210870   4.229  15.566   6.262  0.2039  0.0175  0.3734
  710POPS   C1A10871   3.648  15.665   6.237 -0.1424 -0.1226 -0.0742
  710POPS   D2A10872   3.645  15.660   6.624  0.2750  0.2039 -0.0258
  710POPS   C3A10873   3.605  16.089   6.975  0.1715  0.0985 -0.0663
  710POPS   C4A10874   3.803  16.144   7.254  0.1878  0.0443  0.1672
  710POPS   C1B10875   4.372  15.790   6.569  0.0741 -0.2406 -0.0666
  710POPS   C2B10876   4.524  15.803   6.846 -0.1676 -0.0058 -0.0371
  710POPS   C3B10877   4.708  16.186   7.046  0.1340  0.2808  0.0773
  710POPS   C4B10878   4.643  16.555   7.318  0.2234 -0.0776  0.0271
  711POPS   CNO10879  14.129  10.841   5.402 -0.0895 -0.2138  0.0792
  711POPS   PO410880  14.013  10.852   5.918 -0.2290 -0.0201  0.1608
  711POPS   GL110881  14.001  10.846   6.294  0.2942 -0.0137  0.2145
  711POPS   GL210882  13.992  10.620   6.481 -0.0005 -0.3178  0.3556
  711POPS   C1A10883  14.069  11.204   6.611  0.0136  0.0549  0.1778
  711POPS   D2A10884  14.050  11.092   7.072 -0.0384 -0.3233 -0.2854
  711POPS   C3A10885  14.450  10.975   6.992 -0.1990  0.0418  0.1547
  711POPS   C4A10886  14.512  10.752   6.651  0.3908 -0.0549  0.3091
  711POPS   C1B10887  14.017  10.621   6.894 -0.0654 -0.2716 -0.2969
  711POPS   C2B10888  14.119  10.705   7.379  0.3595 -0.3101 -0.0394
  711POPS   C3B10889  14.494  10.653   7.668 -0.1878 -0.1034 -0.4683
  711POPS   C4B10890  14.840  10.728   7.960 -0.0221 -0.2733  0.0524
  712POPS   CNO10891  12.064   6.978   5.713 -0.0636  0.0997  0.2188
  712POPS   PO410892  12.177   7.130   6.050 -0.1166  0.1949 -0.3052
  712POPS   GL110893  11.954   7.219   6.439  0.1260  0.1337 -0.2006
  712POPS   GL210894  11.583   7.056   6.448 -0.1485  0.1954  0.0230
  712POPS   C1A10895  11.760   7.394   6.801  0.1003 -0.0424 -0.2131
  712POPS   D2A10896  11.687   7.253   7.149 -0.2091 -0.2845  0.1881
  712POPS   C3A10897  11.455   7.526   7.265 -0.0337  0.0299 -0.1595
  712POPS   C4A10898  11.404   7.927   7.292  0.1443 -0.2364  0.2526
  712POPS   C1B10899  11.790   6.849   6.785  0.0506 -0.0456 -0.2679
  712POPS   C2B10900  11.846   6.718   7.234  0.0351 -0.1909 -0.1584
  712POPS   C3B10901  11.760   6.916   7.577  0.2431 -0.3838 -0.1406
  712POPS   C4B10902  11.551   7.256   7.707  0.0811  0.0770 -0.0734
  713POPS   CNO10903  12.595  13.281   5.635 -0.0073 -0.2213  0.0516
  713POPS   PO410904  12.365  13.704   5.873 -0.0126 -0.1471 -0.2679
  713POPS   GL110905  12.413  13.904   6.242 -0.1190  0.1868 -0.3724
  713POPS   GL210906  12.759  13.823   6.157  0.1527 -0.0295 -0.0240
  713POPS   C1A10907  12.474  13.922   6.558  0.3079  0.0508  0.2910
  713POPS   D2A10908  12.742  14.007   6.787 -0.1285 -0.0313 -0.1517
  713POPS   C3A10909  12.761  13.643   7.009 -0.0321 -0.2092  0.0610
  713POPS   C4A10910  12.742  13.170   7.238 -0.0821 -0.0175  0.3534
  713POPS   C1B10911  12.766  13.549   6.508 -0.2902  0.0456 -0.0159
  713POPS   C2B10912  13.109  13.339   6.716  0.2218 -0.2527  0.0245
  713POPS   C3B10913  13.171  13.392   7.201 -0.2640 -0.1594  0.0598
  713POPS   C4B10914  13.314  13.382   7.642 -0.0869  0.0882 -0.2477
  714POPS   CNO10915   8.028  11.783   5.487  0.1110 -0.3247  0.0970
  714POPS   PO410916   8.240  11.953   5.683  0.3171 -0.0328 -0.0642
  714POPS   GL110917   8.120  11.762   6.054 -0.1162 -0.0634  0.0048
  714POPS   GL210918   7.819  12.042   5.977  0.4947 -0.1434 -0.1262
  714POPS   C1A10919   8.087  11.888   6.434 -0.0516  0.0097 -0.2427
  714POPS   D2A10920   8.296  11.769   6.768 -0.0286 -0.1316 -0.2231
  714POPS   C3A10921   8.208  11.877   7.155  0.2649  0.0748  0.3380
  714POPS   C4A10922   8.263  11.798   7.590  0.0954 -0.2103  0.0087
  714POPS   C1B10923   7.665  12.203   6.335  0.2024  0.1294  0.0898
  714POPS   C2B10924   7.815  12.308   6.691 -0.4612  0.5476  0.2701
  714POPS   C3B10925   7.723  12.343   7.139 -0.0664  0.2695 -0.2946
  714POPS   C4B10926   7.753  12.667   7.447  0.2344  0.0483  0.2880
  715POPS   CNO10927  13.662  14.041   6.142 -0.0545 -0.0628  0.2298
  715POPS   PO410928  13.762  14.426   5.946  0.0958 -0.0534  0.3445
  715POPS   GL110929  14.025  14.275   6.340  0.3628 -0.2696 -0.0251
  715POPS   GL210930  14.305  14.295   6.353  0.2955 -0.1740 -0.0825
  715POPS   C1A10931  14.064  14.515   6.747 -0.0449 -0.2062 -0.1147
  715POPS   D2A10932  14.024  14.820   7.065  0.0658 -0.1690  0.2413
  715POPS   C3A10933  14.201  15.090   7.236  0.1153 -0.3704  0.0701
  715POPS   C4A10934  14.603  14.925   7.439  0.3767 -0.1106 -0.0140
  715POPS   C1B10935  14.191  14.045   6.745 -0.1699 -0.2621 -0.1506
  715POPS   C2B10936  14.197  13.979   7.177 -0.1278 -0.1334 -0.0976
  715POPS   C3B10937  14.112  13.860   7.567 -0.1674 -0.1491 -0.1095
  715POPS   C4B10938  13.968  13.882   8.051 -0.1520  0.0961 -0.0100
  716POPS   CNO10939  11.230  16.429   5.623 -0.3461  0.3751  0.0315
  716POPS   PO410940  11.129  16.043   5.734 -0.0938 -0.2502 -0.0549
  716POPS   GL110941  11.165  16.051   6.108 -0.2466 -0.0692  0.4691
  716POPS   GL210942  11.327  15.894   6.330  0.5037  0.0182  0.1795
  716POPS   C1A10943  11.441  16.336   6.308  0.0761  0.2444 -0.0437
  716POPS   D2A10944  11.701  16.638   6.144  0.0454 -0.1172  0.0607
  716POPS   C3A10945  11.880  17.091   6.142  0.3853 -0.0581 -0.2479
  716POPS   C4A10946  11.490  17.482   6.216 -0.2616  0.2387  0.2470
  716POPS   C1B10947  11.452  15.930   6.835 -0.0396 -0.0256  0.0021
  716POPS   C2B10948  11.099  16.205   7.091  0.0022 -0.1962  0.1905
  716POPS   C3B10949  11.229  16.503   7.352  0.1008 -0.2339  0.2460
  716POPS   C4B10950  11.353  16.719   7.730 -0.0032  0.0437  0.0132
  717POPS   CNO10951  18.647   8.081   5.528  0.0063 -0.0175  0.1388
  717POPS   PO410952  18.297   8.257   5.652 -0.0285  0.2427  0.2476
  717POPS   GL110953  18.487   8.447   6.075 -0.0399  0.2077 -0.0590
  717POPS   GL210954  18.517   8.724   6.145 -0.2631 -0.2274  0.4412
  717POPS   C1A10955  18.609   8.129   6.429 -0.1054 -0.0438 -0.0212
  717POPS   D2A10956  18.534   7.867   6.694 -0.2347  0.1354 -0.3580
  717POPS   C3A10957  18.796   7.789   7.084  0.0901 -0.0465 -0.2458
  717POPS   C4A10958  18.970   7.807   7.499 -0.0977  0.0843 -0.1026
  717POPS   C1B10959  18.545   8.664   6.565  0.2728 -0.3682 -0.0575
  717POPS   C2B10960  18.660   8.380   6.849 -0.1000 -0.1922  0.1235
  717POPS   C3B10961  18.894   8.303   7.206  0.3100 -0.1039  0.0550
  717POPS   C4B10962  18.914   8.542   7.571  0.3098 -0.2445  0.0543
  718POPS   CNO10963  17.543  14.207   6.195  0.0179 -0.2612 -0.1277
  718POPS   PO410964  17.296  13.866   6.138 -0.0040  0.0616 -0.3609
  718POPS   GL110965  17.113  13.948   6.601  0.2479  0.0271 -0.0889
  718POPS   GL210966  16.710  13.893   6.667 -0.4010 -0.0230  0.0103
  718POPS   C1A10967  17.073  14.315   6.843  0.0164 -0.2633 -0.4114
  718POPS   D2A10968  17.343  14.366   7.207  0.1785 -0.2697 -0.0733
  718POPS   C3A10969  17.722  14.446   7.496  0.1977 -0.2395  0.1636
  718POPS   C4A10970  18.175  14.544   7.447 -0.0132 -0.2146  0.0717
  718POPS   C1B10971  16.772  13.984   7.149  0.0793  0.2955  0.1237
  718POPS   C2B10972  16.913  13.971   7.623 -0.0224  0.2874 -0.1101
  718POPS   C3B10973  16.661  13.895   7.860 -0.2047  0.0597  0.1695
  718POPS   C4B10974  16.229  13.947   7.856  0.0835  0.2171 -0.4018
  719POPS   CNO10975  10.377   1.762   5.745 -0.2221  0.3330 -0.3030
  719POPS   PO410976  10.699   2.056   5.575  0.2751 -0.0210 -0.2914
  719POPS   GL110977  10.850   1.995   6.025 -0.0497  0.2612 -0.2728
  719POPS   GL210978  10.623   1.874   6.188 -0.1182  0.1115  0.0510
  719POPS   C1A10979  11.185   1.818   6.186 -0.2154  0.1971 -0.0034
  719POPS   D2A10980  11.247   1.800   6.732  0.0784  0.1207  0.4565
  719POPS   C3A10981  11.416   1.372   6.734 -0.1324  0.0002  0.1242
  719POPS   C4A10982  11.354   0.895   6.826 -0.1114 -0.3662 -0.0654
  719POPS   C1B10983  10.687   1.645   6.463  0.0904  0.0054  0.0238
  719POPS   C2B10984  10.929   1.376   6.763  0.1718  0.1310  0.0683
  719POPS   C3B10985  11.160   1.269   7.164 -0.3147 -0.1677  0.1158
  719POPS   C4B10986  11.626   1.208   7.198  0.0371  0.2640  0.1509
  720POPS   CNO10987  16.373   9.069   6.114  0.0297 -0.0529 -0.4172
  720POPS   PO410988  16.323   8.585   6.414  0.1480 -0.0593 -0.2929
  720POPS   GL110989  16.301   8.425   6.795 -0.0274  0.1327  0.0292
  720POPS   GL210990  16.158   8.083   6.739 -0.0014  0.2465  0.0634
  720POPS   C1A10991  16.418   8.460   7.224 -0.2313  0.0923 -0.1270
  720POPS   D2A10992  16.648   8.561   7.580  0.0950 -0.0999 -0.1610
  720POPS   C3A10993  17.000   8.720   7.785 -0.0854  0.0495  0.0831
  720POPS   C4A10994  17.234   8.870   8.115  0.0524  0.3152 -0.1816
  720POPS   C1B10995  16.331   8.011   7.139  0.2173 -0.0407  0.1809
  720POPS   C2B10996  16.507   8.091   7.545  0.1198  0.2467 -0.1153
  720POPS   C3B10997  16.819   7.792   7.734  0.0672  0.0900 -0.2681
  720POPS   C4B10998  16.744   7.444   8.050  0.1423 -0.0725  0.2487
  721POPS   CNO10999   8.850  17.169   5.222 -0.0208 -0.0202 -0.2504
  721POPS   PO411000   8.384  17.260   5.377  0.1186  0.3036  0.0719
  721POPS   GL111001   8.233  17.390   5.835  0.2478  0.1267  0.3989
  721POPS   GL211002   8.300  17.698   5.783  0.3965 -0.1643 -0.2807
  721POPS   C1A11003   8.296  17.140   6.271 -0.3771  0.2777 -0.0919
  721POPS   D2A11004   8.301  17.230   6.708 -0.0968 -0.4119  0.1324
  721POPS   C3A11005   8.280  16.887   6.952 -0.0529 -0.0738 -0.2418
  721POPS   C4A11006   8.307  16.547   7.330 -0.1326 -0.0835  0.2656
  721POPS   C1B11007   8.587  17.529   6.182 -0.1522  0.1850  0.1634
  721POPS   C2B11008   8.658  17.530   6.570 -0.2923 -0.1251 -0.0634
  721POPS   C3B11009   8.719  17.594   6.944  0.2931 -0.0566  0.0346
  721POPS   C4B11010   8.696  17.943   7.277 -0.4260 -0.0689  0.1512
  722POPS   CNO11011   3.950   8.687   5.332  0.2234 -0.2050  0.0047
  722POPS   PO411012   3.945   8.264   5.388  0.0017 -0.0721  0.1645
  722POPS   GL111013   3.885   7.980   5.763 -0.3192  0.2045 -0.1556
  722POPS   GL211014   3.981   7.706   5.745 -0.1385  0.0668  0.1530
  722POPS   C1A11015   4.123   8.056   6.184 -0.2542  0.0754  0.0098
  722POPS   D2A11016   4.314   8.295   6.485 -0.0192  0.1656  0.3062
  722POPS   C3A11017   4.247   8.320   6.874  0.1447 -0.1689  0.2749
  722POPS   C4A11018   4.170   8.374   7.320 -0.2401  0.2719 -0.2638
  722POPS   C1B11019   4.069   7.372   6.048 -0.4606 -0.1058 -0.0377
  722POPS   C2B11020   4.102   7.349   6.505 -0.1927  0.1383 -0.1433
  722POPS   C3B11021   3.802   7.480   6.796 -0.1337  0.2220  0.0257
  722POPS   C4B11022   3.661   7.552   7.234 -0.2593 -0.1813  0.0921
  723POPS   CNO11023   0.081  10.759   5.775  0.0919  0.1095  0.3320
  723POPS   PO411024   0.180  10.278   5.797 -0.0488  0.0370  0.1905
  723POPS   GL111025   0.122   9.809   6.097  0.1423 -0.2698 -0.4382
  723POPS   GL211026   0.248   9.549   5.993  0.2240 -0.0868  0.0326
  723POPS   C1A11027   0.130   9.779   6.562 -0.3892 -0.0217 -0.1831
  723POPS   D2A11028   0.309   9.940   6.822 -0.1056  0.0405  0.0210
  723POPS   C3A11029   0.366   9.840   7.249 -0.2186 -0.2713 -0.0465
  723POPS   C4A11030   0.706   9.664   7.449  0.4078  0.3884  0.1233
  723POPS   C1B11031   0.621   9.618   6.361  0.1818 -0.2121 -0.0870
  723POPS   C2B11032   0.784   9.779   6.639 -0.4143  0.0292 -0.0583
  723POPS   C3B11033   0.973   9.775   6.999 -0.0751  0.2538 -0.2780
  723POPS   C4B11034   1.303   9.667   7.172 -0.1066 -0.0964 -0.0056
  724POPS   CNO11035   6.901  11.230   5.395 -0.1517 -0.0165  0.2592
  724POPS   PO411036   7.009  11.703   5.468  0.1183 -0.0276 -0.0247
  724POPS   GL111037   6.889  11.556   5.825  0.3574 -0.0187  0.3833
  724POPS   GL211038   7.207  11.471   5.928 -0.0844 -0.1287 -0.2236
  724POPS   C1A11039   6.673  11.710   6.199 -0.2468 -0.0932 -0.0318
  724POPS   D2A11040   6.629  11.635   6.642  0.0005 -0.3096  0.1021
  724POPS   C3A11041   6.471  11.535   7.074  0.4258 -0.1743  0.0975
  724POPS   C4A11042   6.514  11.561   7.489  0.0842  0.0385  0.3793
  724POPS   C1B11043   7.146  11.527   6.433  0.0873  0.0454 -0.0303
  724POPS   C2B11044   7.149  11.714   6.865 -0.0921  0.0813  0.1970
  724POPS   C3B11045   7.239  11.378   7.195  0.0918  0.0126  0.1832
  724POPS   C4B11046   7.299  10.888   7.204 -0.2823 -0.2240 -0.3069
  725POPS   CNO11047   7.754   0.498   5.053 -0.0491  0.1164  0.1450
  725POPS   PO411048   7.640   0.225   5.313  0.1014 -0.0559  0.0031
  725POPS   GL111049   7.414   0.452   5.559  0.0489 -0.0754 -0.1404
  725POPS   GL211050   7.142   0.515   5.496 -0.1458  0.2989 -0.0916
  725POPS   C1A11051   7.431   0.563   5.993 -0.2195 -0.0181  0.0299
  725POPS   D2A11052   7.063   0.568   6.316 -0.1013 -0.0977  0.1702
  725POPS   C3A11053   7.061   0.694   6.789 -0.0193  0.0247 -0.5217
  725POPS   C4A11054   6.988   0.776   7.249 -0.0030 -0.0334 -0.0191
  725POPS   C1B11055   7.056   0.917   5.857  0.2068 -0.0388  0.2349
  725POPS   C2B11056   7.230   1.164   6.200  0.1803  0.1748  0.2377
  725POPS   C3B11057   7.394   1.146   6.527 -0.0892 -0.0796 -0.0624
  725POPS   C4B11058   7.464   0.976   6.958  0.1606  0.0274  0.1683
  726POPS   CNO11059   7.083  14.530   5.602  0.0149 -0.2399  0.0187
  726POPS   PO411060   7.396  14.604   5.367  0.2783 -0.2126 -0.0937
  726POPS   GL111061   7.533  14.592   5.837 -0.1562  0.0382 -0.2091
  726POPS   GL211062   7.520  14.269   5.863 -0.1372  0.1279 -0.0582
  726POPS   C1A11063   7.589  14.499   6.341  0.0867  0.0702 -0.3045
  726POPS   D2A11064   7.874  14.660   6.568  0.1123 -0.0940  0.0808
  726POPS   C3A11065   8.138  14.572   6.297  0.2201 -0.1121 -0.3155
  726POPS   C4A11066   8.339  14.573   5.979  0.1315 -0.0160  0.1404
  726POPS   C1B11067   7.476  13.993   6.096 -0.3235  0.2154 -0.1331
  726POPS   C2B11068   7.408  14.137   6.598  0.2003  0.1191 -0.3492
  726POPS   C3B11069   7.421  13.873   6.933 -0.1212 -0.0848  0.1782
  726POPS   C4B11070   7.763  13.678   7.152 -0.0488 -0.0438  0.1367
  727POPS   CNO11071   2.021  11.216   5.827  0.0233  0.2021  0.0764
  727POPS   PO411072   2.051  10.838   5.599 -0.0171  0.2506  0.2194
  727POPS   GL111073   2.292  10.591   5.837  0.0328  0.1519 -0.1781
  727POPS   GL211074   2.522  10.879   5.887 -0.0856  0.0157 -0.3290
  727POPS   C1A11075   2.291  10.575   6.281  0.0131 -0.0136  0.0218
  727POPS   D2A11076   2.299  10.532   6.657 -0.4423  0.1645 -0.0755
  727POPS   C3A11077   2.126  10.604   7.094  0.0107  0.1025 -0.0900
  727POPS   C4A11078   1.966  10.859   7.510  0.2258  0.2195 -0.1083
  727POPS   C1B11079   2.780  10.578   5.981 -0.1075 -0.1161  0.0873
  727POPS   C2B11080   2.847  10.455   6.344 -0.0945 -0.2454  0.0150
  727POPS   C3B11081   2.812  10.404   6.786  0.3691  0.0721  0.1065
  727POPS   C4B11082   2.978  10.109   7.070 -0.1546  0.4133  0.2997
  728POPS   CNO11083   9.433   0.732   5.417  0.0892  0.1856 -0.2981
  728POPS   PO411084   9.813   0.940   5.545 -0.2280 -0.0805  0.1236
  728POPS   GL111085   9.846   1.118   5.938 -0.4052  0.1165  0.1274
  728POPS   GL211086   9.926   1.445   5.904  0.1723  0.1023 -0.1314
  728POPS   C1A11087  10.107   1.115   6.304 -0.0487 -0.0697  0.3959
  728POPS   D2A11088  10.481   1.199   6.599  0.0937 -0.0842 -0.2343
  728POPS   C3A11089  10.603   1.215   7.106 -0.0645 -0.1522  0.1838
  728POPS   C4A11090  10.756   1.248   7.503 -0.0086  0.1195 -0.2258
  728POPS   C1B11091  10.162   1.643   6.313 -0.2082  0.2816 -0.1791
  728POPS   C2B11092  10.332   1.618   6.785 -0.0473  0.2088  0.3084
  728POPS   C3B11093  10.271   1.641   7.212 -0.2167 -0.0006  0.2135
  728POPS   C4B11094  10.540   1.721   7.616  0.0292  0.0830  0.1563
  729POPS   CNO11095  10.802  18.418   5.532 -0.0143 -0.2578 -0.3084
  729POPS   PO411096  10.625  18.033   5.331 -0.0884 -0.2062 -0.2274
  729POPS   GL111097  10.389  18.261   5.725 -0.0107  0.0877 -0.0669
  729POPS   GL211098  10.201  18.099   5.972  0.1306 -0.1763 -0.0908
  729POPS   C1A11099  10.438  18.589   5.968 -0.1209  0.1398 -0.0331
  729POPS   D2A11100  10.815  18.872   5.949 -0.1087 -0.2027  0.2265
  729POPS   C3A11101  11.035  19.249   6.155  0.2191 -0.2830  0.0082
  729POPS   C4A11102  10.851  19.656   6.014  0.1406  0.2458  0.2923
  729POPS   C1B11103  10.330  18.148   6.309 -0.0411  0.2246  0.1126
  729POPS   C2B11104  10.303  18.241   6.691  0.1263 -0.0690 -0.2738
  729POPS   C3B11105  10.456  18.488   7.011 -0.3449  0.1045  0.1134
  729POPS   C4B11106  10.345  18.560   7.474 -0.0600  0.1736  0.1828
  730POPS   CNO11107   0.246   0.441   5.378  0.0936 -0.3547 -0.2341
  730POPS   PO411108   0.177   0.223   5.831  0.2068  0.0691 -0.2058
  730POPS   GL111109   0.349   0.559   6.104 -0.1866 -0.0044  0.0986
  730POPS   GL211110   0.369   0.342   6.268  0.2406 -0.1109  0.0013
  730POPS   C1A11111   0.227   0.846   6.507  0.4510  0.2501 -0.0554
  730POPS   D2A11112   0.327   1.088   6.885  0.2145  0.2484  0.0688
  730POPS   C3A11113   0.388   1.112   7.324 -0.0360 -0.0336  0.0386
  730POPS   C4A11114   0.027   1.040   7.695  0.0321 -0.2303  0.0341
  730POPS   C1B11115   0.550   0.386   6.672 -0.2065  0.0658  0.1227
  730POPS   C2B11116   0.624   0.586   6.995 -0.0321 -0.1521  0.1678
  730POPS   C3B11117   0.173   0.702   7.273  0.2566  0.3573 -0.0699
  730POPS   C4B11118  -0.243   0.651   7.404 -0.0142 -0.1580 -0.1101
  731POPS   CNO11119  10.201  15.598   5.816  0.1923 -0.2782  0.1281
  731POPS   PO411120  10.507  15.333   5.599  0.0753 -0.2904  0.0980
  731POPS   GL111121  10.435  15.307   6.134  0.0788  0.0215  0.1512
  731POPS   GL211122  10.203  15.511   6.294  0.3477 -0.1759  0.1300
  731POPS   C1A11123  10.573  15.306   6.586 -0.1488  0.0693 -0.0196
  731POPS   D2A11124  10.532  15.249   7.020 -0.0531  0.1469  0.2530
  731POPS   C3A11125  10.470  15.605   7.147 -0.2311 -0.0525 -0.0723
  731POPS   C4A11126  10.610  16.038   7.313 -0.0919  0.0022  0.1075
  731POPS   C1B11127  10.091  15.428   6.738  0.1705  0.0752  0.0730
  731POPS   C2B11128  10.005  15.282   7.037  0.0058  0.1825  0.0024
  731POPS   C3B11129  10.027  15.434   7.329 -0.0464  0.2980 -0.1241
  731POPS   C4B11130  10.036  15.514   7.809 -0.1505  0.2781  0.2439
  732POPS   CNO11131  18.118   5.217   6.002 -0.0658  0.3527 -0.2703
  732POPS   PO411132  17.722   5.545   5.881 -0.1532 -0.1829 -0.0461
  732POPS   GL111133  17.881   5.683   6.287  0.0477  0.0216 -0.1339
  732POPS   GL211134  17.914   6.051   6.323 -0.1418 -0.1240 -0.0065
  732POPS   C1A11135  17.747   5.712   6.769 -0.2606  0.1472  0.4072
  732POPS   D2A11136  17.770   5.869   7.181  0.2166 -0.0684  0.0480
  732POPS   C3A11137  17.582   5.668   7.484  0.1210 -0.3137 -0.1122
  732POPS   C4A11138  17.624   5.318   7.832 -0.0907 -0.1398  0.0852
  732POPS   C1B11139  17.674   6.202   6.606 -0.1498  0.4801 -0.1517
  732POPS   C2B11140  17.865   6.345   7.028  0.0388  0.2334  0.0781
  732POPS   C3B11141  17.879   6.345   7.484 -0.0520 -0.2081  0.6133
  732POPS   C4B11142  18.174   6.615   7.637  0.0843 -0.0745 -0.3023
  733POPS   CNO11143  15.241  14.384   6.010 -0.2547  0.1524  0.3515
  733POPS   PO411144  15.370  14.026   5.914  0.1328 -0.2300 -0.3049
  733POPS   GL111145  15.471  13.726   6.201 -0.0746  0.0951  0.2350
  733POPS   GL211146  15.431  13.387   6.429 -0.2463  0.3933 -0.1675
  733POPS   C1A11147  15.670  13.789   6.600 -0.2330  0.1594  0.1819
  733POPS   D2A11148  15.688  13.512   7.001 -0.2320  0.0038 -0.1855
  733POPS   C3A11149  15.922  13.744   7.282  0.0380 -0.0154 -0.1503
  733POPS   C4A11150  16.350  13.688   7.454  0.0519 -0.2724 -0.3420
  733POPS   C1B11151  15.206  13.664   6.718  0.3339 -0.0850  0.2480
  733POPS   C2B11152  14.941  13.966   7.062 -0.0998 -0.0430  0.1848
  733POPS   C3B11153  14.628  14.128   7.408 -0.0865 -0.0656  0.1856
  733POPS   C4B11154  14.442  14.107   7.846  0.3111  0.0767 -0.1865
  734POPS   CNO11155   3.812  15.974   5.439  0.2452  0.2315 -0.0828
  734POPS   PO411156   4.036  16.347   5.374  0.2080  0.1301  0.0416
  734POPS   GL111157   4.080  16.594   5.876  0.2200 -0.0444  0.1229
  734POPS   GL211158   4.356  16.555   6.083  0.0251 -0.2442  0.3785
  734POPS   C1A11159   3.813  16.601   6.269 -0.2094 -0.0202 -0.3204
  734POPS   D2A11160   3.772  16.837   6.704  0.0842  0.2928  0.0079
  734POPS   C3A11161   3.571  17.170   6.611 -0.1143 -0.1027 -0.1308
  734POPS   C4A11162   3.515  17.424   6.255  0.3053 -0.2239 -0.1397
  734POPS   C1B11163   4.225  16.748   6.479 -0.2586  0.2239 -0.0188
  734POPS   C2B11164   4.256  16.971   6.885  0.1227 -0.0326  0.2387
  734POPS   C3B11165   4.099  16.960   7.267 -0.1333  0.0080 -0.1725
  734POPS   C4B11166   3.983  17.250   7.685  0.1908 -0.0858  0.1133
  735POPS   CNO11167   3.835  14.581   5.283  0.0886 -0.2609  0.1968
  735POPS   PO411168   3.756  14.801   5.579 -0.1090  0.0470 -0.0302
  735POPS   GL111169   3.489  14.682   6.034  0.2384 -0.0640  0.0464
  735POPS   GL211170   3.158  14.449   6.036  0.3933  0.5307  0.3174
  735POPS   C1A11171   3.610  14.508   6.507  0.0437  0.4014  0.2435
  735POPS   D2A11172   3.439  14.232   6.791  0.1531 -0.1889 -0.1082
  735POPS   C3A11173   3.742  14.029   6.964  0.1358  0.3979 -0.0412
  735POPS   C4A11174   4.166  13.910   6.945 -0.0080  0.2270  0.0346
  735POPS   C1B11175   3.109  14.305   6.453 -0.0907  0.1692 -0.2792
  735POPS   C2B11176   2.972  13.925   6.604 -0.1513  0.1188 -0.1276
  735POPS   C3B11177   2.790  13.607   6.773  0.2620 -0.1066 -0.3007
  735POPS   C4B11178   2.881  13.311   7.174  0.1762  0.1459 -0.3798
  736POPS   CNO11179   0.678   7.111   5.024  0.1991 -0.0078 -0.2875
  736POPS   PO411180   0.706   6.840   5.379 -0.1609  0.2508 -0.3623
  736POPS   GL111181   0.531   7.089   5.743  0.0305 -0.0629  0.0437
  736POPS   GL211182   0.721   7.456   5.724  0.2990  0.0041  0.1509
  736POPS   C1A11183   0.524   7.080   6.180  0.2896  0.1856 -0.1666
  736POPS   D2A11184   0.775   7.076   6.474  0.1987  0.4025 -0.3361
  736POPS   C3A11185   1.128   7.450   6.630 -0.3695  0.0369  0.1113
  736POPS   C4A11186   1.432   7.739   6.555  0.2405 -0.0374  0.0087
  736POPS   C1B11187   0.597   7.613   6.089 -0.1042  0.0995  0.0602
  736POPS   C2B11188   0.674   7.549   6.439 -0.0714  0.1138  0.4872
  736POPS   C3B11189   0.429   7.394   6.713  0.0017  0.0931 -0.1510
  736POPS   C4B11190   0.492   7.410   7.144  0.1929  0.3340  0.0773
  737POPS   CNO11191   7.080  18.460   4.917 -0.3339 -0.0772 -0.1047
  737POPS   PO411192   7.002  18.293   5.361  0.2214  0.0071 -0.0982
  737POPS   GL111193   6.944  18.602   5.616 -0.0560 -0.1597  0.2289
  737POPS   GL211194   6.620  18.500   5.685  0.2092  0.0163  0.0178
  737POPS   C1A11195   6.838  18.993   5.862  0.0353  0.0319 -0.3200
  737POPS   D2A11196   6.644  19.104   6.327 -0.1331 -0.0212  0.0327
  737POPS   C3A11197   6.586  19.366   6.581  0.1469 -0.0315  0.2569
  737POPS   C4A11198   6.213  19.540   6.843  0.0836 -0.3046  0.0914
  737POPS   C1B11199   6.714  18.594   6.075  0.3071 -0.1323 -0.3461
  737POPS   C2B11200   6.935  18.469   6.561  0.1336  0.1533  0.0260
  737POPS   C3B11201   6.842  18.154   6.829 -0.1767 -0.2520 -0.1379
  737POPS   C4B11202   6.460  17.951   6.826  0.2275  0.0416  0.3099
  738POPS   CNO11203  17.440  16.625   5.375 -0.2087 -0.1609 -0.0145
  738POPS   PO411204  17.538  16.394   5.834 -0.0109 -0.0527  0.4445
  738POPS   GL111205  17.639  16.572   6.186 -0.0032  0.0411 -0.2154
  738POPS   GL211206  17.880  16.654   6.119  0.2359 -0.0052  0.1506
  738POPS   C1A11207  17.283  16.760   6.493  0.0762 -0.1689  0.0135
  738POPS   D2A11208  17.287  16.796   6.893 -0.0144  0.2268  0.0813
  738POPS   C3A11209  17.154  16.853   7.347  0.0008 -0.3160  0.1614
  738POPS   C4A11210  16.913  17.228   7.603 -0.0229 -0.2449  0.3181
  738POPS   C1B11211  18.075  16.625   6.588 -0.1338  0.2890  0.1936
  738POPS   C2B11212  18.015  16.515   6.987 -0.1338 -0.0052  0.0524
  738POPS   C3B11213  18.084  16.546   7.397  0.0479  0.0956 -0.4209
  738POPS   C4B11214  18.162  16.700   7.739 -0.2826  0.0821 -0.1216
  739POPS   CNO11215  13.773  11.887   5.876 -0.0297 -0.3209 -0.2983
  739POPS   PO411216  13.777  11.773   6.273 -0.0275  0.0439 -0.3229
  739POPS   GL111217  13.437  11.483   6.593  0.1657  0.4157  0.0791
  739POPS   GL211218  13.617  11.224   6.551 -0.1978 -0.2193  0.3283
  739POPS   C1A11219  13.365  11.359   7.058  0.0831  0.0457  0.0609
  739POPS   D2A11220  13.261  11.232   7.516 -0.0122 -0.0588 -0.0841
  739POPS   C3A11221  13.156  11.502   7.742  0.0270 -0.0311 -0.0864
  739POPS   C4A11222  12.923  11.622   7.966 -0.2284  0.0799  0.0515
  739POPS   C1B11223  13.636  10.948   6.896 -0.0944 -0.1053 -0.1852
  739POPS   C2B11224  13.662  10.858   7.305  0.0144 -0.0941  0.1199
  739POPS   C3B11225  13.305  10.758   7.674 -0.0649  0.2028 -0.1294
  739POPS   C4B11226  13.080  10.667   8.097 -0.1407 -0.0569 -0.0283
  740POPS   CNO11227   2.846  14.323   5.250  0.0097 -0.2255  0.0207
  740POPS   PO411228   2.895  14.856   5.346  0.1778 -0.1842 -0.2425
  740POPS   GL111229   2.866  14.874   5.774  0.1867 -0.0342 -0.1305
  740POPS   GL211230   2.609  15.066   5.938  0.1521  0.2021 -0.2164
  740POPS   C1A11231   3.015  14.919   6.165 -0.1204 -0.1490 -0.2651
  740POPS   D2A11232   3.248  14.829   6.469  0.2628  0.0066  0.1576
  740POPS   C3A11233   3.198  14.672   6.856 -0.1962 -0.1496 -0.3374
  740POPS   C4A11234   3.303  14.890   7.297  0.0020 -0.1550 -0.0378
  740POPS   C1B11235   2.668  15.271   6.356  0.1470 -0.0556  0.1130
  740POPS   C2B11236   2.690  15.521   6.799 -0.3112 -0.0450  0.2826
  740POPS   C3B11237   2.981  15.511   7.298 -0.1995  0.2620  0.1921
  740POPS   C4B11238   3.416  15.269   7.594  0.2698 -0.1817 -0.0610
  741POPS   CNO11239  15.337   9.037   5.653 -0.2552 -0.1570 -0.1172
  741POPS   PO411240  15.227   9.350   6.007  0.0385  0.3722 -0.0153
  741POPS   GL111241  15.374   9.303   6.402 -0.2350 -0.1199 -0.0430
  741POPS   GL211242  15.470   9.582   6.437 -0.2554 -0.0698 -0.1806
  741POPS   C1A11243  15.620   9.116   6.812  0.0412  0.1273 -0.0033
  741POPS   D2A11244  15.446   8.774   7.116  0.1717 -0.2528 -0.2736
  741POPS   C3A11245  15.764   8.716   7.462 -0.4094 -0.0549  0.1013
  741POPS   C4A11246  15.850   8.834   7.860 -0.0012 -0.1431 -0.1196
  741POPS   C1B11247  15.926   9.613   6.608  0.0056 -0.0170  0.0191
  741POPS   C2B11248  16.218   9.538   6.990 -0.1067 -0.1472  0.1096
  741POPS   C3B11249  16.404   9.255   7.242  0.1435  0.2629  0.0660
  741POPS   C4B11250  16.255   9.000   7.521 -0.0519  0.1760 -0.1672
  742POPS   CNO11251   8.962   2.162   5.507  0.2196  0.1238 -0.2024
  742POPS   PO411252   8.515   2.111   5.536 -0.2656 -0.2590  0.2675
  742POPS   GL111253   8.526   1.952   5.996  0.3432  0.0473  0.1107
  742POPS   GL211254   8.753   1.623   6.072 -0.0071 -0.0513  0.0394
  742POPS   C1A11255   8.537   1.980   6.416  0.1166 -0.1011  0.1954
  742POPS   D2A11256   8.273   2.144   6.622 -0.4685 -0.1434  0.1858
  742POPS   C3A11257   8.090   2.194   7.028 -0.1578 -0.0760 -0.0154
  742POPS   C4A11258   7.841   2.467   7.263  0.1711 -0.2121  0.1791
  742POPS   C1B11259   8.948   1.654   6.422  0.0080 -0.2000  0.0662
  742POPS   C2B11260   9.354   1.603   6.739 -0.0137 -0.3143  0.3457
  742POPS   C3B11261   9.357   1.501   7.094 -0.0144 -0.0366  0.1377
  742POPS   C4B11262   9.358   1.364   7.568 -0.0334  0.3108  0.1216
  743POPS   CNO11263  16.999   2.013   5.014  0.0417  0.0118 -0.0984
  743POPS   PO411264  17.113   2.145   5.541 -0.1886 -0.1852  0.2248
  743POPS   GL111265  16.803   2.212   5.891 -0.2800  0.1120  0.2050
  743POPS   GL211266  16.637   1.963   6.037  0.1379 -0.0005  0.2641
  743POPS   C1A11267  16.767   2.499   6.227 -0.1405  0.0430 -0.3910
  743POPS   D2A11268  16.620   2.579   6.544  0.0484 -0.0802  0.3649
  743POPS   C3A11269  16.678   2.824   6.876 -0.0572  0.2465 -0.0363
  743POPS   C4A11270  16.419   2.881   7.227  0.0359  0.0050  0.0002
  743POPS   C1B11271  16.571   2.019   6.483  0.1674  0.4042 -0.2277
  743POPS   C2B11272  16.695   1.939   6.888  0.1484  0.2366  0.1134
  743POPS   C3B11273  16.983   1.760   7.072 -0.0294  0.0412  0.3105
  743POPS   C4B11274  17.128   1.952   7.460 -0.1014 -0.2516 -0.1527
  744POPS   CNO11275   0.076   5.368   5.502  0.1351  0.4952 -0.1974
  744POPS   PO411276  -0.314   5.126   5.528 -0.0855 -0.0172 -0.1523
  744POPS   GL111277  -0.125   5.140   5.915  0.0816  0.0800 -0.2074
  744POPS   GL211278  -0.160   4.862   6.109 -0.0985 -0.2187 -0.4072
  744POPS   C1A11279   0.197   5.114   6.339 -0.0861  0.0071  0.0309
  744POPS   D2A11280   0.140   4.708   6.668 -0.0471  0.0216  0.1558
  744POPS   C3A11281  -0.324   4.661   6.841  0.0934 -0.0022 -0.0359
  744POPS   C4A11282  -0.547   4.909   7.246 -0.0235  0.0473 -0.3395
  744POPS   C1B11283  -0.463   5.031   6.442 -0.2314  0.3906  0.1302
  744POPS   C2B11284  -0.825   5.302   6.636 -0.2886 -0.0654  0.0591
  744POPS   C3B11285  -1.023   5.218   7.054 -0.0599  0.1089 -0.3390
  744POPS   C4B11286  -1.167   5.077   7.390  0.0886 -0.0413  0.0009
  745POPS   CNO11287  13.120  14.268   5.604 -0.0564  0.2000  0.1819
  745POPS   PO411288  13.222  14.108   5.931  0.0998  0.0893 -0.0766
  745POPS   GL111289  13.256  14.053   6.423  0.1830  0.1949  0.2229
  745POPS   GL211290  12.988  14.193   6.454 -0.1291  0.2808  0.0382
  745POPS   C1A11291  13.217  13.819   6.801 -0.1388 -0.1778  0.3368
  745POPS   D2A11292  13.089  14.037   7.177 -0.0553 -0.1501  0.2050
  745POPS   C3A11293  13.072  13.809   7.514  0.1812 -0.0350  0.0022
  745POPS   C4A11294  12.955  13.952   7.898 -0.1421 -0.0986 -0.0889
  745POPS   C1B11295  13.128  14.381   6.817 -0.1692  0.1145  0.1536
  745POPS   C2B11296  13.162  14.586   7.194  0.1450 -0.0552  0.0406
  745POPS   C3B11297  13.479  14.606   7.400 -0.0641  0.1050  0.1711
  745POPS   C4B11298  13.925  14.810   7.601 -0.3287 -0.2643 -0.2371
  746POPS   CNO11299  10.123   4.684   5.638 -0.1814 -0.0445 -0.2238
  746POPS   PO411300  10.312   4.396   5.298 -0.1504  0.1479  0.0814
  746POPS   GL111301  10.270   4.227   5.840  0.2254 -0.1762 -0.0409
  746POPS   GL211302  10.572   4.157   6.082  0.0206 -0.1338 -0.2727
  746POPS   C1A11303   9.984   4.148   6.156 -0.0227 -0.1373  0.1287
  746POPS   D2A11304   9.991   4.206   6.554  0.2530  0.0406  0.0038
  746POPS   C3A11305  10.010   4.641   6.670 -0.0520  0.1490 -0.2568
  746POPS   C4A11306   9.843   5.052   6.609  0.2183 -0.2378 -0.2196
  746POPS   C1B11307  10.442   4.204   6.466 -0.1945  0.1283 -0.1615
  746POPS   C2B11308  10.470   4.476   6.834 -0.0428  0.0018  0.2724
  746POPS   C3B11309  10.265   4.931   7.066 -0.0452  0.1016 -0.1396
  746POPS   C4B11310  10.290   5.170   7.374 -0.0265 -0.1433 -0.2212
  747POPS   CNO11311   5.657   9.344   5.322 -0.0146  0.3713  0.2488
  747POPS   PO411312   6.096   9.248   5.321  0.0305 -0.0406  0.1865
  747POPS   GL111313   5.855   9.137   5.720 -0.1403 -0.2571  0.0284
  747POPS   GL211314   5.541   9.107   5.785  0.1571  0.1244 -0.2249
  747POPS   C1A11315   5.763   9.227   6.234  0.2204 -0.0795  0.0911
  747POPS   D2A11316   5.704   9.071   6.680  0.2990 -0.1575 -0.2277
  747POPS   C3A11317   5.553   8.607   6.721  0.1060  0.3987 -0.1184
  747POPS   C4A11318   5.144   8.487   7.027 -0.0698 -0.1328 -0.1220
  747POPS   C1B11319   5.271   8.936   6.118  0.2918 -0.4382 -0.0613
  747POPS   C2B11320   5.080   8.668   6.461 -0.1217 -0.0575  0.3223
  747POPS   C3B11321   4.742   8.769   6.771 -0.0966 -0.3636 -0.2324
  747POPS   C4B11322   4.664   8.451   7.118 -0.3947  0.0941  0.1445
  748POPS   CNO11323   0.622  15.465   5.467  0.0468  0.1411 -0.1489
  748POPS   PO411324   0.490  15.055   5.412  0.0710  0.1753  0.3077
  748POPS   GL111325   0.498  14.985   5.894  0.0286  0.1714  0.0497
  748POPS   GL211326   0.284  15.095   6.070  0.1209 -0.0785  0.0598
  748POPS   C1A11327   0.755  14.819   6.152  0.2519  0.0984  0.4186
  748POPS   D2A11328   0.950  14.914   6.519  0.3219  0.2746  0.0498
  748POPS   C3A11329   0.840  14.571   6.798  0.0287  0.0221 -0.1671
  748POPS   C4A11330   1.087  14.471   7.167 -0.0296  0.1029  0.3437
  748POPS   C1B11331   0.455  15.101   6.516  0.2245  0.3685 -0.2798
  748POPS   C2B11332   0.726  15.119   6.924  0.2174 -0.1437  0.0614
  748POPS   C3B11333   0.757  15.527   7.172  0.1701 -0.1113  0.0118
  748POPS   C4B11334   0.723  15.629   7.505 -0.0499  0.0246 -0.1672
  749POPS   CNO11335   1.430   0.465   5.577  0.3386  0.1822  0.2519
  749POPS   PO411336   1.001   0.545   5.677 -0.0593 -0.0001 -0.2257
  749POPS   GL111337   1.313   0.572   6.063  0.2318  0.0668 -0.1153
  749POPS   GL211338   1.649   0.567   6.024  0.0426 -0.1599 -0.3071
  749POPS   C1A11339   1.405   0.335   6.482  0.2219  0.0635 -0.0552
  749POPS   D2A11340   1.708   0.058   6.736 -0.1872  0.1697  0.0414
  749POPS   C3A11341   1.876   0.013   7.157  0.0205  0.4135 -0.3134
  749POPS   C4A11342   1.828   0.157   7.636 -0.5582  0.1783  0.1281
  749POPS   C1B11343   1.870   0.437   6.270  0.1389 -0.0973  0.1108
  749POPS   C2B11344   2.156   0.389   6.577 -0.1043 -0.1096  0.1151
  749POPS   C3B11345   2.248   0.330   7.078 -0.0871 -0.0698  0.1027
  749POPS   C4B11346   2.357   0.162   7.494 -0.0250  0.1795 -0.0305
  750POPS   CNO11347   9.195   8.482   5.377 -0.0427 -0.2702  0.0774
  750POPS   PO411348   9.388   8.236   5.642 -0.3028  0.1197 -0.3757
  750POPS   GL111349   9.368   8.053   6.087  0.2930 -0.0594 -0.1450
  750POPS   GL211350   9.221   8.371   6.273  0.2789  0.0780  0.0008
  750POPS   C1A11351   9.264   7.705   6.336  0.0360  0.1990 -0.0167
  750POPS   D2A11352   9.301   7.684   6.817  0.3637 -0.1970 -0.0639
  750POPS   C3A11353   9.121   7.928   7.101 -0.3481  0.3025  0.0100
  750POPS   C4A11354   8.888   8.127   7.479  0.3771 -0.2774  0.1244
  750POPS   C1B11355   9.155   8.328   6.688  0.1465  0.4053 -0.0956
  750POPS   C2B11356   9.119   8.407   7.068  0.0745  0.0493 -0.3743
  750POPS   C3B11357   9.319   8.310   7.404 -0.0121 -0.1204  0.0201
  750POPS   C4B11358   9.420   8.368   7.877 -0.3621  0.1358 -0.0359
  751POPS   CNO11359  10.405  12.034   5.891 -0.0332  0.2302  0.0554
  751POPS   PO411360  10.032  12.375   5.776  0.2522  0.0712 -0.2342
  751POPS   GL111361   9.796  12.523   6.115 -0.2371 -0.1113  0.1245
  751POPS   GL211362   9.571  12.545   6.002  0.3756  0.0273  0.1698
  751POPS   C1A11363   9.680  12.335   6.533  0.0492  0.0036 -0.0775
  751POPS   D2A11364   9.804  12.233   6.957 -0.1008 -0.2529 -0.2339
  751POPS   C3A11365   9.657  12.491   7.287  0.1670 -0.2807 -0.0327
  751POPS   C4A11366   9.511  12.392   7.621  0.0317 -0.0989  0.2766
  751POPS   C1B11367   9.266  12.795   6.395 -0.2123 -0.1532  0.0335
  751POPS   C2B11368   9.067  13.005   6.636 -0.1395  0.1742  0.1002
  751POPS   C3B11369   8.941  13.126   6.963  0.3013 -0.3355  0.3705
  751POPS   C4B11370   8.494  13.123   6.903 -0.0133  0.2750 -0.3093
  752POPS   CNO11371  10.424  16.127   5.252  0.2310 -0.2411  0.0255
  752POPS   PO411372  10.236  16.108   5.599  0.1744 -0.0597 -0.0897
  752POPS   GL111373  10.309  16.011   6.093 -0.1218 -0.1725 -0.0188
  752POPS   GL211374  10.730  16.154   6.224  0.2911 -0.0759 -0.0667
  752POPS   C1A11375  10.428  15.883   6.471 -0.0926  0.3853  0.0121
  752POPS   D2A11376  10.477  16.026   6.862 -0.0631  0.1130 -0.0728
  752POPS   C3A11377  10.583  16.396   6.986 -0.0341  0.3074  0.1648
  752POPS   C4A11378  10.367  16.809   6.860 -0.1501 -0.0032  0.0643
  752POPS   C1B11379  11.020  16.318   6.535  0.0652  0.2774 -0.2599
  752POPS   C2B11380  11.416  16.446   6.823 -0.0131 -0.3712 -0.1337
  752POPS   C3B11381  11.628  16.766   6.650  0.0043  0.0156 -0.1927
  752POPS   C4B11382  11.543  17.100   6.552  0.1762  0.0027  0.1629
  753POPS   CNO11383   9.301  10.375   5.575 -0.1178 -0.1251 -0.0472
  753POPS   PO411384   9.335  10.224   5.913  0.2241  0.0873 -0.1682
  753POPS   GL111385   9.437   9.922   6.199  0.1664  0.0698 -0.3309
  753POPS   GL211386   9.636   9.638   6.254 -0.0929 -0.0776  0.2359
  753POPS   C1A11387   9.330   9.990   6.616 -0.1192 -0.2435 -0.1484
  753POPS   D2A11388   9.359  10.000   7.101 -0.1745  0.1602 -0.0808
  753POPS   C3A11389   9.001   9.996   7.361 -0.2367 -0.1688  0.2101
  753POPS   C4A11390   8.927  10.234   7.741 -0.1522 -0.2359  0.0991
  753POPS   C1B11391   9.715   9.690   6.736  0.2644 -0.1065  0.0853
  753POPS   C2B11392   9.807   9.765   7.185 -0.0196 -0.0416  0.1293
  753POPS   C3B11393   9.830   9.672   7.595  0.0861  0.1586  0.1358
  753POPS   C4B11394   9.614   9.510   7.886  0.0691 -0.0248 -0.0048
  754POPS   CNO11395  18.114   1.479   5.840  0.3364 -0.3257  0.0859
  754POPS   PO411396  18.085   1.880   5.663 -0.0513 -0.0085 -0.0183
  754POPS   GL111397  18.222   2.064   6.042  0.1353  0.0818 -0.2515
  754POPS   GL211398  18.585   2.180   6.147  0.0247  0.2808  0.0137
  754POPS   C1A11399  18.214   1.930   6.463  0.2076  0.0590  0.0522
  754POPS   D2A11400  18.319   1.934   6.870 -0.0513  0.1215  0.1229
  754POPS   C3A11401  18.140   1.599   7.218 -0.2504  0.1775  0.4358
  754POPS   C4A11402  18.119   1.386   7.627 -0.1523  0.0395  0.0532
  754POPS   C1B11403  18.596   2.316   6.553  0.0847  0.1142 -0.2231
  754POPS   C2B11404  18.619   2.400   6.978 -0.0168  0.2588  0.0180
  754POPS   C3B11405  18.834   2.631   7.357  0.4725 -0.0272  0.0868
  754POPS   C4B11406  18.973   2.645   7.752 -0.2408  0.0973  0.0929
  755POPS   CNO11407   6.876  12.731   5.281  0.0973  0.2035  0.1156
  755POPS   PO411408   7.055  12.876   5.529 -0.1941  0.0223  0.0225
  755POPS   GL111409   6.753  12.752   5.900  0.0868 -0.3215 -0.0610
  755POPS   GL211410   7.027  12.595   6.032  0.2501  0.2986 -0.0536
  755POPS   C1A11411   6.637  12.807   6.237  0.0269 -0.0456 -0.1077
  755POPS   D2A11412   6.818  12.747   6.687  0.0033 -0.2006 -0.0530
  755POPS   C3A11413   6.839  12.858   7.119 -0.1139 -0.1388  0.0764
  755POPS   C4A11414   6.673  13.247   7.373 -0.1054 -0.1443 -0.0242
  755POPS   C1B11415   7.183  12.551   6.420 -0.0097  0.1218  0.0448
  755POPS   C2B11416   7.476  12.661   6.702  0.0256 -0.1079 -0.2988
  755POPS   C3B11417   7.763  12.868   6.882 -0.1349  0.1433 -0.1046
  755POPS   C4B11418   7.976  13.198   6.965 -0.0868 -0.0814  0.2018
  756POPS   CNO11419  12.858   4.869   5.689 -0.3101  0.2408 -0.0913
  756POPS   PO411420  13.346   5.139   5.744  0.1510 -0.3153  0.0348
  756POPS   GL111421  13.078   5.051   6.130 -0.3254 -0.5151  0.2885
  756POPS   GL211422  12.794   5.184   6.139 -0.2645  0.0325  0.0303
  756POPS   C1A11423  12.783   4.718   6.309 -0.0955  0.0131  0.0003
  756POPS   D2A11424  12.552   4.415   6.472  0.0972 -0.2414 -0.1269
  756POPS   C3A11425  12.509   4.312   6.989  0.2227  0.4883 -0.0263
  756POPS   C4A11426  12.737   4.126   7.267 -0.1684 -0.1625 -0.0119
  756POPS   C1B11427  12.573   5.117   6.505 -0.2480 -0.1416 -0.1168
  756POPS   C2B11428  12.585   5.266   6.941  0.0870  0.0027 -0.1524
  756POPS   C3B11429  12.505   4.913   7.179 -0.1203 -0.1677 -0.1196
  756POPS   C4B11430  12.265   4.817   7.573  0.1218 -0.0281  0.1418
  757POPS   CNO11431  11.200   4.272   5.662  0.2865 -0.3152  0.2140
  757POPS   PO411432  10.955   3.980   5.721 -0.1563 -0.0444 -0.3192
  757POPS   GL111433  10.803   3.711   6.110  0.0838 -0.2957 -0.0217
  757POPS   GL211434  11.075   3.634   6.281  0.1039  0.2070 -0.0116
  757POPS   C1A11435  10.750   3.850   6.613 -0.4198 -0.0601 -0.2411
  757POPS   D2A11436  10.552   3.984   7.020  0.0015  0.1063  0.0777
  757POPS   C3A11437  10.163   4.092   7.050 -0.1319 -0.2186 -0.0682
  757POPS   C4A11438   9.894   4.393   7.104 -0.2460  0.0055  0.1068
  757POPS   C1B11439  11.253   3.745   6.620  0.2112 -0.0397 -0.1269
  757POPS   C2B11440  11.427   3.610   6.930 -0.2839 -0.0220  0.2670
  757POPS   C3B11441  11.589   3.255   6.811 -0.0119 -0.0328  0.1478
  757POPS   C4B11442  11.459   2.861   6.634 -0.1657 -0.3420  0.0687
  758POPS   CNO11443   7.203   9.127   5.766  0.1004 -0.1471 -0.0630
  758POPS   PO411444   7.552   8.940   5.696 -0.1789 -0.0461 -0.0330
  758POPS   GL111445   7.679   9.027   6.035 -0.1221  0.0215  0.0819
  758POPS   GL211446   8.033   9.127   6.064 -0.0665  0.2391 -0.0365
  758POPS   C1A11447   7.836   8.722   6.354  0.0430  0.0428 -0.0389
  758POPS   D2A11448   7.793   8.732   6.834  0.3247  0.1979 -0.0165
  758POPS   C3A11449   7.752   8.587   7.214  0.2264 -0.1625 -0.1643
  758POPS   C4A11450   7.553   8.567   7.621  0.0817 -0.5338  0.4419
  758POPS   C1B11451   7.926   9.260   6.449  0.4023 -0.4747  0.0026
  758POPS   C2B11452   7.902   9.294   6.817  0.2210 -0.1058  0.0666
  758POPS   C3B11453   7.685   9.103   7.095  0.0540 -0.2723 -0.1281
  758POPS   C4B11454   7.418   9.011   7.463  0.0731  0.2553 -0.1606
  759POPS   CNO11455   9.213   2.304   5.093 -0.1043  0.1747  0.1893
  759POPS   PO411456   9.220   2.575   5.402 -0.3175  0.1468 -0.3756
  759POPS   GL111457   9.089   2.604   5.809 -0.3909 -0.2221 -0.0415
  759POPS   GL211458   8.830   2.432   5.912  0.1492  0.0389  0.2163
  759POPS   C1A11459   9.104   2.679   6.241  0.1790  0.2213  0.0534
  759POPS   D2A11460   9.325   2.745   6.539  0.1262 -0.3161 -0.2438
  759POPS   C3A11461   9.631   2.990   6.334 -0.3432  0.1114 -0.0111
  759POPS   C4A11462   9.838   3.432   6.282 -0.1127  0.0528  0.0555
  759POPS   C1B11463   8.691   2.425   6.258  0.1302 -0.1260 -0.1275
  759POPS   C2B11464   8.748   2.466   6.636  0.0037  0.4480  0.0046
  759POPS   C3B11465   8.610   2.519   7.145 -0.1226  0.2213  0.0441
  759POPS   C4B11466   8.423   2.252   7.506 -0.3841 -0.1953  0.0878
  760POPS   CNO11467  18.512  13.332   5.762  0.1314 -0.0369  0.0624
  760POPS   PO411468  18.800  13.512   5.643 -0.0655 -0.1371  0.4077
  760POPS   GL111469  18.821  13.639   6.066 -0.0957 -0.1945 -0.0326
  760POPS   GL211470  18.694  13.378   6.248  0.0010  0.1174 -0.1663
  760POPS   C1A11471  18.711  13.792   6.575 -0.0203 -0.1976  0.0775
  760POPS   D2A11472  18.388  14.075   6.781 -0.0007 -0.0033 -0.3656
  760POPS   C3A11473  18.517  14.338   7.105  0.2318 -0.2869 -0.0930
  760POPS   C4A11474  18.588  14.290   7.590 -0.2454 -0.1644  0.1995
  760POPS   C1B11475  18.790  13.316   6.695 -0.0991  0.1025  0.1484
  760POPS   C2B11476  18.926  13.190   7.081 -0.1489  0.0730 -0.0235
  760POPS   C3B11477  18.987  13.064   7.512  0.0849  0.0423 -0.3950
  760POPS   C4B11478  18.916  12.769   7.845 -0.2086  0.2483  0.3396
  761POPS   CNO11479  16.028   0.663   5.350 -0.1258 -0.3297  0.5729
  761POPS   PO411480  16.073   0.767   5.726  0.0608 -0.0926  0.0935
  761POPS   GL111481  15.858   0.719   6.104 -0.1252 -0.0591  0.0652
  761POPS   GL211482  15.674   1.066   6.142  0.3621  0.3933  0.0496
  761POPS   C1A11483  15.776   0.544   6.557 -0.1107 -0.0242  0.1604
  761POPS   D2A11484  15.388   0.379   6.787 -0.3542  0.2652  0.1700
  761POPS   C3A11485  15.298   0.544   7.198 -0.0862 -0.1633  0.0226
  761POPS   C4A11486  15.104   0.304   7.357 -0.0239  0.1689 -0.1239
  761POPS   C1B11487  15.707   1.403   6.478 -0.1820  0.1412 -0.1666
  761POPS   C2B11488  15.868   1.749   6.806  0.1127  0.0940  0.3418
  761POPS   C3B11489  16.179   2.051   6.905  0.1426  0.4497 -0.1090
  761POPS   C4B11490  16.384   2.426   6.900 -0.1867 -0.0122  0.1063
  762POPS   CNO11491  11.623   9.371   5.783  0.1045 -0.3363 -0.0142
  762POPS   PO411492  11.186   9.525   5.700 -0.4973 -0.0723 -0.2332
  762POPS   GL111493  11.245   9.257   6.142  0.2353 -0.2996  0.4149
  762POPS   GL211494  11.525   9.365   6.423 -0.2529 -0.0539 -0.1282
  762POPS   C1A11495  11.081   9.181   6.570 -0.1325 -0.0166 -0.0180
  762POPS   D2A11496  11.364   8.980   6.790  0.5006  0.2044 -0.0797
  762POPS   C3A11497  11.258   9.055   7.069  0.1730  0.2575 -0.0811
  762POPS   C4A11498  11.071   9.134   7.394  0.2479 -0.1474 -0.1074
  762POPS   C1B11499  11.732   9.374   6.857 -0.0043 -0.4994  0.2057
  762POPS   C2B11500  11.653   9.318   7.278 -0.3418 -0.0299 -0.2975
  762POPS   C3B11501  11.816   9.285   7.752 -0.0445 -0.1627 -0.0140
  762POPS   C4B11502  11.734   9.443   8.131 -0.0062  0.1380  0.2699
  763POPS   CNO11503   5.964  10.239   5.538  0.3266  0.2632  0.0952
  763POPS   PO411504   5.693  10.652   5.491  0.1786  0.0200 -0.4970
  763POPS   GL111505   5.695  10.842   5.891 -0.2482  0.0024  0.3661
  763POPS   GL211506   5.619  11.083   5.792  0.3846  0.2932  0.2957
  763POPS   C1A11507   5.539  10.640   6.229 -0.1012  0.0352  0.2846
  763POPS   D2A11508   5.199  10.624   6.453  0.0563  0.2950  0.0818
  763POPS   C3A11509   5.147  10.253   6.717 -0.1922  0.0698 -0.3105
  763POPS   C4A11510   5.383   9.845   6.813  0.1788 -0.0196  0.1708
  763POPS   C1B11511   5.544  11.179   6.196 -0.0594  0.0921 -0.2058
  763POPS   C2B11512   5.386  11.016   6.593  0.1641  0.0065  0.0042
  763POPS   C3B11513   5.181  11.112   6.955 -0.2036 -0.1663 -0.0540
  763POPS   C4B11514   5.141  11.013   7.258  0.3071 -0.2176 -0.0329
  764POPS   CNO11515  10.422  10.311   5.640 -0.1715  0.1880  0.1397
  764POPS   PO411516  10.228  10.446   5.994 -0.2438 -0.0985  0.1812
  764POPS   GL111517  10.404  10.321   6.372  0.0479 -0.2239 -0.2168
  764POPS   GL211518  10.684  10.220   6.386 -0.3185  0.0130 -0.0888
  764POPS   C1A11519  10.241  10.561   6.773  0.0722 -0.1760  0.5438
  764POPS   D2A11520  10.316  10.770   7.085 -0.3400 -0.0843  0.1957
  764POPS   C3A11521  10.329  10.575   7.472 -0.1063 -0.1238  0.0228
  764POPS   C4A11522  10.300  10.665   7.878 -0.1647  0.1332  0.1113
  764POPS   C1B11523  10.899  10.375   6.672  0.1018 -0.0669 -0.0908
  764POPS   C2B11524  10.774  10.474   7.051  0.0708 -0.0656 -0.1513
  764POPS   C3B11525  10.843  10.641   7.361 -0.0888  0.0464 -0.1288
  764POPS   C4B11526  10.876  10.965   7.747  0.0819  0.2118  0.0482
  765POPS   CNO11527  11.762  13.020   5.374 -0.0898  0.0067  0.1997
  765POPS   PO411528  11.573  12.979   5.835 -0.1631  0.1044 -0.0379
  765POPS   GL111529  11.481  12.999   6.235  0.2611  0.1324  0.4464
  765POPS   GL211530  11.481  13.332   6.386  0.3545  0.0642 -0.0515
  765POPS   C1A11531  11.702  12.990   6.646  0.1012  0.0757 -0.0602
  765POPS   D2A11532  11.907  13.018   7.072  0.0238  0.3414  0.2424
  765POPS   C3A11533  12.234  12.910   7.216 -0.0877  0.3477  0.0795
  765POPS   C4A11534  12.394  13.022   7.623 -0.0521 -0.1833  0.0632
  765POPS   C1B11535  11.597  13.553   6.815 -0.1574 -0.2040  0.0522
  765POPS   C2B11536  11.714  13.483   7.174  0.0309  0.0573 -0.0196
  765POPS   C3B11537  11.880  13.249   7.534 -0.1470  0.0784 -0.1612
  765POPS   C4B11538  11.879  12.852   7.607  0.1070 -0.1956 -0.1106
  766POPS   CNO11539   5.663   7.785   4.965 -0.1213 -0.1015 -0.0674
  766POPS   PO411540   5.395   7.682   5.291 -0.2889  0.0495  0.1088
  766POPS   GL111541   5.151   7.403   5.673  0.1999 -0.1293  0.2111
  766POPS   GL211542   4.818   7.574   5.645 -0.0711 -0.4681  0.1307
  766POPS   C1A11543   5.017   7.454   6.090 -0.0396 -0.1748 -0.0372
  766POPS   D2A11544   5.003   7.730   6.428 -0.1606 -0.1090 -0.2911
  766POPS   C3A11545   5.000   7.537   6.797  0.4137 -0.1023 -0.1838
  766POPS   C4A11546   4.911   7.595   7.224  0.1146  0.4614  0.0121
  766POPS   C1B11547   4.481   7.610   6.014 -0.0432 -0.1679 -0.1355
  766POPS   C2B11548   4.479   7.754   6.445  0.0100  0.1576 -0.0460
  766POPS   C3B11549   4.394   7.664   6.865  0.3059 -0.0418  0.3211
  766POPS   C4B11550   4.473   7.953   7.255 -0.2020 -0.0076  0.1728
  767POPS   CNO11551  11.224   5.703   5.567  0.1903 -0.0165 -0.2532
  767POPS   PO411552  11.582   5.838   5.739  0.0516 -0.2262  0.3050
  767POPS   GL111553  11.471   5.787   6.090  0.1304 -0.1244  0.2420
  767POPS   GL211554  11.600   5.524   6.185 -0.0179  0.0309  0.4790
  767POPS   C1A11555  11.492   5.972   6.481  0.0130  0.2208 -0.1922
  767POPS   D2A11556  11.601   5.713   6.748  0.2117  0.4348  0.0965
  767POPS   C3A11557  11.550   5.907   7.177 -0.1715  0.0678  0.0236
  767POPS   C4A11558  11.470   6.006   7.618 -0.0058  0.3912 -0.0328
  767POPS   C1B11559  11.165   5.470   6.368 -0.2165  0.2376  0.1729
  767POPS   C2B11560  10.938   5.509   6.753  0.1400  0.1591  0.0236
  767POPS   C3B11561  10.777   5.160   6.916  0.1890  0.3482  0.0618
  767POPS   C4B11562  10.879   4.771   7.019  0.1013 -0.1652 -0.1368
  768POPS   CNO11563   3.729  17.931   5.005 -0.2722  0.0836  0.1448
  768POPS   PO411564   3.573  17.569   5.306  0.0047  0.1978 -0.1396
  768POPS   GL111565   3.556  17.681   5.719  0.0625  0.1918  0.0364
  768POPS   GL211566   3.760  17.632   5.872 -0.3439  0.1872  0.0461
  768POPS   C1A11567   3.402  18.000   6.015 -0.1142  0.0685 -0.4034
  768POPS   D2A11568   3.316  18.196   6.424 -0.4155 -0.3635  0.0851
  768POPS   C3A11569   3.138  18.099   6.804 -0.0014  0.4083 -0.1635
  768POPS   C4A11570   3.305  17.998   7.252  0.0954  0.0411  0.0065
  768POPS   C1B11571   3.892  17.771   6.208  0.0933 -0.0151 -0.2798
  768POPS   C2B11572   3.640  17.876   6.625 -0.2339 -0.0800  0.0731
  768POPS   C3B11573   3.775  17.903   7.054 -0.0620  0.1080  0.3343
  768POPS   C4B11574   3.812  18.084   7.531 -0.3308 -0.0202  0.1256
  769POPS   CNO11575  11.667   5.053   5.683 -0.3685  0.3585 -0.3219
  769POPS   PO411576  11.554   4.725   5.718  0.0241  0.0500  0.0498
  769POPS   GL111577  11.391   4.588   6.068 -0.1723  0.0512  0.3847
  769POPS   GL211578  10.973   4.496   6.110 -0.0300 -0.1602  0.5656
  769POPS   C1A11579  11.328   4.617   6.568  0.1488  0.2613  0.1567
  769POPS   D2A11580  11.352   4.559   7.024  0.3695 -0.2245 -0.0179
  769POPS   C3A11581  11.656   4.367   7.238  0.2025  0.0008 -0.0766
  769POPS   C4A11582  11.803   4.530   7.594  0.1576  0.2324 -0.0033
  769POPS   C1B11583  11.112   4.199   6.372  0.0390  0.1389  0.0123
  769POPS   C2B11584  10.965   4.268   6.842 -0.1483 -0.2590  0.1525
  769POPS   C3B11585  10.690   4.415   7.247  0.1497  0.3815 -0.0953
  769POPS   C4B11586  10.290   4.535   7.440 -0.1758  0.1559  0.3570
  770POPS   CNO11587   4.622  15.973   5.238 -0.1027  0.0462  0.2976
  770POPS   PO411588   4.803  15.767   5.555 -0.0479 -0.1694 -0.0266
  770POPS   GL111589   4.833  16.019   5.952  0.3011  0.2789 -0.0536
  770POPS   GL211590   4.486  16.107   6.079  0.0264 -0.1192 -0.1883
  770POPS   C1A11591   5.188  16.090   6.213  0.1169  0.0621 -0.1992
  770POPS   D2A11592   5.555  16.179   6.483 -0.2877 -0.1390 -0.0094
  770POPS   C3A11593   5.883  16.497   6.511 -0.1221 -0.0500  0.0516
  770POPS   C4A11594   6.049  16.611   6.826 -0.1794  0.0374  0.0059
  770POPS   C1B11595   4.581  16.300   6.491  0.0899  0.1287 -0.0326
  770POPS   C2B11596   4.636  16.615   6.718  0.3640  0.1430  0.0969
  770POPS   C3B11597   4.763  16.935   7.046  0.1803 -0.0460  0.0323
  770POPS   C4B11598   4.982  17.142   7.332 -0.0353  0.0034  0.0660
  771YOPS   CNO11599   9.196  17.605   5.077  0.2054  0.1634  0.1991
  771YOPS   PO411600   9.435  18.063   5.057  0.0928 -0.4246  0.2337
  771YOPS   GL111601   9.513  17.972   5.449  0.0779  0.1484 -0.0649
  771YOPS   GL211602   9.267  17.703   5.587  0.1139 -0.4036  0.0362
  771YOPS   C1A11603   9.460  18.297   5.835  0.2105  0.2830 -0.0151
  771YOPS   D2A11604   9.374  18.274   6.207  0.1725 -0.0934 -0.1368
  771YOPS   C3A11605   9.202  18.270   6.596  0.0709  0.0074  0.2885
  771YOPS   C4A11606   9.131  17.908   6.821 -0.2205  0.2790 -0.0429
  771YOPS   C1B11607   9.298  17.469   5.837 -0.0068  0.6210  0.0780
  771YOPS   C2B11608   9.083  17.237   6.191 -0.1197  0.0074 -0.2649
  771YOPS   D3B11609   9.179  17.402   6.702 -0.2937 -0.0692  0.0367
  771YOPS   C4B11610   9.348  17.012   6.867  0.0429 -0.0627  0.0053
  772YOPS   CNO11611   4.033   2.727   4.616 -0.0474  0.0149 -0.0802
  772YOPS   PO411612   3.972   2.534   5.157 -0.2092 -0.1900  0.0420
  772YOPS   GL111613   3.785   2.648   5.574 -0.0482  0.1483  0.0422
  772YOPS   GL211614   4.074   2.669   5.678 -0.3942 -0.2041  0.0548
  772YOPS   C1A11615   3.605   2.654   6.028 -0.1485  0.1895 -0.3109
  772YOPS   D2A11616   3.577   2.747   6.471  0.1600  0.1601  0.0783
  772YOPS   C3A11617   3.362   2.898   6.872 -0.2612  0.2784 -0.0107
  772YOPS   C4A11618   3.440   3.313   6.886 -0.5443  0.0960  0.1285
  772YOPS   C1B11619   4.374   2.562   5.970 -0.1131 -0.1150 -0.0747
  772YOPS   C2B11620   4.512   2.516   6.359 -0.0256 -0.1598 -0.3845
  772YOPS   D3B11621   4.417   2.306   6.721 -0.0412 -0.0433 -0.0797
  772YOPS   C4B11622   4.251   1.912   6.765 -0.2201 -0.0340 -0.1601
  773YOPS   CNO11623  15.283   7.543   5.933  0.0095  0.0485  0.1248
  773YOPS   PO411624  14.954   7.723   6.169 -0.6701  0.1740 -0.1499
  773YOPS   GL111625  15.092   7.402   6.460  0.0535 -0.2695 -0.0525
  773YOPS   GL211626  14.846   7.106   6.540  0.0407  0.1967 -0.2176
  773YOPS   C1A11627  15.215   7.196   6.876 -0.1227  0.0793 -0.1929
  773YOPS   D2A11628  15.234   7.156   7.214  0.1237 -0.1749 -0.1603
  773YOPS   C3A11629  15.260   6.960   7.610  0.1405 -0.0879  0.3474
  773YOPS   C4A11630  15.680   6.869   7.730  0.1816  0.5410  0.3603
  773YOPS   C1B11631  14.842   6.854   7.024 -0.2899  0.1779  0.2668
  773YOPS   C2B11632  14.727   6.794   7.457  0.2509 -0.0975 -0.1277
  773YOPS   D3B11633  14.517   6.862   7.784 -0.0414  0.0547 -0.1862
  773YOPS   C4B11634  14.528   7.059   8.089 -0.0046 -0.1351 -0.1742
  774YOPS   CNO11635  16.391   5.902   6.297 -0.0300 -0.0034  0.1823
  774YOPS   PO411636  16.352   6.033   5.892 -0.3210  0.2729  0.1858
  774YOPS   GL111637  16.394   6.383   6.188 -0.1004 -0.0295 -0.0736
  774YOPS   GL211638  16.113   6.686   6.156 -0.3864  0.1200 -0.3366
  774YOPS   C1A11639  16.396   6.559   6.586  0.2748 -0.1034  0.1934
  774YOPS   D2A11640  16.375   6.483   7.021  0.0063  0.1758  0.1917
  774YOPS   C3A11641  16.318   6.301   7.376 -0.0046 -0.1552  0.2182
  774YOPS   C4A11642  16.149   6.668   7.706 -0.0517  0.1236  0.0632
  774YOPS   C1B11643  15.889   6.441   6.350 -0.0614  0.2263 -0.2119
  774YOPS   C2B11644  15.550   6.362   6.563 -0.2156  0.1280  0.0518
  774YOPS   D3B11645  15.383   6.259   7.006  0.0302  0.1236  0.0658
  774YOPS   C4B11646  15.023   6.331   6.995  0.0863 -0.0630 -0.0410
  775YOPS   CNO11647  11.275   6.680   5.748 -0.0425  0.1626  0.2979
  775YOPS   PO411648  11.333   6.627   6.229  0.0284  0.1125 -0.3236
  775YOPS   GL111649  11.320   6.520   6.632 -0.1378  0.1766  0.0028
  775YOPS   GL211650  10.973   6.510   6.723 -0.1871 -0.0019  0.1500
  775YOPS   C1A11651  11.387   6.411   7.064 -0.1402  0.2062  0.1090
  775YOPS   D2A11652  11.491   6.420   7.391  0.0232  0.1482 -0.2610
  775YOPS   C3A11653  11.578   6.438   7.741  0.0775 -0.0096  0.3317
  775YOPS   C4A11654  11.697   6.849   8.100  0.0556 -0.0908 -0.0129
  775YOPS   C1B11655  10.867   6.362   7.068 -0.1510 -0.0897  0.1189
  775YOPS   C2B11656  11.012   6.208   7.402  0.0665 -0.2859  0.2310
  775YOPS   D3B11657  10.731   5.966   7.661 -0.0584  0.0171  0.1780
  775YOPS   C4B11658  10.541   5.579   7.653 -0.0429 -0.0065  0.0147
  776YOPS   CNO11659   0.458  18.483   5.911 -0.0892  0.0438  0.0045
  776YOPS   PO411660   0.901  18.420   5.874 -0.0268 -0.2120  0.4879
  776YOPS   GL111661   1.068  18.179   6.242  0.1724 -0.0402 -0.0735
  776YOPS   GL211662   0.680  18.107   6.174 -0.1081 -0.2100  0.0918
  776YOPS   C1A11663   1.156  17.972   6.614 -0.1344 -0.0118 -0.1442
  776YOPS   D2A11664   1.402  17.666   6.931 -0.4047 -0.0431  0.0608
  776YOPS   C3A11665   1.315  17.621   7.391 -0.0617 -0.2078 -0.1989
  776YOPS   C4A11666   1.653  17.624   7.646 -0.1988  0.1463 -0.1064
  776YOPS   C1B11667   0.712  18.255   6.626  0.2774  0.2163  0.2595
  776YOPS   C2B11668   0.866  18.320   7.086  0.1631  0.1195  0.1218
  776YOPS   D3B11669   0.993  18.468   7.465 -0.0915 -0.2459 -0.2549
  776YOPS   C4B11670   1.217  18.758   7.823 -0.1761  0.0909  0.2085
  777YOPS   CNO11671  17.658  12.341   5.857 -0.0440  0.1896 -0.1400
  777YOPS   PO411672  17.476  12.050   6.062 -0.0444 -0.0496  0.1200
  777YOPS   GL111673  17.464  11.832   6.462  0.0358  0.0974  0.1077
  777YOPS   GL211674  17.218  11.754   6.591 -0.1485 -0.0293  0.3336
  777YOPS   C1A11675  17.856  11.632   6.711  0.0819  0.1344  0.1304
  777YOPS   D2A11676  18.045  11.530   7.057  0.0285  0.1112 -0.0118
  777YOPS   C3A11677  18.145  11.357   7.491  0.2017 -0.0841  0.1104
  777YOPS   C4A11678  18.428  11.044   7.525  0.0630 -0.2626  0.1029
  777YOPS   C1B11679  17.248  11.574   6.981  0.1326  0.0228 -0.0427
  777YOPS   C2B11680  17.192  11.458   7.478 -0.0201  0.2566 -0.2281
  777YOPS   D3B11681  17.280  11.352   7.913 -0.2680  0.0434  0.2573
  777YOPS   C4B11682  17.253  11.616   8.268  0.3000  0.0582  0.0298
  778YOPS   CNO11683  10.967   8.080   5.685  0.1059 -0.0606 -0.0627
  778YOPS   PO411684  11.125   8.248   6.002 -0.0012 -0.0720 -0.4092
  778YOPS   GL111685  10.796   8.310   6.213  0.1928  0.2150 -0.0002
  778YOPS   GL211686  10.614   7.994   6.133  0.0161  0.0522  0.2731
  778YOPS   C1A11687  10.515   8.371   6.549  0.4645  0.2307  0.0091
  778YOPS   D2A11688  10.315   8.369   6.981  0.2790 -0.0647 -0.1014
  778YOPS   C3A11689  10.248   8.611   7.411  0.2194 -0.0989  0.1027
  778YOPS   C4A11690  10.020   9.037   7.455 -0.2102  0.0151  0.0742
  778YOPS   C1B11691  10.709   7.858   6.570  0.0103 -0.1343  0.2379
  778YOPS   C2B11692  10.598   7.905   6.842  0.0805 -0.2910 -0.3156
  778YOPS   D3B11693  10.576   7.860   7.335 -0.1062 -0.2570 -0.4084
  778YOPS   C4B11694  10.433   7.497   7.576  0.1835 -0.0832 -0.0564
  779YOPS   CNO11695  13.868   3.366   5.531  0.0579  0.0430 -0.4765
  779YOPS   PO411696  14.094   3.761   5.492 -0.2042  0.0675  0.3019
  779YOPS   GL111697  14.251   3.545   5.819  0.1044 -0.1091 -0.2244
  779YOPS   GL211698  13.996   3.521   6.107  0.2885 -0.0034 -0.0505
  779YOPS   C1A11699  14.461   3.676   6.142 -0.2395 -0.2708 -0.3381
  779YOPS   D2A11700  14.672   3.799   6.485  0.0429 -0.0621 -0.0701
  779YOPS   C3A11701  14.845   4.161   6.623 -0.1213 -0.2068 -0.3216
  779YOPS   C4A11702  15.010   4.286   6.909 -0.0346  0.2137 -0.1540
  779YOPS   C1B11703  14.219   3.350   6.381  0.1945 -0.1755  0.1370
  779YOPS   C2B11704  14.597   3.329   6.580  0.0185  0.1148  0.1340
  779YOPS   D3B11705  14.907   3.498   6.753 -0.2342  0.0329  0.2673
  779YOPS   C4B11706  15.194   3.794   7.040  0.1753  0.1176 -0.1459
  780YOPS   CNO11707  16.421  13.059   5.792  0.2408  0.0822  0.1204
  780YOPS   PO411708  16.576  12.644   5.968 -0.1042  0.0288 -0.1709
  780YOPS   GL111709  16.716  12.539   6.388  0.1115  0.0351  0.0632
  780YOPS   GL211710  16.516  12.582   6.600  0.1207 -0.1843  0.2751
  780YOPS   C1A11711  16.980  12.555   6.805 -0.0645  0.0409  0.1965
  780YOPS   D2A11712  17.059  12.570   7.245 -0.4973 -0.1377 -0.0592
  780YOPS   C3A11713  17.397  12.394   7.453 -0.0603  0.1565  0.1966
  780YOPS   C4A11714  17.805  12.304   7.420  0.2253  0.2470  0.1625
  780YOPS   C1B11715  16.591  12.876   6.943 -0.1389 -0.3008 -0.0075
  780YOPS   C2B11716  16.619  12.861   7.389 -0.0790 -0.3040  0.3681
  780YOPS   D3B11717  16.583  12.680   7.783  0.1206 -0.1869 -0.1016
  780YOPS   C4B11718  16.624  12.954   8.229 -0.0631  0.0408  0.1600
  781YOPS   CNO11719   7.501   6.540   5.677 -0.1895  0.1656  0.1132
  781YOPS   PO411720   7.051   6.506   5.771 -0.1441 -0.1392 -0.1721
  781YOPS   GL111721   7.107   6.305   6.139 -0.0160  0.1874  0.6409
  781YOPS   GL211722   6.710   6.105   6.169 -0.0054 -0.1669 -0.1380
  781YOPS   C1A11723   7.150   6.051   6.447  0.0155 -0.2483 -0.0121
  781YOPS   D2A11724   7.218   5.991   6.870  0.1907 -0.2687 -0.1993
  781YOPS   C3A11725   7.131   5.887   7.391 -0.1117  0.1259  0.2033
  781YOPS   C4A11726   7.358   5.886   7.770 -0.0001 -0.1023  0.2495
  781YOPS   C1B11727   6.717   5.757   6.534  0.1210  0.0816  0.1133
  781YOPS   C2B11728   6.659   5.606   6.877  0.0807 -0.4236 -0.1849
  781YOPS   D3B11729   6.598   5.174   7.081 -0.3355 -0.2207  0.0292
  781YOPS   C4B11730   6.267   4.938   7.238  0.1248 -0.0297 -0.1414
  782YOPS   CNO11731  10.516   9.901   6.008  0.1640 -0.1660  0.2923
  782YOPS   PO411732  10.236   9.556   5.985  0.0982 -0.1663 -0.0346
  782YOPS   GL111733  10.076   9.648   6.429 -0.2008 -0.3890 -0.0756
  782YOPS   GL211734  10.056   9.943   6.486 -0.0075 -0.0156 -0.0156
  782YOPS   C1A11735  10.107   9.457   6.834  0.3020 -0.1400  0.0297
  782YOPS   D2A11736  10.218   9.469   7.254  0.1340  0.0121 -0.1695
  782YOPS   C3A11737  10.660   9.552   7.403  0.1324  0.2846 -0.1152
  782YOPS   C4A11738  10.830   9.385   7.027 -0.0439  0.1503 -0.3846
  782YOPS   C1B11739   9.831  10.241   6.798 -0.0417 -0.2747  0.3326
  782YOPS   C2B11740   9.896  10.472   7.242 -0.2936  0.1785  0.0344
  782YOPS   D3B11741   9.974  10.905   7.342 -0.0929 -0.0296  0.1471
  782YOPS   C4B11742   9.840  11.118   7.803 -0.2476 -0.2309 -0.0582
  783YOPS   CNO11743  17.781  10.092   5.223  0.1017  0.1603 -0.2511
  783YOPS   PO411744  17.566  10.133   5.576 -0.3884 -0.4367  0.0265
  783YOPS   GL111745  17.531  10.098   6.048 -0.1068  0.0650 -0.2065
  783YOPS   GL211746  17.577   9.782   6.206  0.1114  0.1374 -0.0377
  783YOPS   C1A11747  17.682  10.150   6.524  0.0465  0.2163 -0.0155
  783YOPS   D2A11748  17.697  10.042   6.958 -0.1832  0.0347 -0.0940
  783YOPS   C3A11749  17.641  10.175   7.445  0.1422 -0.1556  0.1090
  783YOPS   C4A11750  17.539  10.577   7.627  0.1569  0.3298 -0.1634
  783YOPS   C1B11751  17.323   9.553   6.549  0.2939 -0.0022  0.0513
  783YOPS   C2B11752  17.200   9.381   6.948 -0.0285  0.1547  0.0825
  783YOPS   D3B11753  17.151   9.483   7.321  0.0709 -0.1992 -0.2648
  783YOPS   C4B11754  17.541   9.628   7.505 -0.0295 -0.1257  0.0130
  784YOPS   CNO11755  13.852   4.286   5.052 -0.2164  0.2900  0.3588
  784YOPS   PO411756  13.812   4.393   5.482  0.1431 -0.3316 -0.0690
  784YOPS   GL111757  13.693   4.476   5.904 -0.2004 -0.2166 -0.0733
  784YOPS   GL211758  13.483   4.743   5.994 -0.1077  0.1577 -0.0553
  784YOPS   C1A11759  13.467   4.222   6.174 -0.0310 -0.1055 -0.1583
  784YOPS   D2A11760  13.039   4.169   6.332  0.2856 -0.1943 -0.0396
  784YOPS   C3A11761  12.762   3.924   6.398 -0.2821 -0.3453 -0.1768
  784YOPS   C4A11762  12.546   3.799   6.791 -0.0232 -0.0257 -0.1065
  784YOPS   C1B11763  13.351   4.674   6.430 -0.3967  0.0281  0.2853
  784YOPS   C2B11764  13.244   4.456   6.741 -0.2347 -0.1764  0.3434
  784YOPS   D3B11765  12.958   4.282   6.788 -0.0145  0.0430 -0.2221
  784YOPS   C4B11766  12.987   3.862   6.975 -0.0300  0.4223  0.2477
  785YOPS   CNO11767   2.327   6.985   5.177 -0.1731  0.1397 -0.3835
  785YOPS   PO411768   2.211   6.982   5.555 -0.0523  0.1923 -0.2516
  785YOPS   GL111769   2.109   7.099   5.971 -0.1033 -0.1914  0.2492
  785YOPS   GL211770   2.377   7.269   6.037  0.1200  0.4478  0.0246
  785YOPS   C1A11771   2.161   7.063   6.451  0.3356  0.0015 -0.1061
  785YOPS   D2A11772   2.063   7.167   6.865 -0.3047 -0.4418  0.0374
  785YOPS   C3A11773   2.037   7.460   7.231  0.0950  0.1186 -0.2304
  785YOPS   C4A11774   1.997   7.328   7.535 -0.2253 -0.1024 -0.2961
  785YOPS   C1B11775   2.462   7.590   6.313  0.2173 -0.0659 -0.0910
  785YOPS   C2B11776   2.434   7.719   6.791 -0.2493  0.0221  0.4648
  785YOPS   D3B11777   2.424   7.828   7.222  0.1653 -0.2272 -0.1677
  785YOPS   C4B11778   2.484   7.468   7.481 -0.2811 -0.1658 -0.0097
  786YOPS   CNO11779   7.729   2.769   4.881 -0.3804  0.0840  0.1743
  786YOPS   PO411780   7.858   2.760   5.321 -0.0664  0.1896  0.1763
  786YOPS   GL111781   7.686   2.664   5.677 -0.0995  0.0519  0.4533
  786YOPS   GL211782   7.681   2.920   5.821  0.0642  0.1050 -0.0408
  786YOPS   C1A11783   7.679   2.301   5.969 -0.1873  0.2232 -0.3693
  786YOPS   D2A11784   7.522   2.234   6.391  0.0438  0.1369 -0.1364
  786YOPS   C3A11785   7.457   2.164   6.804  0.1744  0.2529  0.2818
  786YOPS   C4A11786   7.096   1.982   6.892  0.0919  0.2865  0.4822
  786YOPS   C1B11787   7.930   3.018   6.200  0.1924 -0.1025 -0.0433
  786YOPS   C2B11788   7.558   2.780   6.319 -0.0838 -0.0248 -0.0135
  786YOPS   D3B11789   7.215   3.037   6.641 -0.3969 -0.5977  0.0032
  786YOPS   C4B11790   7.341   3.517   6.782  0.2158  0.1665 -0.2357
  787YOPS   CNO11791   4.503   5.196   5.604 -0.0597  0.0399  0.0858
  787YOPS   PO411792   4.111   5.169   5.528 -0.0574  0.0424  0.1466
  787YOPS   GL111793   4.067   4.905   5.891 -0.1687  0.0125  0.0436
  787YOPS   GL211794   3.849   4.607   5.957 -0.1828 -0.0822  0.2580
  787YOPS   C1A11795   4.047   5.023   6.339 -0.1735 -0.0157 -0.3080
  787YOPS   D2A11796   3.763   5.006   6.668 -0.1994 -0.2125  0.1516
  787YOPS   C3A11797   3.544   5.451   6.880  0.2549  0.1282  0.2099
  787YOPS   C4A11798   3.555   5.526   7.346  0.0335  0.2907  0.0297
  787YOPS   C1B11799   3.855   4.573   6.413  0.0666  0.4029 -0.2467
  787YOPS   C2B11800   4.088   4.620   6.792  0.1289 -0.0592 -0.1858
  787YOPS   D3B11801   4.192   4.667   7.094  0.0596 -0.0234  0.0403
  787YOPS   C4B11802   3.825   4.977   7.272  0.0647  0.0717 -0.0474
  788YOPS   CNO11803  13.985  15.849   5.305  0.0856 -0.1927 -0.0399
  788YOPS   PO411804  14.274  16.052   5.616  0.0152 -0.2667 -0.1372
  788YOPS   GL111805  14.128  16.214   6.066  0.1359 -0.3595  0.0681
  788YOPS   GL211806  14.046  16.512   6.199  0.0687  0.0103 -0.2830
  788YOPS   C1A11807  14.232  16.031   6.387 -0.0189  0.2332  0.0342
  788YOPS   D2A11808  14.339  15.948   6.740  0.1189  0.0877 -0.1395
  788YOPS   C3A11809  14.402  15.905   7.172  0.2130  0.0716  0.0164
  788YOPS   C4A11810  14.458  16.178   7.396 -0.3334  0.0974  0.0405
  788YOPS   C1B11811  14.449  16.543   6.327  0.1794  0.2024  0.1517
  788YOPS   C2B11812  14.619  16.688   6.704 -0.0255 -0.3355 -0.0408
  788YOPS   D3B11813  14.507  17.007   6.936 -0.2621  0.1606 -0.1685
  788YOPS   C4B11814  14.133  16.958   7.353  0.1150 -0.0780 -0.2536
  789YOPS   CNO11815   2.060  13.921   5.124  0.0161 -0.1986  0.0281
  789YOPS   PO411816   1.847  13.955   5.401 -0.4021 -0.1707  0.0930
  789YOPS   GL111817   1.862  14.017   5.802 -0.0577  0.2905 -0.1074
  789YOPS   GL211818   2.179  13.937   5.966  0.0984 -0.1710 -0.0062
  789YOPS   C1A11819   1.800  13.733   6.216 -0.0835  0.3776 -0.0575
  789YOPS   D2A11820   1.971  13.503   6.535  0.1699 -0.1735  0.0410
  789YOPS   C3A11821   1.874  13.082   6.834 -0.2117 -0.2453  0.0904
  789YOPS   C4A11822   1.727  13.147   7.242  0.1696 -0.1231  0.0401
  789YOPS   C1B11823   2.056  14.286   6.221 -0.3140  0.0575 -0.0260
  789YOPS   C2B11824   2.185  14.481   6.599  0.0319 -0.2656 -0.1336
  789YOPS   D3B11825   2.093  14.200   7.020  0.0133  0.0523  0.0485
  789YOPS   C4B11826   1.923  13.736   7.030  0.1248 -0.0628  0.4200
  790YOPS   CNO11827  18.178   9.796   5.428 -0.0218 -0.3192 -0.2197
  790YOPS   PO411828  18.492   9.487   5.596  0.1084 -0.2626  0.2532
  790YOPS   GL111829  18.320   9.571   5.993  0.1253 -0.0294 -0.3377
  790YOPS   GL211830  18.321   9.240   6.081 -0.1678  0.1232 -0.2155
  790YOPS   C1A11831  18.496   9.502   6.490 -0.0401  0.2456  0.0097
  790YOPS   D2A11832  18.223   9.422   6.879 -0.0211 -0.0625  0.4518
  790YOPS   C3A11833  18.101   9.659   7.292 -0.0710 -0.3559  0.0054
  790YOPS   C4A11834  18.404   9.692   7.681  0.0092 -0.0363 -0.1205
  790YOPS   C1B11835  18.742   9.140   6.291 -0.1116  0.2386  0.0813
  790YOPS   C2B11836  19.037   9.310   6.400 -0.1199  0.0409  0.0236
  790YOPS   D3B11837  19.196   9.443   6.832  0.0522 -0.0948  0.2526
  790YOPS   C4B11838  19.174   9.266   7.244 -0.2566 -0.2433 -0.0743
  791YOPS   CNO11839  13.697   5.745   6.092 -0.0327 -0.0843 -0.0851
  791YOPS   PO411840  13.279   5.566   5.952 -0.1455  0.0257 -0.3139
  791YOPS   GL111841  13.209   5.525   6.296 -0.1209 -0.1120 -0.3165
  791YOPS   GL211842  13.424   5.762   6.510 -0.5099 -0.1458  0.0629
  791YOPS   C1A11843  12.990   5.292   6.698  0.2211  0.0378  0.1947
  791YOPS   D2A11844  12.869   4.815   6.857  0.2822  0.1680  0.0345
  791YOPS   C3A11845  12.971   4.584   7.158  0.0020 -0.0822 -0.3311
  791YOPS   C4A11846  12.729   4.572   7.531 -0.0218  0.1494 -0.4276
  791YOPS   C1B11847  13.244   5.704   6.822 -0.0000  0.0804 -0.1818
  791YOPS   C2B11848  13.200   5.368   7.164 -0.1968  0.0428  0.2393
  791YOPS   D3B11849  12.915   5.110   7.335  0.0284 -0.1261  0.1450
  791YOPS   C4B11850  12.696   5.240   7.684 -0.0402  0.0285 -0.0261
  792YOPS   CNO11851  17.607   3.813   5.117 -0.0063 -0.0251 -0.0155
  792YOPS   PO411852  17.149   3.868   5.219 -0.2502 -0.1198 -0.1673
  792YOPS   GL111853  17.231   3.812   5.669 -0.2463  0.0444  0.2473
  792YOPS   GL211854  17.052   3.822   5.885  0.0741  0.0973 -0.1172
  792YOPS   C1A11855  17.520   3.926   6.048 -0.0371  0.1223  0.1386
  792YOPS   D2A11856  17.709   3.646   6.288 -0.0033  0.1441 -0.1695
  792YOPS   C3A11857  17.588   3.263   6.522 -0.4690  0.0027 -0.3573
  792YOPS   C4A11858  17.376   3.073   6.301  0.1554 -0.0309 -0.1880
  792YOPS   C1B11859  17.202   4.317   5.892  0.0769  0.2418  0.1660
  792YOPS   C2B11860  17.326   4.694   6.202 -0.1432  0.0007  0.0510
  792YOPS   D3B11861  17.553   4.934   6.516  0.2513 -0.0391 -0.1495
  792YOPS   C4B11862  17.920   4.747   6.694 -0.1239  0.1525 -0.0057
  793YOPS   CNO11863  12.221  16.541   5.588  0.0390  0.2152 -0.0243
  793YOPS   PO411864  11.774  16.331   5.718 -0.0746 -0.2461  0.0988
  793YOPS   GL111865  12.183  16.318   6.041 -0.3459  0.1076  0.0547
  793YOPS   GL211866  12.181  16.605   6.199  0.1000 -0.0839 -0.1866
  793YOPS   C1A11867  12.358  16.189   6.362  0.2637 -0.0548  0.0893
  793YOPS   D2A11868  12.314  16.111   6.724  0.2107 -0.0468 -0.1936
  793YOPS   C3A11869  12.251  16.009   7.153 -0.3198 -0.3770 -0.3845
  793YOPS   C4A11870  12.231  16.371   7.475 -0.0400  0.0102 -0.0179
  793YOPS   C1B11871  12.109  16.690   6.582 -0.0239 -0.1494 -0.2313
  793YOPS   C2B11872  12.133  16.557   6.971 -0.0173 -0.1183  0.0555
  793YOPS   D3B11873  11.834  16.632   7.242 -0.4877 -0.0966 -0.0758
  793YOPS   C4B11874  11.783  16.908   7.550  0.1415 -0.0325  0.0901
  794YOPS   CNO11875   2.516  18.418   5.923  0.0950 -0.4127 -0.1982
  794YOPS   PO411876   2.516  18.215   5.580 -0.2163  0.0867 -0.0262
  794YOPS   GL111877   2.519  17.855   5.885  0.1642 -0.0568  0.0221
  794YOPS   GL211878   2.675  17.585   5.729 -0.2844  0.3269 -0.2768
  794YOPS   C1A11879   2.241  17.511   6.186  0.0277 -0.1265 -0.0419
  794YOPS   D2A11880   2.141  17.455   6.557 -0.1994 -0.3320  0.2424
  794YOPS   C3A11881   1.912  17.289   6.975  0.0054 -0.1850  0.1650
  794YOPS   C4A11882   1.834  17.682   7.189  0.0845  0.3663 -0.0602
  794YOPS   C1B11883   2.995  17.606   6.136 -0.1159 -0.4024  0.0597
  794YOPS   C2B11884   3.039  17.669   6.594  0.1147  0.0427 -0.0193
  794YOPS   D3B11885   2.945  17.710   6.999 -0.5961  0.0031  0.0154
  794YOPS   C4B11886   3.126  17.620   7.506 -0.0642  0.0394  0.1604
  795YOPS   CNO11887   2.330   9.251   5.170 -0.3753  0.0696  0.1940
  795YOPS   PO411888   2.031   9.571   5.264 -0.2702 -0.0404 -0.3494
  795YOPS   GL111889   2.277   9.445   5.639 -0.0851  0.0576 -0.1653
  795YOPS   GL211890   2.460   9.680   5.764  0.2457  0.0260  0.3773
  795YOPS   C1A11891   2.483   9.141   5.912 -0.1129  0.0114  0.2270
  795YOPS   D2A11892   2.507   8.691   6.180 -0.0533 -0.4807  0.1663
  795YOPS   C3A11893   2.575   8.567   6.569 -0.1926  0.2108  0.0729
  795YOPS   C4A11894   2.917   8.673   6.905 -0.1887  0.0972 -0.3079
  795YOPS   C1B11895   2.857   9.753   5.951  0.0245 -0.3703  0.0420
  795YOPS   C2B11896   3.027  10.135   6.015 -0.1501  0.4463  0.1351
  795YOPS   D3B11897   3.486  10.185   6.270  0.0819  0.1892  0.3080
  795YOPS   C4B11898   3.808   9.847   6.164 -0.1655 -0.1544 -0.0854
  796YOPS   CNO11899  17.731   0.225   5.565  0.1567  0.1797 -0.4148
  796YOPS   PO411900  18.069   0.168   5.817  0.0042 -0.0706  0.0094
  796YOPS   GL111901  18.339   0.305   6.127 -0.0041 -0.2722 -0.2486
  796YOPS   GL211902  18.608   0.561   6.154 -0.1018  0.4038 -0.3929
  796YOPS   C1A11903  18.149   0.379   6.535  0.2785  0.2324 -0.1159
  796YOPS   D2A11904  17.740   0.378   6.671 -0.0544 -0.1037 -0.1892
  796YOPS   C3A11905  17.868   0.540   7.042  0.1520 -0.3509 -0.3646
  796YOPS   C4A11906  18.081   0.357   7.344 -0.3052 -0.1533  0.1888
  796YOPS   C1B11907  18.673   0.390   6.531 -0.1274  0.1308  0.4192
  796YOPS   C2B11908  18.843   0.357   6.860  0.3198 -0.0367  0.0468
  796YOPS   D3B11909  18.699   0.211   7.375  0.1130  0.0546  0.0807
  796YOPS   C4B11910  18.935  -0.034   7.561 -0.0032  0.1026  0.2899
  797YOPS   CNO11911  15.049  13.517   6.165  0.0183 -0.3860  0.1979
  797YOPS   PO411912  14.919  13.149   6.150  0.2626 -0.0965 -0.1506
  797YOPS   GL111913  14.845  13.094   6.491 -0.2686  0.0384  0.2982
  797YOPS   GL211914  15.069  12.866   6.670  0.1049  0.2357  0.1930
  797YOPS   C1A11915  14.733  13.082   6.995 -0.0501  0.0981  0.2466
  797YOPS   D2A11916  15.029  13.276   7.296  0.1234  0.0756  0.4991
  797YOPS   C3A11917  15.336  13.706   7.337 -0.0490 -0.0366  0.1194
  797YOPS   C4A11918  15.486  13.838   7.731  0.0494 -0.2993  0.0331
  797YOPS   C1B11919  15.296  13.176   6.841  0.0153  0.2280  0.0403
  797YOPS   C2B11920  15.517  13.120   7.297 -0.1069 -0.0488  0.0808
  797YOPS   D3B11921  15.439  13.253   7.673  0.1347 -0.0993 -0.2087
  797YOPS   C4B11922  15.143  13.499   7.734 -0.1403 -0.1164  0.1986
  798YOPS   CNO11923   7.237   1.737   5.507 -0.0331 -0.2321  0.0848
  798YOPS   PO411924   7.597   1.931   5.152 -0.1038 -0.1466 -0.2050
  798YOPS   GL111925   7.681   1.825   5.662  0.2448  0.2102  0.2978
  798YOPS   GL211926   8.039   1.845   5.818  0.0232 -0.0047 -0.1476
  798YOPS   C1A11927   7.380   1.857   5.961 -0.0412 -0.1467 -0.2238
  798YOPS   D2A11928   7.061   2.000   6.322  0.0112  0.2226  0.1843
  798YOPS   C3A11929   6.759   1.959   6.557 -0.1994  0.0869  0.0949
  798YOPS   C4A11930   6.530   1.628   6.467  0.1098 -0.0223 -0.0652
  798YOPS   C1B11931   7.894   1.890   6.268 -0.1280 -0.1194 -0.3230
  798YOPS   C2B11932   7.894   1.902   6.719  0.0688 -0.0359  0.1067
  798YOPS   D3B11933   7.775   1.797   7.103  0.1855 -0.2008 -0.1813
  798YOPS   C4B11934   7.829   1.380   7.273 -0.0480  0.1325 -0.0834
  799YOPS   CNO11935   4.111  17.643   5.392  0.2049 -0.2031 -0.0219
  799YOPS   PO411936   4.288  17.329   5.287 -0.1203 -0.1819  0.0746
  799YOPS   GL111937   4.326  17.157   5.735 -0.2152 -0.1775 -0.0905
  799YOPS   GL211938   4.502  16.876   5.648 -0.0331 -0.2189  0.1200
  799YOPS   C1A11939   4.315  17.288   6.174 -0.0809 -0.1619  0.4773
  799YOPS   D2A11940   4.018  17.370   6.520  0.1167 -0.1793 -0.0652
  799YOPS   C3A11941   3.857  17.346   6.957  0.0776  0.0764  0.2043
  799YOPS   C4A11942   3.410  17.516   7.082 -0.1066 -0.1758  0.0688
  799YOPS   C1B11943   4.742  16.987   6.088  0.0903 -0.0137  0.0612
  799YOPS   C2B11944   4.610  17.227   6.551 -0.0685  0.1554  0.0669
  799YOPS   D3B11945   4.452  17.424   6.905  0.1135 -0.0004  0.2141
  799YOPS   C4B11946   4.617  17.717   6.866 -0.0345  0.3087 -0.0595
  800YOPS   CNO11947   4.304   8.973   4.942  0.1886 -0.2199  0.0510
  800YOPS   PO411948   4.185   9.206   5.332 -0.2608  0.1378 -0.0461
  800YOPS   GL111949   4.342   9.061   5.742 -0.1088 -0.0731 -0.1918
  800YOPS   GL211950   4.356   9.443   5.933  0.1076 -0.1823  0.0652
  800YOPS   C1A11951   4.301   8.950   6.203  0.0621  0.0625  0.1099
  800YOPS   D2A11952   4.174   8.770   6.587 -0.2443  0.3056  0.0805
  800YOPS   C3A11953   3.860   8.723   6.742 -0.0050 -0.0229 -0.2547
  800YOPS   C4A11954   3.714   8.351   6.840 -0.0486  0.0657  0.2479
  800YOPS   C1B11955   4.158   9.575   6.316 -0.0119  0.2389  0.0630
  800YOPS   C2B11956   3.918   9.680   6.730  0.3230 -0.1082  0.2639
  800YOPS   D3B11957   3.851   9.797   7.205  0.0314  0.2775  0.1443
  800YOPS   C4B11958   3.446  10.038   7.295 -0.2097 -0.0698 -0.0513
  801POPE   NH311959  15.608   4.934   5.752 -0.2899 -0.0537 -0.2444
  801POPE   PO411960  15.188   4.866   5.766  0.0955 -0.0658  0.3033
  801POPE   GL111961  15.275   4.503   6.075 -0.1072 -0.2455  0.2074
  801POPE   GL211962  15.402   4.864   6.271  0.0100  0.1762  0.2759
  801POPE   C1A11963  15.340   4.304   6.473 -0.0580 -0.0204 -0.2638
  801POPE   D2A11964  15.501   4.174   6.911 -0.1533  0.0134 -0.1920
  801POPE   C3A11965  15.362   4.360   7.276 -0.2220 -0.1088  0.1273
  801POPE   C4A11966  15.308   4.566   7.668  0.0064  0.1217  0.2924
  801POPE   C1B11967  15.249   4.799   6.671  0.1842  0.3748  0.0155
  801POPE   C2B11968  15.490   4.814   7.135 -0.0391 -0.1367  0.0229
  801POPE   C3B11969  15.727   4.651   7.398 -0.3595 -0.0819  0.2040
  801POPE   C4B11970  15.925   4.631   7.807 -0.2758 -0.1144  0.3936
  802POPE   NH311971  17.098   9.992   5.738  0.3837 -0.2404 -0.3229
  802POPE   PO411972  16.627  10.072   5.800  0.2493  0.1652  0.0654
  802POPE   GL111973  16.830  10.305   6.076  0.2945  0.3253 -0.0489
  802POPE   GL211974  16.588  10.286   6.331 -0.2094  0.1619  0.3459
  802POPE   C1A11975  17.234  10.455   6.274  0.1556 -0.1237 -0.2100
  802POPE   D2A11976  17.559  10.825   6.399 -0.0486  0.1307  0.0006
  802POPE   C3A11977  17.775  10.695   6.756 -0.2644  0.0107 -0.1013
  802POPE   C4A11978  17.635  10.482   7.088 -0.3597 -0.1837 -0.0028
  802POPE   C1B11979  16.682  10.539   6.704  0.0036 -0.0289 -0.0258
  802POPE   C2B11980  16.637  10.796   7.053 -0.0340 -0.0658 -0.3390
  802POPE   C3B11981  16.732  10.817   7.475 -0.3111 -0.1936 -0.0466
  802POPE   C4B11982  16.586  10.479   7.915 -0.4386  0.0950  0.0517
  803POPE   NH311983  17.918   1.097   5.575  0.1079 -0.0800 -0.2317
  803POPE   PO411984  17.419   0.990   5.726 -0.1172  0.0293  0.1349
  803POPE   GL111985  17.362   0.817   6.105  0.0170 -0.1556  0.1007
  803POPE   GL211986  17.096   1.009   6.288 -0.4400  0.2078 -0.0149
  803POPE   C1A11987  17.584   0.841   6.395  0.2171 -0.1826  0.2991
  803POPE   D2A11988  17.728   1.240   6.502  0.3031  0.3359 -0.1166
  803POPE   C3A11989  17.752   1.181   7.043  0.1257 -0.0040  0.0139
  803POPE   C4A11990  17.541   1.104   7.412 -0.0523  0.3023 -0.1448
  803POPE   C1B11991  17.309   1.137   6.760  0.0498  0.1590 -0.0338
  803POPE   C2B11992  17.439   1.548   6.934  0.2943  0.0077 -0.2542
  803POPE   C3B11993  17.637   1.738   7.241 -0.0415  0.0004 -0.2373
  803POPE   C4B11994  17.888   1.919   7.541  0.2160  0.0531  0.0969
  804POPE   NH311995  13.874   1.761   5.136  0.2350  0.1227 -0.1164
  804POPE   PO411996  13.585   1.747   5.477 -0.1933  0.0352 -0.1159
  804POPE   GL111997  13.454   1.792   5.826  0.2095 -0.1482  0.0678
  804POPE   GL211998  13.325   1.547   5.901  0.0599  0.0864  0.0626
  804POPE   C1A11999  13.546   1.808   6.331 -0.0181 -0.2800 -0.0521
  804POPE   D2A12000  13.413   1.811   6.637  0.1423  0.0808  0.3784
  804POPE   C3A12001  13.544   1.669   7.062  0.1600  0.2533 -0.3313
  804POPE   C4A12002  13.747   1.639   7.416 -0.1179  0.1969  0.2258
  804POPE   C1B12003  13.217   1.229   6.253 -0.0148 -0.0389 -0.2852
  804POPE   C2B12004  13.256   1.319   6.802 -0.0746 -0.0048 -0.1185
  804POPE   C3B12005  13.497   1.152   7.139  0.0633  0.2822  0.4156
  804POPE   C4B12006  13.951   1.176   7.240  0.0565  0.0768 -0.0295
  805POPE   NH312007   7.197  10.881   5.679  0.1013  0.0965  0.0167
  805POPE   PO412008   7.551  10.625   5.777  0.0780 -0.0864 -0.0096
  805POPE   GL112009   7.497  10.867   6.130  0.0308 -0.0672  0.1951
  805POPE   GL212010   7.361  11.107   6.257  0.0491  0.1921  0.0377
  805POPE   C1A12011   7.592  10.738   6.588  0.2119 -0.0650 -0.2771
  805POPE   D2A12012   7.691  10.345   6.813 -0.1753 -0.1498 -0.0312
  805POPE   C3A12013   7.645  10.440   7.259  0.2199 -0.1602 -0.0857
  805POPE   C4A12014   7.471  10.645   7.626  0.1180 -0.4110 -0.0317
  805POPE   C1B12015   7.323  11.152   6.668 -0.0900  0.0968  0.0587
  805POPE   C2B12016   7.751  11.067   7.005  0.0440 -0.1744  0.0012
  805POPE   C3B12017   7.851  10.975   7.491 -0.0960  0.0487  0.2820
  805POPE   C4B12018   7.975  10.525   7.679 -0.1019 -0.0075 -0.0518
  806POPE   NH312019   1.611  15.201   5.218 -0.1084 -0.2080  0.1865
  806POPE   PO412020   2.030  15.331   5.091  0.2029  0.3573  0.0096
  806POPE   GL112021   2.019  15.378   5.591 -0.2607  0.0141  0.0074
  806POPE   GL212022   1.780  15.602   5.622  0.1800  0.2822  0.1413
  806POPE   C1A12023   1.872  15.630   6.066 -0.0443  0.0022 -0.1143
  806POPE   D2A12024   1.926  15.999   6.346  0.3437  0.0858 -0.0915
  806POPE   C3A12025   1.793  16.380   6.660  0.1035  0.1884 -0.0509
  806POPE   C4A12026   1.495  16.758   6.749  0.1970 -0.1107 -0.2688
  806POPE   C1B12027   1.590  15.918   5.827 -0.2654 -0.1540  0.2175
  806POPE   C2B12028   1.407  15.860   6.171  0.2498  0.1046 -0.0639
  806POPE   C3B12029   1.348  15.867   6.571  0.2710  0.3766  0.0349
  806POPE   C4B12030   1.758  15.823   6.779 -0.1004  0.3632 -0.2386
  807POPE   NH312031   4.506  16.380   5.587  0.1515 -0.0652 -0.1389
  807POPE   PO412032   4.854  16.558   5.368  0.1494  0.1396 -0.2719
  807POPE   GL112033   4.882  16.483   5.911 -0.0764  0.0554  0.2132
  807POPE   GL212034   5.288  16.579   5.961  0.1893 -0.0468 -0.1860
  807POPE   C1A12035   4.934  16.630   6.347 -0.1683 -0.1401  0.0380
  807POPE   D2A12036   5.076  16.368   6.653 -0.0097  0.1361  0.2299
  807POPE   C3A12037   5.170  16.603   7.053  0.2078 -0.2513  0.1199
  807POPE   C4A12038   5.110  16.709   7.520 -0.0383  0.1184 -0.0703
  807POPE   C1B12039   5.425  16.680   6.370  0.2302 -0.0247 -0.3739
  807POPE   C2B12040   5.422  16.942   6.793 -0.2921  0.0731 -0.2457
  807POPE   C3B12041   5.558  16.919   7.197  0.1044 -0.2351 -0.0249
  807POPE   C4B12042   5.610  16.804   7.669 -0.0050  0.1627 -0.1788
  808POPE   NH312043   5.518  12.598   4.782 -0.0778  0.0061 -0.0465
  808POPE   PO412044   5.493  12.758   5.215  0.0724  0.1149 -0.1116
  808POPE   GL112045   5.368  12.932   5.574 -0.1849 -0.0184  0.1482
  808POPE   GL212046   5.008  13.006   5.711 -0.2910  0.0511  0.1584
  808POPE   C1A12047   5.274  12.744   6.017  0.0365  0.0850 -0.2144
  808POPE   D2A12048   5.272  12.349   6.275 -0.0180  0.1399  0.1435
  808POPE   C3A12049   5.291  12.443   6.695  0.0262  0.1220 -0.1633
  808POPE   C4A12050   5.307  12.501   7.083 -0.1920  0.0404 -0.5672
  808POPE   C1B12051   4.997  13.128   6.252  0.1565 -0.1983 -0.1093
  808POPE   C2B12052   4.953  13.297   6.657  0.3273 -0.0635 -0.0643
  808POPE   C3B12053   5.067  13.344   7.137 -0.0561  0.0350 -0.1849
  808POPE   C4B12054   5.262  13.670   7.362  0.1549  0.3964 -0.3699
  809POPE   NH312055   7.320  15.105   5.137  0.0683  0.0490  0.1954
  809POPE   PO412056   6.880  14.887   5.306 -0.0655 -0.1658 -0.2261
  809POPE   GL112057   6.677  14.893   5.744 -0.0005  0.0207  0.0087
  809POPE   GL212058   6.892  14.712   6.037 -0.1399 -0.1327 -0.1659
  809POPE   C1A12059   6.623  15.122   6.097  0.2844  0.3115  0.1359
  809POPE   D2A12060   6.752  15.108   6.516  0.2009  0.0138  0.0121
  809POPE   C3A12061   6.723  14.681   6.583  0.1743 -0.0169 -0.0627
  809POPE   C4A12062   6.454  14.558   6.838 -0.3587  0.0790  0.1163
  809POPE   C1B12063   7.185  14.740   6.309  0.2618  0.0112  0.2850
  809POPE   C2B12064   7.297  14.581   6.740 -0.1546 -0.0094 -0.1925
  809POPE   C3B12065   7.626  14.493   7.008  0.5282  0.0175 -0.2518
  809POPE   C4B12066   7.533  14.171   7.330 -0.1354  0.0051  0.2446
  810POPE   NH312067  10.281  11.638   5.651  0.1075 -0.0609  0.0305
  810POPE   PO412068   9.883  11.685   5.757  0.1927 -0.0689 -0.2631
  810POPE   GL112069  10.035  11.827   6.140  0.0315 -0.0355  0.2848
  810POPE   GL212070  10.390  11.614   6.156 -0.1133 -0.1287  0.1971
  810POPE   C1A12071  10.161  12.193   6.427  0.2689  0.3826 -0.0434
  810POPE   D2A12072  10.222  12.476   6.712  0.0894  0.0587  0.0914
  810POPE   C3A12073  10.191  12.515   7.071  0.0971 -0.1592 -0.0010
  810POPE   C4A12074  10.124  12.261   7.490  0.1014  0.1901  0.3333
  810POPE   C1B12075  10.668  11.960   6.377 -0.0002 -0.0673 -0.1534
  810POPE   C2B12076  11.088  12.116   6.558  0.1220 -0.1062  0.0096
  810POPE   C3B12077  11.343  12.199   6.871 -0.2472  0.0241  0.0743
  810POPE   C4B12078  11.377  12.201   7.298  0.1136  0.1336 -0.0753
  811POPE   NH312079   6.861   5.981   5.694  0.0472  0.0887  0.0521
  811POPE   PO412080   6.461   5.811   5.493  0.1863  0.1140  0.3202
  811POPE   GL112081   6.335   5.853   5.935  0.1108 -0.1513  0.3412
  811POPE   GL212082   6.189   6.177   6.106 -0.2154  0.2084 -0.0930
  811POPE   C1A12083   6.219   5.684   6.338 -0.0123 -0.0918 -0.0829
  811POPE   D2A12084   6.300   5.933   6.755 -0.3135 -0.0998  0.0908
  811POPE   C3A12085   6.382   6.307   6.632  0.0962 -0.2091 -0.1442
  811POPE   C4A12086   6.306   6.777   6.678  0.0856  0.0752  0.2425
  811POPE   C1B12087   5.958   6.482   6.364  0.0342  0.0912 -0.1199
  811POPE   C2B12088   5.897   6.486   6.852 -0.5232 -0.0064 -0.2802
  811POPE   C3B12089   6.171   6.320   7.122  0.0207 -0.4687 -0.1711
  811POPE   C4B12090   6.049   6.176   7.449  0.1468  0.2877  0.0023
  812POPE   NH312091   8.282  14.275   5.386  0.0609 -0.1761 -0.1010
  812POPE   PO412092   8.727  14.115   5.312 -0.3663 -0.2447 -0.2092
  812POPE   GL112093   8.748  14.268   5.723  0.0511  0.1056 -0.2123
  812POPE   GL212094   8.570  14.069   5.996  0.1191  0.1659  0.4665
  812POPE   C1A12095   8.899  14.486   6.137 -0.1275  0.1567 -0.0490
  812POPE   D2A12096   8.861  14.679   6.491 -0.2047 -0.0791  0.0544
  812POPE   C3A12097   8.880  14.368   6.863 -0.3153  0.1006  0.1255
  812POPE   C4A12098   9.038  14.057   7.133 -0.0958  0.0163  0.1624
  812POPE   C1B12099   8.560  14.280   6.380  0.2329  0.0312  0.1024
  812POPE   C2B12100   8.391  14.406   6.745  0.1505  0.2525 -0.0609
  812POPE   C3B12101   8.153  14.644   7.073 -0.3501  0.0240  0.3060
  812POPE   C4B12102   7.963  14.902   7.331  0.2152  0.1959  0.0407
  813POPE   NH312103  11.817   6.722   6.129 -0.2760  0.0674 -0.1480
  813POPE   PO412104  12.153   6.520   5.918  0.1959 -0.1346  0.0614
  813POPE   GL112105  12.165   6.137   6.097 -0.0911 -0.0163 -0.6128
  813POPE   GL212106  12.002   5.906   6.072  0.2500 -0.0835 -0.1803
  813POPE   C1A12107  12.472   6.021   6.475  0.1033 -0.0004  0.0402
  813POPE   D2A12108  12.519   6.112   6.942  0.2777  0.2226 -0.0421
  813POPE   C3A12109  12.823   6.225   7.321 -0.2223 -0.1215 -0.1624
  813POPE   C4A12110  13.186   6.189   7.655  0.1958 -0.2370 -0.0839
  813POPE   C1B12111  12.009   5.766   6.494  0.3836  0.4071  0.0816
  813POPE   C2B12112  12.243   5.642   6.920  0.3325  0.1864 -0.0694
  813POPE   C3B12113  12.278   5.453   7.331  0.0135  0.2114  0.1341
  813POPE   C4B12114  11.987   5.240   7.665 -0.1820 -0.1058 -0.0512
  814POPE   NH312115  14.278   4.269   5.433  0.1850  0.2578 -0.2588
  814POPE   PO412116  14.302   4.654   5.611 -0.2465  0.0953  0.1100
  814POPE   GL112117  14.182   4.637   6.021 -0.0003 -0.0977 -0.0363
  814POPE   GL212118  14.328   4.812   6.188  0.1545 -0.0473  0.2481
  814POPE   C1A12119  13.912   4.505   6.341  0.1624  0.0054  0.3308
  814POPE   D2A12120  13.702   4.255   6.590 -0.2746  0.2252  0.4565
  814POPE   C3A12121  13.773   4.426   6.881  0.1657  0.2387 -0.1000
  814POPE   C4A12122  13.821   4.703   7.296  0.0706  0.0740 -0.0673
  814POPE   C1B12123  14.338   5.072   6.513  0.0697  0.0660 -0.0286
  814POPE   C2B12124  14.426   5.324   6.920 -0.0641  0.2341 -0.2350
  814POPE   C3B12125  14.430   5.460   7.303  0.0188  0.1595  0.0084
  814POPE   C4B12126  14.049   5.584   7.578 -0.0675  0.0572 -0.0345
  815POPE   NH312127   6.882   9.947   5.677  0.1549  0.0580 -0.1296
  815POPE   PO412128   6.983  10.353   5.567  0.0601 -0.0419 -0.0981
  815POPE   GL112129   7.115  10.402   6.069 -0.2441  0.1776 -0.2439
  815POPE   GL212130   6.946  10.051   6.183  0.0541 -0.0160 -0.2261
  815POPE   C1A12131   7.105  10.595   6.450 -0.0542  0.3092 -0.2851
  815POPE   D2A12132   7.217  10.561   6.837 -0.0904  0.0749 -0.0799
  815POPE   C3A12133   7.225  10.171   7.077  0.0237 -0.0064  0.3705
  815POPE   C4A12134   6.892   9.986   7.143  0.3059  0.3005 -0.1166
  815POPE   C1B12135   6.685  10.264   6.471  0.3969 -0.0448  0.3725
  815POPE   C2B12136   6.746  10.338   6.853  0.2013  0.0439  0.1672
  815POPE   C3B12137   6.823  10.591   7.233  0.1609 -0.0732 -0.2735
  815POPE   C4B12138   7.021  10.841   7.605 -0.0152  0.0453  0.1730
  816POPE   NH312139  14.938  10.702   5.917 -0.0678 -0.1253  0.4033
  816POPE   PO412140  15.204  10.358   5.871 -0.0473  0.2253 -0.0687
  816POPE   GL112141  15.242  10.069   6.293  0.0416  0.0171  0.1455
  816POPE   GL212142  15.000   9.729   6.325 -0.1979 -0.2648  0.1258
  816POPE   C1A12143  15.508   9.992   6.708 -0.2930  0.0382  0.0893
  816POPE   D2A12144  15.532   9.664   6.906  0.0450 -0.0232 -0.3133
  816POPE   C3A12145  15.830   9.674   7.175  0.0103 -0.0696  0.2087
  816POPE   C4A12146  16.081   9.542   7.493 -0.2076 -0.3040 -0.0392
  816POPE   C1B12147  15.044   9.766   6.705 -0.2633  0.3623  0.1793
  816POPE   C2B12148  14.929   9.769   6.961 -0.1068 -0.0434  0.1455
  816POPE   C3B12149  14.823   9.718   7.402  0.0095  0.1144  0.1211
  816POPE   C4B12150  14.692   9.710   7.807 -0.0914 -0.1241 -0.1510
  817POPE   NH312151  14.224  15.274   5.500 -0.0553 -0.1107  0.3750
  817POPE   PO412152  14.100  14.908   5.752 -0.1047  0.0187  0.0901
  817POPE   GL112153  14.259  15.233   6.042 -0.1715  0.0460  0.3265
  817POPE   GL212154  14.032  15.373   6.148 -0.1307 -0.1041  0.0234
  817POPE   C1A12155  14.724  15.193   6.246 -0.4917  0.0340  0.3313
  817POPE   D2A12156  15.056  15.154   6.632  0.0805  0.2036 -0.0132
  817POPE   C3A12157  14.919  15.175   7.129  0.0288 -0.1802  0.1296
  817POPE   C4A12158  14.970  15.348   7.510  0.2483 -0.0888 -0.0241
  817POPE   C1B12159  14.289  15.528   6.470 -0.1554 -0.2427  0.0313
  817POPE   C2B12160  14.512  15.406   6.906 -0.1466 -0.1349  0.2862
  817POPE   C3B12161  14.510  15.467   7.378 -0.2342 -0.0358 -0.2612
  817POPE   C4B12162  14.338  15.759   7.679 -0.0694  0.2465  0.0147
  818POPE   NH312163  17.713   9.709   5.484  0.1025  0.2106  0.0779
  818POPE   PO412164  17.412   9.592   5.770  0.2464  0.1285  0.2516
  818POPE   GL112165  17.164   9.352   6.069  0.1702  0.0294  0.2832
  818POPE   GL212166  16.810   9.286   6.220  0.2181 -0.3917 -0.1082
  818POPE   C1A12167  17.141   9.108   6.553  0.0398  0.0543 -0.1830
  818POPE   D2A12168  17.348   8.901   6.814 -0.0389 -0.1552 -0.0236
  818POPE   C3A12169  17.337   8.598   6.775 -0.0835 -0.0501 -0.2647
  818POPE   C4A12170  17.187   8.174   6.734 -0.1009 -0.1089 -0.3658
  818POPE   C1B12171  16.802   9.539   6.615  0.2692  0.2770 -0.0001
  818POPE   C2B12172  16.707   9.570   7.010 -0.3003 -0.3598 -0.0141
  818POPE   C3B12173  16.741   9.730   7.399 -0.1162  0.2232 -0.1518
  818POPE   C4B12174  16.783   9.982   7.797 -0.1177  0.3196 -0.1528
  819POPE   NH312175   3.477   9.588   4.959  0.4585 -0.3033 -0.0911
  819POPE   PO412176   3.246   9.958   5.096 -0.1391 -0.2531  0.2641
  819POPE   GL112177   3.321   9.692   5.427  0.1738 -0.1991  0.1053
  819POPE   GL212178   3.514   9.845   5.596  0.0007 -0.0385  0.1249
  819POPE   C1A12179   3.291   9.385   5.709  0.0431  0.0922  0.0524
  819POPE   D2A12180   3.180   9.278   6.113  0.1259 -0.0380  0.0556
  819POPE   C3A12181   3.209   9.344   6.605  0.3980  0.1604  0.1869
  819POPE   C4A12182   3.159   9.131   7.010  0.1379  0.0667  0.1053
  819POPE   C1B12183   3.355   9.735   5.982 -0.2491  0.2211  0.0084
  819POPE   C2B12184   3.471   9.700   6.459  0.1507  0.0470  0.0716
  819POPE   C3B12185   3.416   9.696   6.847 -0.0545 -0.1153  0.0083
  819POPE   C4B12186   3.426   9.514   7.233  0.1963 -0.0260  0.0460
  820POPE   NH312187   6.940   6.969   5.979  0.0527 -0.5948  0.3062
  820POPE   PO412188   7.091   7.349   5.783  0.1588  0.0600 -0.0357
  820POPE   GL112189   7.285   7.342   6.113 -0.1716 -0.0748  0.0459
  820POPE   GL212190   7.109   7.402   6.330  0.0812 -0.0603 -0.0450
  820POPE   C1A12191   7.534   7.245   6.498 -0.0547  0.1286  0.0447
  820POPE   D2A12192   7.849   7.238   6.821  0.1615  0.1150  0.2276
  820POPE   C3A12193   7.932   7.103   7.206  0.0185 -0.0771  0.0967
  820POPE   C4A12194   7.830   7.024   7.660  0.0239 -0.1025  0.2640
  820POPE   C1B12195   7.127   7.329   6.794  0.1673 -0.0975  0.0545
  820POPE   C2B12196   7.006   7.357   7.224 -0.0120  0.2738  0.0643
  820POPE   C3B12197   6.902   6.952   7.361 -0.0269  0.3438  0.0238
  820POPE   C4B12198   6.808   6.916   7.780  0.1138  0.3372 -0.1488
  821POPE   NH312199   3.634  15.357   5.398 -0.0026 -0.2107  0.2314
  821POPE   PO412200   3.328  15.814   5.316 -0.4546  0.1069 -0.0554
  821POPE   GL112201   3.090  15.701   5.711  0.0172  0.3537  0.0599
  821POPE   GL212202   2.866  15.876   5.873 -0.1719 -0.2866  0.1077
  821POPE   C1A12203   3.013  15.423   6.036 -0.0260  0.0623 -0.1614
  821POPE   D2A12204   3.221  15.318   6.342  0.0565 -0.2207  0.1281
  821POPE   C3A12205   3.153  15.324   6.765 -0.0912  0.2441 -0.3744
  821POPE   C4A12206   2.905  15.118   6.954  0.1067 -0.0864  0.0684
  821POPE   C1B12207   2.566  15.917   6.275 -0.0622 -0.1401  0.0310
  821POPE   C2B12208   2.324  15.907   6.682 -0.0064 -0.0185  0.0182
  821POPE   C3B12209   2.123  16.160   6.980 -0.1798  0.2845  0.0926
  821POPE   C4B12210   2.080  16.168   7.447  0.2166  0.2943  0.2022
  822POPE   NH312211   3.617  16.380   5.696 -0.1798  0.1807  0.2406
  822POPE   PO412212   3.338  16.105   5.726  0.0597 -0.2902  0.2360
  822POPE   GL112213   3.440  16.140   6.121  0.0597  0.3500  0.3164
  822POPE   GL212214   3.228  15.899   6.222  0.2910  0.3538  0.0493
  822POPE   C1A12215   3.531  16.111   6.501 -0.2499 -0.0657  0.2822
  822POPE   D2A12216   3.368  16.478   6.710  0.2602  0.2261 -0.1005
  822POPE   C3A12217   3.145  16.444   7.080 -0.1851  0.3081  0.2378
  822POPE   C4A12218   3.316  16.498   7.451  0.2727 -0.2332  0.1741
  822POPE   C1B12219   3.119  15.786   6.570  0.1099  0.0404 -0.0261
  822POPE   C2B12220   3.126  15.934   6.958 -0.0770  0.3194 -0.1737
  822POPE   C3B12221   3.247  15.996   7.338  0.1306 -0.0738 -0.0193
  822POPE   C4B12222   3.253  15.753   7.714 -0.2306 -0.0250  0.0916
  823POPE   NH312223   1.742  14.479   5.424 -0.2038 -0.2385  0.0004
  823POPE   PO412224   1.916  14.833   5.285 -0.0758 -0.1655  0.1246
  823POPE   GL112225   1.936  14.896   5.692 -0.0938  0.1184 -0.1845
  823POPE   GL212226   1.715  14.747   5.832  0.3096 -0.0902  0.1700
  823POPE   C1A12227   2.106  15.049   6.014 -0.2349  0.0678  0.0376
  823POPE   D2A12228   2.193  15.031   6.504  0.2864 -0.2544  0.0145
  823POPE   C3A12229   2.421  15.101   6.837 -0.2443 -0.2972  0.0763
  823POPE   C4A12230   2.499  15.368   7.239 -0.0201 -0.2170  0.6327
  823POPE   C1B12231   1.828  14.743   6.306 -0.0876  0.0981  0.3285
  823POPE   C2B12232   1.505  14.789   6.623 -0.1359  0.1812  0.0368
  823POPE   C3B12233   1.263  14.925   6.921  0.0509  0.0932 -0.1304
  823POPE   C4B12234   0.998  14.946   7.251 -0.2902 -0.0469  0.1313
  824POPE   NH312235  11.524  17.910   5.692 -0.0376  0.1492  0.2178
  824POPE   PO412236  11.155  17.747   5.509  0.1604  0.0204  0.4972
  824POPE   GL112237  10.969  17.905   5.894 -0.0127 -0.0955  0.0069
  824POPE   GL212238  11.005  17.626   6.000 -0.1294  0.1714 -0.0545
  824POPE   C1A12239  10.797  18.291   6.072 -0.0329 -0.3307  0.1471
  824POPE   D2A12240  10.769  18.309   6.432  0.0603 -0.4732 -0.0942
  824POPE   C3A12241  10.581  18.677   6.546  0.0121  0.1472 -0.2356
  824POPE   C4A12242  10.630  19.093   6.502  0.0489  0.1765 -0.1819
  824POPE   C1B12243  10.745  17.818   6.431 -0.0811  0.1306  0.1214
  824POPE   C2B12244  10.713  18.020   6.877 -0.1907 -0.0819 -0.1390
  824POPE   C3B12245  10.538  18.001   7.287 -0.1167 -0.2442 -0.2131
  824POPE   C4B12246  10.262  17.971   7.552  0.1467 -0.0827  0.1314
  825POPE   NH312247  11.396   8.749   6.240 -0.2183 -0.1615  0.2540
  825POPE   PO412248  11.742   8.938   6.004 -0.2764 -0.0412  0.0779
  825POPE   GL112249  11.819   8.964   6.538 -0.1805  0.0517 -0.0664
  825POPE   GL212250  12.149   8.952   6.603  0.0586  0.0395  0.3819
  825POPE   C1A12251  11.778   8.758   6.959 -0.2390  0.0369  0.2336
  825POPE   D2A12252  11.752   8.798   7.317 -0.1567  0.0512 -0.0919
  825POPE   C3A12253  11.452   8.908   7.612 -0.2770  0.2550  0.0908
  825POPE   C4A12254  11.340   9.332   7.827 -0.0606  0.1457  0.0500
  825POPE   C1B12255  12.231   8.991   6.985  0.1035 -0.0145 -0.0645
  825POPE   C2B12256  12.118   9.114   7.358  0.1725  0.1832 -0.1748
  825POPE   C3B12257  12.143   9.535   7.479 -0.0226  0.0252 -0.0880
  825POPE   C4B12258  12.029   9.824   7.816  0.0473  0.4173 -0.2104
  826POPE   NH312259   5.773  11.973   5.504 -0.0465 -0.0269  0.1108
  826POPE   PO412260   6.213  12.091   5.359  0.3439 -0.3722  0.0821
  826POPE   GL112261   6.197  12.084   5.801 -0.0805  0.1098  0.1295
  826POPE   GL212262   6.221  11.784   5.956 -0.3073  0.1052  0.2202
  826POPE   C1A12263   5.907  12.120   6.170 -0.0549 -0.0433 -0.2666
  826POPE   D2A12264   5.722  12.194   6.525 -0.1255 -0.2808 -0.1104
  826POPE   C3A12265   5.624  12.181   6.961  0.1514 -0.1161  0.0779
  826POPE   C4A12266   5.663  11.840   7.229  0.2748  0.4208 -0.1816
  826POPE   C1B12267   6.219  11.811   6.427  0.2409 -0.0745 -0.0641
  826POPE   C2B12268   6.213  11.929   6.887  0.0509  0.0595 -0.2900
  826POPE   C3B12269   6.182  11.953   7.401 -0.2309  0.1670  0.1802
  826POPE   C4B12270   6.215  11.861   7.857  0.0428  0.1680  0.2893
  827POPE   NH312271   0.038   3.667   5.293  0.0520  0.0181 -0.1390
  827POPE   PO412272   0.208   3.472   5.621 -0.2620  0.0686  0.2841
  827POPE   GL112273   0.361   3.430   6.055  0.2414  0.0899 -0.3934
  827POPE   GL212274   0.322   3.152   6.133  0.0031  0.1126  0.1085
  827POPE   C1A12275   0.472   3.368   6.524 -0.2428  0.5926  0.0254
  827POPE   D2A12276   0.877   3.284   6.846  0.0758 -0.2486 -0.0225
  827POPE   C3A12277   0.893   3.567   7.203 -0.6706  0.2885 -0.2017
  827POPE   C4A12278   1.064   3.791   7.522 -0.0984 -0.3569  0.1423
  827POPE   C1B12279  -0.052   3.125   6.391  0.0836 -0.2009 -0.2391
  827POPE   C2B12280  -0.073   3.306   6.807 -0.0735 -0.0572 -0.0072
  827POPE   C3B12281  -0.077   3.381   7.192 -0.5024 -0.1699 -0.1346
  827POPE   C4B12282  -0.019   3.665   7.414  0.1654  0.1752 -0.1626
  828POPE   NH312283   1.613  18.729   5.555  0.2690  0.4449 -0.3730
  828POPE   PO412284   1.900  18.983   5.535 -0.0978  0.1885 -0.0814
  828POPE   GL112285   2.034  18.849   5.928  0.0931 -0.4299  0.1188
  828POPE   GL212286   2.152  19.276   5.876 -0.0254  0.2861 -0.1968
  828POPE   C1A12287   2.296  18.686   6.243  0.0498 -0.2201 -0.0994
  828POPE   D2A12288   2.623  18.605   6.493  0.1556 -0.2439 -0.0081
  828POPE   C3A12289   2.641  18.222   6.758  0.1219  0.1371 -0.2599
  828POPE   C4A12290   2.654  18.060   7.161  0.4248 -0.0436  0.0727
  828POPE   C1B12291   2.493  19.230   6.164 -0.3305  0.1693  0.0619
  828POPE   C2B12292   2.646  19.069   6.593  0.1267 -0.0892 -0.3756
  828POPE   C3B12293   2.675  19.221   6.931  0.1408 -0.1478 -0.2263
  828POPE   C4B12294   2.629  19.435   7.307 -0.0226  0.1174  0.2903
  829POPE   NH312295  12.762  18.760   5.535 -0.0204  0.1508 -0.0167
  829POPE   PO412296  12.625  19.061   5.431  0.0749 -0.4403 -0.2742
  829POPE   GL112297  12.676  19.147   5.865 -0.2482  0.0023 -0.1368
  829POPE   GL212298  12.585  19.466   5.940  0.0458 -0.1371  0.1654
  829POPE   C1A12299  12.909  19.137   6.248  0.0768 -0.2409  0.1898
  829POPE   D2A12300  12.984  19.239   6.715  0.4445  0.1483 -0.1196
  829POPE   C3A12301  12.712  18.886   6.877  0.0076 -0.0709  0.0433
  829POPE   C4A12302  12.356  18.789   7.117 -0.2677 -0.0966 -0.1537
  829POPE   C1B12303  12.286  19.294   6.131 -0.2558  0.0614  0.0422
  829POPE   C2B12304  11.961  19.052   6.342 -0.0191 -0.0573 -0.3046
  829POPE   C3B12305  12.055  18.843   6.677 -0.1629  0.0192 -0.1480
  829POPE   C4B12306  11.795  18.452   6.968  0.0077  0.0963  0.4361
  830POPE   NH312307  16.964  17.389   5.305 -0.1081  0.1358 -0.0050
  830POPE   PO412308  16.547  17.273   5.646  0.2165  0.0584  0.4629
  830POPE   GL112309  16.427  17.122   6.018  0.3191 -0.1112 -0.2662
  830POPE   GL212310  16.279  16.869   6.229 -0.1824  0.0811 -0.0360
  830POPE   C1A12311  16.649  17.166   6.407  0.3717  0.1496  0.2113
  830POPE   D2A12312  16.574  17.085   6.739  0.0636  0.0497 -0.1263
  830POPE   C3A12313  16.690  17.456   6.920  0.0729 -0.4762  0.3016
  830POPE   C4A12314  16.398  17.795   7.184 -0.0210 -0.0394 -0.0997
  830POPE   C1B12315  16.131  16.880   6.615  0.3971 -0.2585  0.0794
  830POPE   C2B12316  15.718  16.865   6.836 -0.1249 -0.2661  0.0026
  830POPE   C3B12317  15.292  16.905   7.138 -0.0274  0.1735 -0.1323
  830POPE   C4B12318  15.116  16.697   7.519 -0.2004  0.5527  0.0337
  831YOPE   NH312319   2.163   2.619   5.385  0.1820 -0.1915  0.0866
  831YOPE   PO412320   2.095   2.331   5.799  0.5397  0.2912 -0.0406
  831YOPE   GL112321   2.307   2.163   6.108  0.2098  0.1094  0.0011
  831YOPE   GL212322   2.563   2.184   6.031 -0.2861  0.1827  0.3026
  831YOPE   C1A12323   2.354   1.768   6.363 -0.3895 -0.1380 -0.4754
  831YOPE   D2A12324   2.616   1.709   6.804  0.0605 -0.3748  0.2048
  831YOPE   C3A12325   2.560   1.966   7.172  0.0510 -0.2858  0.0021
  831YOPE   C4A12326   2.509   1.805   7.621 -0.1774  0.1432 -0.0259
  831YOPE   C1B12327   2.874   2.132   6.310 -0.1883 -0.0326 -0.2828
  831YOPE   C2B12328   3.182   1.852   6.547 -0.0807 -0.0729 -0.0383
  831YOPE   D3B12329   3.059   1.703   7.006 -0.4534  0.0603  0.3452
  831YOPE   C4B12330   3.090   1.661   7.423 -0.2286 -0.2265 -0.0062
  832YOPE   NH312331  12.799   2.461   5.995  0.1080  0.0904 -0.0714
  832YOPE   PO412332  12.567   2.932   5.880  0.1567 -0.0843 -0.0604
  832YOPE   GL112333  12.203   3.044   6.177  0.4669  0.0520 -0.0480
  832YOPE   GL212334  11.846   3.108   6.136 -0.1643 -0.0786 -0.2286
  832YOPE   C1A12335  12.102   3.092   6.661 -0.0241 -0.0916 -0.0359
  832YOPE   D2A12336  12.163   2.963   7.097 -0.4154 -0.0830 -0.3511
  832YOPE   C3A12337  12.210   2.668   7.414 -0.1668  0.0365 -0.0711
  832YOPE   C4A12338  11.980   2.403   7.662  0.1060  0.1303 -0.0413
  832YOPE   C1B12339  11.906   2.714   6.397 -0.1129 -0.1134  0.3225
  832YOPE   C2B12340  11.924   2.541   6.835  0.1126  0.1875 -0.2061
  832YOPE   D3B12341  11.962   2.144   7.194 -0.0365 -0.3764  0.0931
  832YOPE   C4B12342  11.687   1.996   7.581 -0.1463 -0.0578  0.1246
  833YOPE   NH312343  18.464   6.122   5.654  0.0020  0.0352 -0.0897
  833YOPE   PO412344  18.118   6.336   5.912 -0.2671  0.0234  0.0676
  833YOPE   GL112345  17.816   6.538   6.224 -0.0233 -0.0105  0.1009
  833YOPE   GL212346  17.494   6.434   6.159 -0.2362  0.1717  0.4726
  833YOPE   C1A12347  17.935   6.645   6.587 -0.0305 -0.1940 -0.2206
  833YOPE   D2A12348  18.200   6.862   7.013 -0.0070 -0.1465  0.2588
  833YOPE   C3A12349  18.514   6.830   7.087  0.4363 -0.2279  0.2161
  833YOPE   C4A12350  18.824   6.510   7.064 -0.2418 -0.0216  0.3707
  833YOPE   C1B12351  17.401   6.577   6.624  0.0572 -0.3563 -0.1509
  833YOPE   C2B12352  17.487   6.704   6.994  0.2041 -0.2005  0.0703
  833YOPE   D3B12353  17.717   6.885   7.286 -0.0010  0.0990 -0.2924
  833YOPE   C4B12354  17.914   7.058   7.751 -0.0197  0.0243 -0.2885
  834YOPE   NH312355  15.483   8.902   6.097  0.0319  0.0728  0.0256
  834YOPE   PO412356  15.013   8.823   5.936  0.2792  0.1571 -0.2956
  834YOPE   GL112357  15.132   8.781   6.456 -0.1488 -0.4512 -0.2009
  834YOPE   GL212358  15.520   8.693   6.562  0.3069 -0.1645  0.2346
  834YOPE   C1A12359  15.020   8.610   6.983  0.1866 -0.1436  0.2528
  834YOPE   D2A12360  14.986   8.689   7.414 -0.1620  0.0286 -0.0946
  834YOPE   C3A12361  14.963   8.316   7.639  0.0145  0.2234 -0.1514
  834YOPE   C4A12362  15.068   8.355   8.130  0.2094  0.3401  0.1549
  834YOPE   C1B12363  15.771   8.512   6.800  0.0289 -0.2352 -0.1969
  834YOPE   C2B12364  15.883   8.332   7.102 -0.1516  0.0404  0.0454
  834YOPE   D3B12365  16.054   8.288   7.536  0.3180  0.0569 -0.1431
  834YOPE   C4B12366  15.768   8.294   7.849  0.2081  0.0033  0.3045
  835YOPE   NH312367   4.118   3.407   5.202  0.1557 -0.0046 -0.1708
  835YOPE   PO412368   3.751   3.506   5.610 -0.0306 -0.3581  0.1570
  835YOPE   GL112369   3.459   3.314   5.926  0.0005 -0.0209 -0.0849
  835YOPE   GL212370   3.109   3.493   6.009  0.2648  0.0742  0.3321
  835YOPE   C1A12371   3.561   3.163   6.300  0.1337 -0.4024  0.1789
  835YOPE   D2A12372   3.876   3.138   6.663 -0.2107  0.1055  0.1335
  835YOPE   C3A12373   3.986   3.310   6.947 -0.1931 -0.0104 -0.1320
  835YOPE   C4A12374   4.269   3.458   7.356  0.0413 -0.1651 -0.1554
  835YOPE   C1B12375   3.091   3.307   6.470  0.1108  0.2676  0.2751
  835YOPE   C2B12376   2.939   3.307   6.870 -0.2152  0.3704 -0.2255
  835YOPE   D3B12377   3.073   3.167   7.202  0.1514  0.0197  0.1122
  835YOPE   C4B12378   3.245   2.829   7.469  0.1388  0.0039  0.1169
  836YOPE   NH312379   1.551  10.744   5.368 -0.1988  0.1866 -0.0736
  836YOPE   PO412380   1.535  11.084   5.628  0.0403 -0.0116  0.2274
  836YOPE   GL112381   1.600  10.917   6.038 -0.1887  0.3090 -0.0436
  836YOPE   GL212382   1.882  10.779   6.120  0.0689 -0.2683 -0.0707
  836YOPE   C1A12383   1.745  11.117   6.436 -0.1152 -0.2436 -0.0355
  836YOPE   D2A12384   2.168  11.036   6.772 -0.0124  0.1910  0.2342
  836YOPE   C3A12385   2.246  11.106   7.185 -0.0905 -0.2400  0.0597
  836YOPE   C4A12386   2.488  11.287   7.520 -0.0435 -0.0545 -0.0795
  836YOPE   C1B12387   2.266  11.099   6.276  0.0463 -0.1831  0.2719
  836YOPE   C2B12388   2.619  10.924   6.551  0.0542 -0.0985  0.0295
  836YOPE   D3B12389   2.692  10.870   6.996 -0.0247  0.1809 -0.2046
  836YOPE   C4B12390   2.892  11.053   7.317 -0.4773 -0.1195  0.0902
  837YOPE   NH312391  16.290  11.128   5.975 -0.0322  0.0082 -0.3494
  837YOPE   PO412392  16.572  10.715   5.945  0.2967  0.0767 -0.1194
  837YOPE   GL112393  16.808  10.840   6.258 -0.0579  0.0991 -0.5382
  837YOPE   GL212394  16.567  10.908   6.454  0.0872  0.2529 -0.3036
  837YOPE   C1A12395  17.111  10.850   6.555  0.1489 -0.0912  0.1090
  837YOPE   D2A12396  17.268  10.616   6.789 -0.2049  0.1470  0.1958
  837YOPE   C3A12397  17.139  10.570   7.203 -0.0712  0.1134 -0.2671
  837YOPE   C4A12398  16.757  10.340   7.398  0.2134  0.0159  0.1618
  837YOPE   C1B12399  16.274  10.651   6.564  0.0151 -0.1882  0.1280
  837YOPE   C2B12400  16.201  10.612   6.975 -0.0910 -0.0459 -0.0587
  837YOPE   D3B12401  16.282  10.537   7.377  0.0535  0.0528 -0.3121
  837YOPE   C4B12402  16.095  10.542   7.849 -0.4764 -0.2883  0.1574
  838YOPE   NH312403  11.210  13.350   5.968  0.0547 -0.0847  0.1522
  838YOPE   PO412404  11.438  13.794   5.978  0.0748  0.0644 -0.0403
  838YOPE   GL112405  11.592  13.833   6.433  0.2913  0.1380  0.0677
  838YOPE   GL212406  11.890  13.973   6.619 -0.1589  0.0582 -0.4204
  838YOPE   C1A12407  11.447  14.058   6.743  0.1213  0.0167 -0.1744
  838YOPE   D2A12408  11.584  13.943   7.133 -0.0345 -0.0943  0.2821
  838YOPE   C3A12409  11.248  14.086   7.437  0.3469  0.1347 -0.2345
  838YOPE   C4A12410  11.092  14.015   7.882 -0.2724 -0.3811 -0.3595
  838YOPE   C1B12411  12.033  13.846   7.014 -0.2215 -0.3245 -0.3194
  838YOPE   C2B12412  11.999  13.809   7.421  0.1740  0.1846 -0.0665
  838YOPE   D3B12413  11.592  13.739   7.651  0.0836 -0.0804  0.3735
  838YOPE   C4B12414  11.368  13.723   8.137  0.1915 -0.4451 -0.0251
  839YOPE   NH312415   5.950  14.208   4.917  0.4396  0.2350 -0.1076
  839YOPE   PO412416   5.521  14.264   5.107  0.1766  0.1361  0.0430
  839YOPE   GL112417   5.469  14.244   5.525  0.0886  0.0509  0.0011
  839YOPE   GL212418   5.150  14.299   5.551  0.1342  0.3510  0.3434
  839YOPE   C1A12419   5.771  13.931   5.656 -0.2932 -0.0011  0.0124
  839YOPE   D2A12420   6.130  13.550   5.714 -0.0336  0.1652  0.0862
  839YOPE   C3A12421   6.071  13.464   6.142  0.2303 -0.3282 -0.2767
  839YOPE   C4A12422   5.675  13.539   6.570  0.2676  0.0626  0.2031
  839YOPE   C1B12423   5.201  14.581   5.897  0.4699  0.1297  0.2027
  839YOPE   C2B12424   5.396  14.691   6.309  0.0129 -0.1979 -0.1842
  839YOPE   D3B12425   5.739  14.926   6.408  0.2297 -0.1305 -0.3531
  839YOPE   C4B12426   5.716  15.234   6.726 -0.0399  0.2277  0.1313
  840YOPE   NH312427   2.539  12.783   5.637 -0.1851  0.2272 -0.1642
  840YOPE   PO412428   2.836  12.520   5.706  0.0373 -0.4255 -0.1193
  840YOPE   GL112429   2.791  12.432   6.125  0.0974 -0.0008 -0.3067
  840YOPE   GL212430   3.065  12.301   6.157 -0.1537 -0.0104  0.0759
  840YOPE   C1A12431   2.732  12.723   6.476  0.1387  0.4144 -0.0901
  840YOPE   D2A12432   2.663  12.751   6.878  0.1124  0.5371 -0.2280
  840YOPE   C3A12433   2.995  12.804   7.262  0.1146  0.5032 -0.0476
  840YOPE   C4A12434   3.217  12.559   7.480 -0.3861  0.0561 -0.0122
  840YOPE   C1B12435   3.219  12.485   6.500 -0.2751  0.3484  0.2234
  840YOPE   C2B12436   3.566  12.515   6.753 -0.1072 -0.0404 -0.0991
  840YOPE   D3B12437   3.665  12.705   7.202  0.2575  0.1735 -0.0404
  840YOPE   C4B12438   3.913  13.059   7.353  0.2031  0.1186 -0.1504
  841YOPE   NH312439   2.162  10.396   5.346  0.2276  0.2132 -0.2569
  841YOPE   PO412440   2.357  10.022   5.281  0.1147  0.0851  0.0939
  841YOPE   GL112441   2.074   9.999   5.686  0.3591  0.0826 -0.0994
  841YOPE   GL212442   1.868   9.793   5.883  0.4054  0.0831  0.0691
  841YOPE   C1A12443   2.007  10.222   6.063  0.0852 -0.0423  0.1061
  841YOPE   D2A12444   1.993  10.153   6.526  0.1596  0.0297 -0.0620
  841YOPE   C3A12445   2.186  10.146   6.958 -0.7302 -0.0955 -0.2379
  841YOPE   C4A12446   2.209  10.334   7.466  0.2314  0.1062  0.1631
  841YOPE   C1B12447   2.172   9.506   6.162  0.2245  0.0266 -0.0049
  841YOPE   C2B12448   2.536   9.432   6.338 -0.0515 -0.0412 -0.1544
  841YOPE   D3B12449   2.889   9.675   6.448 -0.0035  0.0411  0.1028
  841YOPE   C4B12450   3.105  10.024   6.538 -0.2050 -0.1196 -0.2570
  842YOPE   NH312451  15.487  17.314   5.662  0.0026  0.0789  0.0710
  842YOPE   PO412452  15.600  16.988   5.413 -0.0467 -0.2499 -0.0641
  842YOPE   GL112453  15.530  16.819   5.866 -0.3143 -0.1599 -0.0675
  842YOPE   GL212454  15.387  17.040   6.083  0.0541  0.0211  0.0684
  842YOPE   C1A12455  15.714  16.666   6.249 -0.0595 -0.2498 -0.0794
  842YOPE   D2A12456  15.807  16.384   6.571  0.0950 -0.2413 -0.1310
  842YOPE   C3A12457  16.246  16.341   6.554  0.0145  0.0270 -0.2108
  842YOPE   C4A12458  16.520  16.189   6.778 -0.1444 -0.3536  0.0053
  842YOPE   C1B12459  15.427  17.237   6.435 -0.2562  0.2885  0.0238
  842YOPE   C2B12460  15.384  17.326   6.910 -0.3732 -0.1039 -0.0331
  842YOPE   D3B12461  15.647  17.158   7.318  0.1970  0.0531 -0.2585
  842YOPE   C4B12462  15.991  17.194   7.605  0.0329 -0.0695 -0.1500
  843YOPE   NH312463  15.102  15.194   5.701 -0.1289  0.0645 -0.0937
  843YOPE   PO412464  15.485  14.970   5.753  0.0544  0.1322 -0.1362
  843YOPE   GL112465  15.590  14.741   6.253  0.2193  0.1928  0.1949
  843YOPE   GL212466  15.994  14.732   6.387  0.0335  0.1486  0.2736
  843YOPE   C1A12467  15.605  14.981   6.652  0.1210  0.0652  0.1390
  843YOPE   D2A12468  15.745  15.048   7.147  0.2711 -0.1448 -0.0378
  843YOPE   C3A12469  15.676  14.904   7.523  0.3556 -0.0045 -0.4211
  843YOPE   C4A12470  15.748  14.700   7.904 -0.1633  0.0222 -0.2110
  843YOPE   C1B12471  16.098  14.675   6.852 -0.0268  0.3412  0.0405
  843YOPE   C2B12472  15.898  14.546   7.257  0.2785  0.1567  0.0322
  843YOPE   D3B12473  15.881  14.212   7.620  0.3358  0.0948 -0.1160
  843YOPE   C4B12474  15.708  14.162   8.021 -0.1539  0.0570  0.2334
  844YOPE   NH312475   9.297   5.156   5.522  0.1466  0.1079  0.3006
  844YOPE   PO412476   9.072   5.487   5.487  0.2747  0.2749  0.0618
  844YOPE   GL112477   8.864   5.385   5.919 -0.2616  0.0331  0.3054
  844YOPE   GL212478   9.018   5.058   5.891  0.0877  0.3103 -0.0983
  844YOPE   C1A12479   8.622   5.458   6.310  0.3347 -0.1938 -0.0441
  844YOPE   D2A12480   8.311   5.562   6.574  0.2894 -0.0612 -0.0281
  844YOPE   C3A12481   8.145   5.522   7.018  0.0125 -0.1188 -0.3212
  844YOPE   C4A12482   8.137   5.293   7.450  0.2093  0.0070  0.0978
  844YOPE   C1B12483   8.906   5.009   6.285  0.0435  0.0224 -0.0380
  844YOPE   C2B12484   8.825   4.948   6.743  0.1097  0.1134  0.0754
  844YOPE   D3B12485   8.488   5.159   7.129  0.0914  0.2174 -0.1994
  844YOPE   C4B12486   8.383   4.797   7.436 -0.0025  0.0664 -0.0072
  845YOPE   NH312487  11.096  12.840   5.915 -0.2018  0.0800 -0.1649
  845YOPE   PO412488  11.321  12.429   5.982 -0.1017  0.0980  0.0205
  845YOPE   GL112489  11.193  12.568   6.373 -0.0879 -0.1896 -0.1114
  845YOPE   GL212490  11.439  12.597   6.546  0.3288  0.2147 -0.0352
  845YOPE   C1A12491  11.031  12.574   6.808 -0.0097 -0.2160  0.2646
  845YOPE   D2A12492  11.048  12.523   7.181 -0.0656  0.1224 -0.1483
  845YOPE   C3A12493  10.921  12.823   7.458 -0.1259 -0.2747  0.0323
  845YOPE   C4A12494  10.604  13.052   7.639 -0.0312  0.0803  0.2977
  845YOPE   C1B12495  11.695  12.536   6.807  0.2294  0.1359 -0.1071
  845YOPE   C2B12496  11.846  12.480   7.239  0.0114 -0.0516 -0.0646
  845YOPE   D3B12497  11.792  12.341   7.663  0.1405 -0.0618 -0.0601
  845YOPE   C4B12498  11.491  12.284   8.071 -0.1955 -0.1531  0.0388
  846YOPE   NH312499  17.200  11.646   6.059 -0.0160  0.1627 -0.0939
  846YOPE   PO412500  16.750  11.330   6.139  0.2345  0.0956 -0.0803
  846YOPE   GL112501  16.801  11.541   6.520 -0.1243 -0.1296 -0.1639
  846YOPE   GL212502  16.841  11.260   6.792 -0.0194 -0.1926 -0.2182
  846YOPE   C1A12503  16.703  11.696   6.982  0.1003 -0.0374 -0.5277
  846YOPE   D2A12504  16.684  11.659   7.416 -0.1505  0.0541 -0.0885
  846YOPE   C3A12505  16.741  11.365   7.733  0.0738 -0.0205 -0.2519
  846YOPE   C4A12506  16.847  11.107   8.083 -0.0302  0.1199 -0.0798
  846YOPE   C1B12507  17.014  11.116   7.157 -0.1096  0.1638 -0.0852
  846YOPE   C2B12508  17.181  10.936   7.570 -0.0868  0.0442  0.2019
  846YOPE   D3B12509  17.284  10.845   7.993  0.0811 -0.1028 -0.1368
  846YOPE   C4B12510  17.471  11.052   8.334  0.1581 -0.1178  0.1242
  847YOPE   NH312511  10.024   6.767   5.588 -0.1714  0.0834 -0.0690
  847YOPE   PO412512   9.614   6.742   5.664 -0.0038 -0.2413  0.1446
  847YOPE   GL112513   9.752   6.471   5.945  0.2416  0.1486 -0.3495
  847YOPE   GL212514   9.599   6.191   6.035 -0.2686 -0.2933 -0.2887
  847YOPE   C1A12515   9.838   6.427   6.407  0.1834  0.0296 -0.1009
  847YOPE   D2A12516   9.678   6.307   6.818  0.1581  0.4021  0.0730
  847YOPE   C3A12517   9.543   6.477   7.254 -0.1528 -0.2123 -0.0935
  847YOPE   C4A12518   9.257   6.382   7.634 -0.0695  0.0182 -0.1409
  847YOPE   C1B12519   9.581   6.006   6.422  0.1210  0.1500 -0.2259
  847YOPE   C2B12520   9.711   5.673   6.656  0.1464  0.0147 -0.0758
  847YOPE   D3B12521   9.873   5.378   6.986 -0.3999  0.0394  0.0789
  847YOPE   C4B12522   9.840   4.951   7.354  0.1493  0.0277 -0.0568
  848YOPE   NH312523  16.461   0.426   5.932  0.2695  0.1191 -0.0403
  848YOPE   PO412524  16.335   0.020   5.977 -0.1654  0.3140  0.2097
  848YOPE   GL112525  16.336   0.079   6.336  0.3017  0.3709 -0.1003
  848YOPE   GL212526  16.180   0.344   6.397 -0.0363 -0.0985 -0.2575
  848YOPE   C1A12527  16.297   0.057   6.763 -0.1162  0.0849  0.1850
  848YOPE   D2A12528  16.267  -0.071   7.077 -0.3845 -0.1508 -0.1388
  848YOPE   C3A12529  16.510  -0.438   7.030  0.0950  0.0418  0.1180
  848YOPE   C4A12530  16.908  -0.560   7.364  0.0052  0.2199  0.1048
  848YOPE   C1B12531  16.152   0.519   6.935  0.2453 -0.0775  0.1205
  848YOPE   C2B12532  15.809   0.650   7.071 -0.3965 -0.0217 -0.0077
  848YOPE   D3B12533  15.781   0.760   7.406  0.0088 -0.2750 -0.2240
  848YOPE   C4B12534  15.912   0.912   7.761 -0.2833  0.0018  0.0952
  849YOPE   NH312535   3.840  17.227   5.533 -0.0843 -0.0960 -0.2139
  849YOPE   PO412536   3.675  16.848   5.702 -0.0651 -0.4820  0.1797
  849YOPE   GL112537   3.446  16.743   6.012 -0.0257  0.0439 -0.1192
  849YOPE   GL212538   3.203  16.533   6.033  0.1215  0.2224  0.1380
  849YOPE   C1A12539   3.129  17.011   6.308  0.2137  0.2165 -0.1521
  849YOPE   D2A12540   3.036  17.178   6.686  0.3550  0.0107  0.0591
  849YOPE   C3A12541   3.361  16.919   6.970  0.0903  0.0240 -0.0222
  849YOPE   C4A12542   3.718  16.635   7.113 -0.3267 -0.0222 -0.0890
  849YOPE   C1B12543   2.969  16.282   6.363 -0.2080 -0.1620 -0.0995
  849YOPE   C2B12544   2.809  16.232   6.728 -0.0337  0.1950  0.0402
  849YOPE   D3B12545   2.641  15.881   7.127 -0.0373 -0.1676  0.2561
  849YOPE   C4B12546   2.461  15.749   7.532  0.0357 -0.0159  0.1270
  850YOPE   NH312547   9.379  13.526   5.392  0.0984 -0.0651 -0.3699
  850YOPE   PO412548   9.449  13.798   5.791  0.0523  0.0148  0.0370
  850YOPE   GL112549   9.592  13.604   6.186 -0.0097  0.1085 -0.3396
  850YOPE   GL212550   9.650  13.845   6.390  0.0950  0.4372  0.1547
  850YOPE   C1A12551   9.481  13.405   6.570  0.2513  0.1605  0.2592
  850YOPE   D2A12552   9.401  13.314   6.938 -0.1527 -0.1632  0.0029
  850YOPE   C3A12553   9.092  13.577   7.071 -0.2439 -0.2892 -0.0753
  850YOPE   C4A12554   8.759  13.635   7.186  0.3865 -0.1682 -0.0985
  850YOPE   C1B12555   9.769  13.789   6.904 -0.1281 -0.1737  0.3087
  850YOPE   C2B12556   9.767  14.000   7.229  0.1454 -0.1099  0.1484
  850YOPE   D3B12557  10.172  14.106   7.439  0.3365 -0.5013 -0.1580
  850YOPE   C4B12558  10.536  14.138   7.661  0.0723 -0.2186 -0.1773
  851YOPE   NH312559   8.466   1.600   5.643  0.1856 -0.0644  0.3426
  851YOPE   PO412560   8.560   1.168   5.572 -0.0479  0.0502 -0.0703
  851YOPE   GL112561   8.825   1.143   5.949  0.1199 -0.1890  0.0334
  851YOPE   GL212562   8.987   0.913   5.877  0.0572 -0.4830 -0.1587
  851YOPE   C1A12563   8.668   1.201   6.417  0.2217  0.0065 -0.1004
  851YOPE   D2A12564   8.484   0.926   6.703  0.4631  0.1099 -0.0045
  851YOPE   C3A12565   8.585   0.859   7.011 -0.0997  0.2463 -0.0867
  851YOPE   C4A12566   8.517   0.898   7.497 -0.1706  0.3195  0.1693
  851YOPE   C1B12567   9.057   0.678   6.255  0.1371  0.0969  0.0069
  851YOPE   C2B12568   8.934   0.700   6.591  0.0416  0.2236 -0.2706
  851YOPE   D3B12569   9.097   0.622   6.943  0.0027  0.2145  0.1255
  851YOPE   C4B12570   8.908   0.617   7.403  0.2278 -0.4468 -0.0767
  852YOPE   NH312571  16.891   0.932   5.424 -0.2901 -0.1671 -0.0331
  852YOPE   PO412572  16.926   0.698   5.841  0.1970  0.1815  0.3779
  852YOPE   GL112573  16.693   0.757   6.251  0.0552  0.3111 -0.0267
  852YOPE   GL212574  16.363   0.820   6.282  0.0043 -0.1576 -0.2995
  852YOPE   C1A12575  16.548   0.506   6.630  0.0705 -0.0048 -0.1146
  852YOPE   D2A12576  16.654   0.384   7.070  0.2895  0.2610 -0.1984
  852YOPE   C3A12577  16.974   0.429   7.371  0.0299 -0.1089 -0.2280
  852YOPE   C4A12578  16.929   0.641   7.782 -0.1025  0.1829  0.5040
  852YOPE   C1B12579  16.159   0.970   6.692  0.0041  0.1101  0.5831
  852YOPE   C2B12580  15.934   1.129   6.989 -0.2493 -0.1701 -0.0117
  852YOPE   D3B12581  15.676   1.401   7.203  0.1981  0.0236  0.2369
  852YOPE   C4B12582  15.282   1.499   7.473  0.2811  0.1330  0.3745
  853YOPE   NH312583   2.959  13.469   5.451  0.2975  0.0593 -0.2318
  853YOPE   PO412584   3.259  13.212   5.250 -0.1050  0.0295 -0.0311
  853YOPE   GL112585   3.438  13.377   5.655 -0.0631  0.0502 -0.3503
  853YOPE   GL212586   3.523  13.691   5.683 -0.0806 -0.2126 -0.2281
  853YOPE   C1A12587   3.200  13.373   6.060  0.0778  0.2507 -0.1901
  853YOPE   D2A12588   2.878  13.501   6.288 -0.1125  0.2169 -0.0398
  853YOPE   C3A12589   3.029  13.201   6.650  0.0180  0.0664 -0.0981
  853YOPE   C4A12590   3.141  12.913   6.787  0.0887  0.0034  0.2694
  853YOPE   C1B12591   3.779  13.560   6.104 -0.2330  0.0112 -0.3528
  853YOPE   C2B12592   3.974  13.164   6.260  0.0271  0.0299  0.0480
  853YOPE   D3B12593   3.952  12.947   6.481  0.1717 -0.2480  0.1695
  853YOPE   C4B12594   4.037  12.654   6.905  0.1311 -0.0124 -0.1104
  854YOPE   NH312595  11.134   6.221   5.901 -0.3160 -0.1489  0.0987
  854YOPE   PO412596  10.726   6.392   5.753 -0.0489 -0.0742 -0.3265
  854YOPE   GL112597  10.645   6.022   6.074  0.1415 -0.0251 -0.1109
  854YOPE   GL212598  10.887   5.777   5.947  0.0971 -0.1754 -0.1067
  854YOPE   C1A12599  10.508   5.852   6.537 -0.0424  0.2051 -0.2830
  854YOPE   D2A12600  10.675   5.979   6.870  0.0934 -0.1031 -0.0067
  854YOPE   C3A12601  10.473   6.104   7.252 -0.1882 -0.0891  0.1448
  854YOPE   C4A12602  10.362   6.277   7.588 -0.1861 -0.1243 -0.1194
  854YOPE   C1B12603  10.957   5.969   6.458  0.1326  0.0712  0.0763
  854YOPE   C2B12604  11.170   5.966   6.912  0.2353 -0.4627  0.3866
  854YOPE   D3B12605  11.098   5.697   7.191 -0.2006 -0.0059 -0.4645
  854YOPE   C4B12606  11.028   5.561   7.519  0.0786 -0.3042  0.2268
  855YOPE   NH312607   8.479   9.165   5.778 -0.0213 -0.1301  0.0431
  855YOPE   PO412608   8.901   9.123   5.913 -0.3091  0.1028  0.5495
  855YOPE   GL112609   8.777   9.166   6.311 -0.1402  0.0944 -0.1815
  855YOPE   GL212610   8.427   8.999   6.354  0.0970 -0.0438  0.1224
  855YOPE   C1A12611   8.497   9.260   6.726 -0.0369  0.0790  0.1761
  855YOPE   D2A12612   8.433   9.281   7.204 -0.3631  0.2719  0.1708
  855YOPE   C3A12613   8.035   9.543   7.278  0.1964  0.7073  0.0059
  855YOPE   C4A12614   7.644   9.494   7.488 -0.0778 -0.0091  0.0639
  855YOPE   C1B12615   8.263   8.750   6.666  0.0607 -0.1081 -0.2080
  855YOPE   C2B12616   8.205   8.887   7.122  0.2553 -0.1464  0.2809
  855YOPE   D3B12617   8.026   9.051   7.476  0.1847  0.1341  0.1125
  855YOPE   C4B12618   7.936   9.305   7.831  0.4634 -0.1848  0.0715
  856YOPE   NH312619   0.298   8.129   5.241 -0.0893  0.0317  0.1306
  856YOPE   PO412620   0.623   7.964   5.467  0.0768 -0.1409  0.0607
  856YOPE   GL112621   0.707   8.041   5.913 -0.1389  0.2395  0.1133
  856YOPE   GL212622   0.614   8.378   5.871 -0.0375 -0.1318 -0.0527
  856YOPE   C1A12623   0.749   8.194   6.350  0.2698  0.1324  0.1651
  856YOPE   D2A12624   1.060   8.169   6.632 -0.1237 -0.3142  0.1346
  856YOPE   C3A12625   1.209   8.019   6.940 -0.3527 -0.2688  0.1923
  856YOPE   C4A12626   1.493   7.896   7.113  0.1177  0.2319 -0.1231
  856YOPE   C1B12627   0.803   8.650   6.285 -0.2147 -0.1720 -0.0563
  856YOPE   C2B12628   0.856   8.610   6.618  0.0129  0.2824 -0.4239
  856YOPE   D3B12629   0.788   8.375   7.051  0.1890 -0.0612  0.1617
  856YOPE   C4B12630   0.584   8.239   7.394  0.1768 -0.0558 -0.4935
  857YOPE   NH312631  13.188  18.086   5.702  0.0052  0.1060  0.0468
  857YOPE   PO412632  13.220  18.552   5.563 -0.0814 -0.0598 -0.1275
  857YOPE   GL112633  13.167  18.678   6.044 -0.0427 -0.1644 -0.3304
  857YOPE   GL212634  13.408  18.367   6.051 -0.0067 -0.2163  0.2356
  857YOPE   C1A12635  12.996  18.694   6.487 -0.0562 -0.0145 -0.3658
  857YOPE   D2A12636  13.296  18.637   6.827 -0.0450 -0.1334 -0.0260
  857YOPE   C3A12637  13.164  18.599   7.209  0.0342 -0.3585 -0.1646
  857YOPE   C4A12638  13.024  18.757   7.629  0.2346 -0.1323  0.2020
  857YOPE   C1B12639  13.085  18.268   6.407  0.1789  0.0866 -0.2503
  857YOPE   C2B12640  12.972  18.197   6.806 -0.0846 -0.0195 -0.1736
  857YOPE   D3B12641  12.870  17.989   7.129  0.3290 -0.0625  0.0078
  857YOPE   C4B12642  12.663  18.162   7.500 -0.2372 -0.1996 -0.1282
  858YOPE   NH312643  16.071   4.050   5.541 -0.0189 -0.2544  0.1095
  858YOPE   PO412644  16.255   3.718   5.394 -0.0684 -0.3243  0.3037
  858YOPE   GL112645  16.258   3.623   5.821  0.2596 -0.0501 -0.0069
  858YOPE   GL212646  16.596   3.604   5.981  0.2915 -0.1144  0.1239
  858YOPE   C1A12647  16.232   3.923   6.138  0.0558  0.1477  0.2569
  858YOPE   D2A12648  15.974   3.838   6.492  0.1781  0.3161 -0.2095
  858YOPE   C3A12649  15.991   4.194   6.778 -0.2317  0.1397  0.0772
  858YOPE   C4A12650  15.894   4.094   7.238 -0.0559 -0.0899  0.1532
  858YOPE   C1B12651  16.306   3.407   6.245 -0.1713 -0.1385  0.1501
  858YOPE   C2B12652  15.993   3.283   6.525 -0.3249 -0.1502  0.0710
  858YOPE   D3B12653  15.872   3.295   6.851 -0.0017 -0.0006  0.1423
  858YOPE   C4B12654  15.530   3.274   7.184 -0.1339 -0.0230  0.0591
  859YOPE   NH312655  12.315   3.364   5.791  0.1537 -0.0703 -0.0876
  859YOPE   PO412656  12.801   3.435   5.789  0.0610  0.1321 -0.0629
  859YOPE   GL112657  12.712   3.546   6.101  0.0157 -0.1000 -0.3975
  859YOPE   GL212658  12.690   3.153   6.309 -0.0792 -0.0217  0.0128
  859YOPE   C1A12659  12.959   3.538   6.597  0.0856  0.1879  0.3819
  859YOPE   D2A12660  13.403   3.396   6.747  0.2489  0.2901  0.1650
  859YOPE   C3A12661  13.439   3.055   7.095 -0.0693 -0.1860 -0.1019
  859YOPE   C4A12662  13.697   2.746   6.955  0.0293 -0.1893 -0.1538
  859YOPE   C1B12663  12.988   3.060   6.646  0.3905  0.3441  0.2832
  859YOPE   C2B12664  12.966   3.244   7.012 -0.4923 -0.0574  0.0738
  859YOPE   D3B12665  13.236   3.555   7.245  0.1201 -0.1166  0.2880
  859YOPE   C4B12666  13.547   3.409   7.615 -0.0803  0.0164  0.0230
  860YOPE   NH312667   5.360  10.298   5.614  0.0698 -0.1665  0.1301
  860YOPE   PO412668   4.893  10.342   5.551  0.1374 -0.0261  0.0545
  860YOPE   GL112669   4.911  10.358   5.969  0.3356 -0.0694 -0.1180
  860YOPE   GL212670   5.194  10.191   6.088  0.1756  0.0168  0.0023
  860YOPE   C1A12671   4.728  10.453   6.309 -0.3428 -0.2508  0.3224
  860YOPE   D2A12672   4.676  10.384   6.736  0.0582  0.2647  0.0721
  860YOPE   C3A12673   4.487  10.278   7.147 -0.0261  0.2493  0.2694
  860YOPE   C4A12674   4.078  10.282   7.343  0.2081 -0.0708 -0.2416
  860YOPE   C1B12675   5.428   9.726   6.295  0.0424  0.0789 -0.0869
  860YOPE   C2B12676   5.184   9.309   6.467 -0.2076  0.2025  0.0031
  860YOPE   D3B12677   4.862   9.246   6.846 -0.0355  0.0527  0.1122
  860YOPE   C4B12678   4.618   9.293   7.226  0.1508  0.3094 -0.0115
  861YOPE   NH312679  11.440   9.734   6.058  0.3508  0.1716 -0.3847
  861YOPE   PO412680  10.992   9.863   6.051 -0.0739  0.0760 -0.0878
  861YOPE   GL112681  11.076   9.684   6.504 -0.2946  0.0939  0.0225
  861YOPE   GL212682  11.040   9.919   6.744 -0.2543  0.1278 -0.1767
  861YOPE   C1A12683  11.290   9.570   6.879  0.1335  0.0692 -0.3543
  861YOPE   D2A12684  11.231   9.560   7.296 -0.0154 -0.2763 -0.0565
  861YOPE   C3A12685  11.056   9.730   7.679  0.0442  0.1598  0.1466
  861YOPE   C4A12686  10.848   9.860   7.874  0.0149 -0.3491 -0.4447
  861YOPE   C1B12687  10.879   9.936   7.208  0.2661  0.2225 -0.0578
  861YOPE   C2B12688  10.753  10.202   7.515  0.2643  0.5184 -0.0944
  861YOPE   D3B12689  10.789  10.402   7.813 -0.1051  0.2217 -0.0475
  861YOPE   C4B12690  10.880  10.319   8.305 -0.0191  0.1656  0.1372
  862YOPE   NH312691   0.561  10.865   5.624 -0.1845  0.0244  0.2656
  862YOPE   PO412692   0.778  10.555   5.753  0.3050  0.1409  0.1018
  862YOPE   GL112693   0.449  10.598   6.079  0.2431  0.1208 -0.1492
  862YOPE   GL212694   0.401  10.893   6.104 -0.2173  0.2244 -0.4046
  862YOPE   C1A12695   0.587  10.513   6.514 -0.2061 -0.3642  0.0924
  862YOPE   D2A12696   0.781  10.288   6.742 -0.1360  0.1152  0.1027
  862YOPE   C3A12697   0.869  10.275   7.172 -0.3739  0.0642 -0.1367
  862YOPE   C4A12698   0.764  10.139   7.679 -0.0075 -0.0176  0.2536
  862YOPE   C1B12699   0.585  10.984   6.367  0.1782  0.2290 -0.1232
  862YOPE   C2B12700   0.681  10.887   6.808 -0.2020  0.2075 -0.1277
  862YOPE   D3B12701   0.773  10.758   7.171 -0.1955  0.3679 -0.1999
  862YOPE   C4B12702   0.655  10.743   7.598 -0.2800  0.0993 -0.1072
  863YOPE   NH312703   0.633  17.233   5.353  0.0489 -0.0885 -0.1512
  863YOPE   PO412704   0.454  16.998   5.720 -0.0514  0.3787  0.0381
  863YOPE   GL112705   0.567  17.209   6.189  0.0223  0.0909 -0.0053
  863YOPE   GL212706   0.744  17.581   6.224 -0.2156  0.0251 -0.3490
  863YOPE   C1A12707   0.577  17.143   6.514 -0.0174 -0.0893  0.1066
  863YOPE   D2A12708   0.561  17.340   6.948  0.0613  0.0924  0.1379
  863YOPE   C3A12709   0.305  17.640   7.110  0.0127 -0.4227  0.3510
  863YOPE   C4A12710   0.063  17.933   7.317  0.5904 -0.0181  0.2046
  863YOPE   C1B12711   0.533  17.761   6.644 -0.0235 -0.0050 -0.1236
  863YOPE   C2B12712   0.030  17.774   6.733  0.1993  0.2071 -0.1298
  863YOPE   D3B12713  -0.305  17.526   6.613  0.2423 -0.1014 -0.0414
  863YOPE   C4B12714  -0.675  17.192   6.530 -0.0128  0.1247 -0.4192
  864YOPE   NH312715  12.248   8.099   6.261 -0.0937 -0.0657  0.1386
  864YOPE   PO412716  11.896   8.448   6.295  0.1389  0.0070  0.3392
  864YOPE   GL112717  11.523   8.347   6.557  0.1941  0.0300 -0.0838
  864YOPE   GL212718  11.406   8.142   6.408  0.0745  0.0318 -0.1056
  864YOPE   C1A12719  11.474   8.366   6.922 -0.0125 -0.1943  0.3050
  864YOPE   D2A12720  11.351   8.487   7.309 -0.1364 -0.2758 -0.0026
  864YOPE   C3A12721  11.435   8.307   7.613  0.1171  0.2901  0.1344
  864YOPE   C4A12722  11.530   8.625   7.997 -0.0702 -0.0819 -0.2158
  864YOPE   C1B12723  11.075   8.167   6.698  0.2933  0.1627 -0.0393
  864YOPE   C2B12724  10.953   8.221   7.116 -0.0784 -0.0054 -0.0398
  864YOPE   D3B12725  11.016   8.089   7.584  0.2102 -0.1390  0.2957
  864YOPE   C4B12726  10.790   7.784   7.828  0.1422  0.0537 -0.0529
  865YOPE   NH312727  18.525   1.760   5.845 -0.1569  0.1563 -0.2850
  865YOPE   PO412728  19.013   1.627   5.878  0.3137 -0.2804 -0.0525
  865YOPE   GL112729  18.930   1.799   6.173  0.3252  0.1269 -0.0654
  865YOPE   GL212730  18.970   1.918   6.426 -0.0549 -0.0584  0.4080
  865YOPE   C1A12731  18.574   1.630   6.462 -0.1302  0.1985  0.0756
  865YOPE   D2A12732  18.666   1.379   6.689  0.1274  0.0708 -0.1002
  865YOPE   C3A12733  18.992   1.554   7.002 -0.0043 -0.2294 -0.0311
  865YOPE   C4A12734  19.399   1.557   7.379  0.1200 -0.0844 -0.0284
  865YOPE   C1B12735  19.000   2.052   6.791 -0.0099  0.0475 -0.0160
  865YOPE   C2B12736  18.936   2.009   7.256  0.0984 -0.0046  0.1570
  865YOPE   D3B12737  19.224   2.242   7.547 -0.1602  0.1598  0.2526
  865YOPE   C4B12738  19.579   2.467   7.889  0.1862 -0.2151  0.1158
  866YOPE   NH312739   1.454  13.784   5.658 -0.0771  0.0841  0.1306
  866YOPE   PO412740   1.723  13.308   5.473  0.2726  0.1219 -0.0869
  866YOPE   GL112741   1.730  13.327   5.872 -0.1269 -0.0065 -0.0157
  866YOPE   GL212742   1.444  13.232   5.941 -0.0364  0.1609 -0.0931
  866YOPE   C1A12743   1.882  13.108   6.269 -0.0696  0.0811  0.2459
  866YOPE   D2A12744   2.195  12.801   6.574 -0.1188 -0.2361  0.2191
  866YOPE   C3A12745   2.233  12.760   7.082  0.0993 -0.3141 -0.3044
  866YOPE   C4A12746   2.505  12.731   7.473 -0.2561  0.0823  0.1796
  866YOPE   C1B12747   1.491  13.356   6.282  0.2759  0.0919 -0.2026
  866YOPE   C2B12748   1.417  13.130   6.740 -0.1443 -0.0887  0.0444
  866YOPE   D3B12749   1.358  12.791   6.925  0.3043 -0.0064 -0.1146
  866YOPE   C4B12750   1.009  12.606   7.225 -0.0096 -0.0851  0.1450
  867YOPE   NH312751   9.870   7.227   5.695  0.0677 -0.0619  0.1022
  867YOPE   PO412752   9.605   7.291   5.943  0.1214  0.4070 -0.1491
  867YOPE   GL112753   9.528   7.172   6.339 -0.3222  0.4656 -0.1631
  867YOPE   GL212754   9.552   6.775   6.471 -0.1356 -0.3547  0.0074
  867YOPE   C1A12755   9.424   7.173   6.715 -0.1619  0.1453 -0.3512
  867YOPE   D2A12756   9.313   7.213   7.154 -0.2750 -0.4793  0.1897
  867YOPE   C3A12757   9.205   6.886   7.446  0.3186  0.0474  0.1989
  867YOPE   C4A12758   8.840   6.557   7.478 -0.0866 -0.1237  0.3148
  867YOPE   C1B12759   9.347   6.640   6.823 -0.3407  0.0485  0.0433
  867YOPE   C2B12760   8.998   6.576   6.998  0.2023  0.3079  0.2183
  867YOPE   D3B12761   8.563   6.637   7.059 -0.2362 -0.2981 -0.2332
  867YOPE   C4B12762   8.369   6.825   7.340 -0.1183 -0.0722  0.0322
  868YOPE   NH312763  11.606  15.863   5.881  0.0799  0.0519  0.3017
  868YOPE   PO412764  11.785  15.465   5.978 -0.0378  0.1807 -0.2574
  868YOPE   GL112765  11.775  15.703   6.349  0.2164 -0.0961 -0.0072
  868YOPE   GL212766  11.901  15.971   6.275 -0.0390  0.0304  0.2289
  868YOPE   C1A12767  11.941  15.793   6.757 -0.2725  0.0077  0.1165
  868YOPE   D2A12768  11.878  15.714   7.221  0.1489  0.0404  0.3805
  868YOPE   C3A12769  12.127  15.921   7.629  0.1679 -0.1480  0.3964
  868YOPE   C4A12770  11.823  16.027   7.933  0.0194 -0.2162  0.1594
  868YOPE   C1B12771  11.835  16.247   6.588  0.0180 -0.4563 -0.0873
  868YOPE   C2B12772  11.805  16.208   7.034  0.3444 -0.1318 -0.0145
  868YOPE   D3B12773  11.628  16.149   7.396  0.0506 -0.1063  0.0666
  868YOPE   C4B12774  11.384  16.223   7.847  0.3821  0.1265  0.2692
  869YOPE   NH312775  15.051  11.989   6.375 -0.1106 -0.0122 -0.2803
  869YOPE   PO412776  14.727  11.692   6.186  0.1770 -0.3163  0.0126
  869YOPE   GL112777  14.357  11.651   6.505  0.0422  0.0158  0.3292
  869YOPE   GL212778  14.162  11.886   6.723 -0.1816 -0.3610  0.0943
  869YOPE   C1A12779  14.426  11.482   6.900  0.1044  0.0794 -0.0701
  869YOPE   D2A12780  14.519  11.387   7.330  0.1686  0.1038  0.0270
  869YOPE   C3A12781  14.205  11.175   7.585 -0.1154 -0.1928 -0.1640
  869YOPE   C4A12782  14.401  11.129   7.975 -0.0586 -0.1201  0.0356
  869YOPE   C1B12783  13.887  11.512   6.972 -0.0327 -0.0854  0.1701
  869YOPE   C2B12784  13.731  11.316   7.381  0.0757 -0.2214 -0.1517
  869YOPE   D3B12785  13.657  11.135   7.767 -0.0731 -0.0305 -0.1227
  869YOPE   C4B12786  14.001  10.850   7.939  0.2496  0.0671 -0.1734
  870YOPE   NH312787   5.966   9.735   5.478  0.0854 -0.0012  0.0571
  870YOPE   PO412788   6.316   9.979   5.771  0.2225  0.0739  0.2728
  870YOPE   GL112789   6.302  10.129   6.170  0.1725 -0.2848  0.2071
  870YOPE   GL212790   6.154  10.397   6.064  0.1124  0.3043  0.1032
  870YOPE   C1A12791   6.244  10.132   6.694  0.0253 -0.2221  0.0937
  870YOPE   D2A12792   6.453  10.122   7.165  0.1279  0.1167 -0.0996
  870YOPE   C3A12793   6.281  10.017   7.530 -0.1608 -0.3288  0.1420
  870YOPE   C4A12794   6.181  10.161   7.926  0.1452 -0.3022 -0.0053
  870YOPE   C1B12795   5.983  10.505   6.381  0.2345 -0.2855 -0.2177
  870YOPE   C2B12796   5.832  10.603   6.670  0.1108 -0.0608  0.0537
  870YOPE   D3B12797   5.464  10.604   6.859  0.0685  0.1885 -0.0847
  870YOPE   C4B12798   5.482  10.656   7.258 -0.3403  0.0175  0.0444
  871YOPE   NH312799  14.174  14.010   5.949  0.4239  0.0354  0.3243
  871YOPE   PO412800  14.533  14.019   6.032  0.2029  0.0707 -0.0267
  871YOPE   GL112801  14.526  13.868   6.440 -0.0330  0.0094  0.2423
  871YOPE   GL212802  14.666  13.564   6.493  0.0838 -0.0138  0.0042
  871YOPE   C1A12803  14.669  14.214   6.717 -0.1937  0.0676  0.3834
  871YOPE   D2A12804  14.446  14.429   6.983 -0.0128  0.1998 -0.5053
  871YOPE   C3A12805  14.317  14.508   7.358 -0.1084  0.2264  0.2602
  871YOPE   C4A12806  14.334  14.661   7.774 -0.2988 -0.0008  0.1639
  871YOPE   C1B12807  14.666  13.607   6.845  0.1378  0.0706  0.2485
  871YOPE   C2B12808  14.781  13.653   7.409  0.5587 -0.2957  0.0937
  871YOPE   D3B12809  14.687  13.623   7.728 -0.1265 -0.3088 -0.1412
  871YOPE   C4B12810  14.867  13.827   8.168 -0.0274  0.0488  0.1988
  872YOPE   NH312811   5.341  12.274   5.098 -0.3060 -0.2772 -0.0798
  872YOPE   PO412812   4.964  12.610   5.276 -0.2371 -0.0852  0.2740
  872YOPE   GL112813   5.229  12.404   5.648  0.1152  0.0355  0.1360
  872YOPE   GL212814   5.505  12.394   5.630  0.2898 -0.2783 -0.2562
  872YOPE   C1A12815   5.131  12.091   5.880  0.2414  0.0475  0.3117
  872YOPE   D2A12816   4.899  12.006   6.295 -0.0664 -0.2088 -0.1065
  872YOPE   C3A12817   4.830  12.277   6.607 -0.1362 -0.2632  0.0497
  872YOPE   C4A12818   4.544  12.533   6.825 -0.1771  0.1107 -0.1942
  872YOPE   C1B12819   5.762  12.566   6.044  0.1550 -0.0620 -0.0566
  872YOPE   C2B12820   5.841  12.728   6.448  0.3023  0.0431  0.0645
  872YOPE   D3B12821   5.746  12.659   6.849  0.0714 -0.1812 -0.0610
  872YOPE   C4B12822   5.770  12.848   7.155 -0.1755 -0.1801  0.0224
  873YOPE   NH312823  14.676  12.663   6.364 -0.0295  0.0708 -0.0181
  873YOPE   PO412824  14.234  12.550   6.315  0.1968  0.2129  0.0005
  873YOPE   GL112825  13.900  12.740   6.490  0.2239  0.0110  0.0548
  873YOPE   GL212826  13.644  12.845   6.424 -0.1502 -0.2857 -0.0104
  873YOPE   C1A12827  13.870  13.052   6.875 -0.0475 -0.0578  0.2720
  873YOPE   D2A12828  13.660  13.100   7.265  0.0323 -0.0294  0.1488
  873YOPE   C3A12829  13.828  13.246   7.620  0.1455  0.1852 -0.1584
  873YOPE   C4A12830  13.684  13.406   8.028  0.3056  0.0242  0.2500
  873YOPE   C1B12831  13.394  12.865   6.845  0.0860 -0.0505 -0.1284
  873YOPE   C2B12832  13.163  12.877   7.217  0.0177 -0.1945  0.0548
  873YOPE   D3B12833  12.900  12.896   7.636  0.0112  0.3311  0.0812
  873YOPE   C4B12834  13.059  12.720   8.090 -0.0892  0.0523 -0.2568
  874YOPE   NH312835   6.006  16.274   5.362  0.0979 -0.0642 -0.3872
  874YOPE   PO412836   6.150  15.847   5.432 -0.0818 -0.2161 -0.1898
  874YOPE   GL112837   6.395  15.615   5.760 -0.2463  0.0428  0.0807
  874YOPE   GL212838   6.570  15.811   5.923 -0.0997  0.3120  0.0433
  874YOPE   C1A12839   6.251  15.438   6.135  0.0425  0.0379  0.2281
  874YOPE   D2A12840   6.076  15.374   6.421  0.0164 -0.3381 -0.2296
  874YOPE   C3A12841   6.193  15.328   6.838  0.1436  0.1877  0.4735
  874YOPE   C4A12842   6.541  15.111   7.009 -0.1725  0.1009  0.1158
  874YOPE   C1B12843   6.879  15.542   6.175 -0.0880 -0.1098 -0.0062
  874YOPE   C2B12844   7.177  15.767   6.435  0.2477 -0.2924 -0.0106
  874YOPE   D3B12845   7.489  15.982   6.533  0.1318  0.1198 -0.3118
  874YOPE   C4B12846   7.571  16.175   6.868 -0.1224  0.2057 -0.0766
  875YOPE   NH312847   2.089   4.357   5.824  0.4438 -0.2570  0.4263
  875YOPE   PO412848   1.679   4.127   5.753 -0.1729  0.1502  0.1264
  875YOPE   GL112849   1.579   4.154   6.138 -0.3459  0.0060 -0.2474
  875YOPE   GL212850   1.665   4.412   6.209  0.1722 -0.0627  0.0216
  875YOPE   C1A12851   1.444   4.197   6.625  0.3184  0.1565 -0.0413
  875YOPE   D2A12852   1.633   4.246   7.020 -0.0383  0.0873 -0.0184
  875YOPE   C3A12853   1.684   4.672   7.309 -0.1142  0.0146  0.2356
  875YOPE   C4A12854   1.448   4.856   7.705  0.1867  0.0039  0.0355
  875YOPE   C1B12855   1.752   4.592   6.599 -0.2243 -0.0122  0.1005
  875YOPE   C2B12856   1.733   4.941   6.826 -0.0040 -0.0427  0.1846
  875YOPE   D3B12857   1.890   5.181   7.209  0.0883  0.0072  0.1510
  875YOPE   C4B12858   2.342   5.440   7.334  0.1451  0.0620 -0.0524
  876YOPE   NH312859  13.616  17.674   5.886 -0.0782  0.3240  0.1596
  876YOPE   PO412860  13.311  17.601   5.536  0.4470 -0.0566  0.3233
  876YOPE   GL112861  13.034  17.570   5.876 -0.0454 -0.1407 -0.0513
  876YOPE   GL212862  12.770  17.798   6.023  0.0345  0.3416  0.1200
  876YOPE   C1A12863  12.647  17.386   6.189 -0.2587  0.0804 -0.5686
  876YOPE   D2A12864  12.306  17.109   6.355 -0.1918 -0.2558 -0.0105
  876YOPE   C3A12865  12.140  17.174   6.794  0.2019 -0.0221 -0.1641
  876YOPE   C4A12866  11.822  17.120   7.088  0.1917 -0.0407 -0.1445
  876YOPE   C1B12867  12.919  17.749   6.509 -0.2126  0.3298 -0.0956
  876YOPE   C2B12868  13.019  17.566   6.843  0.0355 -0.0115  0.0483
  876YOPE   D3B12869  13.012  17.217   7.233  0.3758  0.0344  0.0888
  876YOPE   C4B12870  12.745  16.868   7.628  0.0062  0.2926 -0.0738
  877YOPE   NH312871   7.092   8.572   5.791 -0.2676 -0.1533  0.1317
  877YOPE   PO412872   6.897   8.186   5.698 -0.2380 -0.1342 -0.4507
  877YOPE   GL112873   6.628   7.871   5.951 -0.1111 -0.0637 -0.0340
  877YOPE   GL212874   6.768   7.593   6.085  0.0790 -0.0943 -0.2900
  877YOPE   C1A12875   6.351   7.758   6.344 -0.1349 -0.0055  0.1169
  877YOPE   D2A12876   6.148   7.831   6.700 -0.1456 -0.0295  0.0234
  877YOPE   C3A12877   6.127   7.514   6.973 -0.3019 -0.0437  0.0385
  877YOPE   C4A12878   6.025   7.470   7.285 -0.3345 -0.0606  0.1509
  877YOPE   C1B12879   6.652   7.393   6.451 -0.1750 -0.0637 -0.3626
  877YOPE   C2B12880   6.546   7.265   6.862 -0.0971 -0.0988 -0.1249
  877YOPE   D3B12881   6.477   7.306   7.251  0.0229  0.2257 -0.2061
  877YOPE   C4B12882   6.376   7.421   7.639 -0.0899 -0.0785 -0.3055
  878YOPE   NH312883  15.879   0.194   6.019 -0.0147  0.0603  0.0185
  878YOPE   PO412884  15.593  -0.017   5.773  0.2862  0.0067 -0.0025
  878YOPE   GL112885  15.402  -0.031   6.235  0.3090  0.0605 -0.0619
  878YOPE   GL212886  15.401   0.301   6.322  0.0983 -0.2660  0.2477
  878YOPE   C1A12887  15.231  -0.068   6.647  0.0367 -0.2509  0.0074
  878YOPE   D2A12888  15.186  -0.113   7.025  0.1039 -0.4348 -0.0852
  878YOPE   C3A12889  14.840  -0.175   7.262 -0.0502  0.0235 -0.2477
  878YOPE   C4A12890  14.459  -0.166   7.456 -0.1233 -0.0755  0.0369
  878YOPE   C1B12891  15.359   0.742   6.436  0.1829  0.0233  0.0367
  878YOPE   C2B12892  15.465   1.014   6.770  0.1690  0.2122 -0.6280
  878YOPE   D3B12893  15.328   1.031   7.144 -0.0430  0.3853  0.1470
  878YOPE   C4B12894  15.405   1.034   7.587  0.0917  0.0344 -0.0394
  879YOPE   NH312895  17.993   6.799   5.696 -0.0689  0.1118  0.1037
  879YOPE   PO412896  17.958   7.051   5.333 -0.0331  0.0381  0.2624
  879YOPE   GL112897  18.355   7.216   5.583 -0.2006 -0.2344  0.1825
  879YOPE   GL212898  18.734   7.220   5.631 -0.0110  0.2000  0.2176
  879YOPE   C1A12899  18.381   7.336   5.982  0.0122 -0.1602  0.1854
  879YOPE   D2A12900  18.293   7.560   6.368 -0.0236 -0.1205 -0.0459
  879YOPE   C3A12901  18.112   8.008   6.399 -0.1590  0.3232 -0.4404
  879YOPE   C4A12902  18.108   8.428   6.472 -0.2827  0.0963  0.2027
  879YOPE   C1B12903  18.931   7.362   5.981  0.2522 -0.4086 -0.0500
  879YOPE   C2B12904  18.796   7.341   6.311  0.0495 -0.0024 -0.1736
  879YOPE   D3B12905  18.966   7.684   6.427 -0.1271 -0.2027  0.2631
  879YOPE   C4B12906  19.055   8.007   6.181  0.1137  0.3453  0.3116
  880YOPE   NH312907   5.831  15.414   5.639  0.0814 -0.3303  0.2045
  880YOPE   PO412908   6.183  15.170   5.547 -0.0078 -0.1494  0.3219
  880YOPE   GL112909   6.231  14.984   5.936  0.1439  0.1239  0.3246
  880YOPE   GL212910   6.172  14.662   5.876 -0.0051 -0.3628 -0.3206
  880YOPE   C1A12911   6.228  14.929   6.385 -0.2040  0.1011 -0.2090
  880YOPE   D2A12912   6.058  14.835   6.823 -0.1732 -0.2053 -0.3118
  880YOPE   C3A12913   6.121  15.021   7.198  0.1048  0.2170  0.0017
  880YOPE   C4A12914   6.213  15.408   7.526  0.1344 -0.0190  0.0435
  880YOPE   C1B12915   5.829  14.565   6.046 -0.3778  0.0849 -0.1067
  880YOPE   C2B12916   5.501  14.198   6.027 -0.1715 -0.0755  0.1528
  880YOPE   D3B12917   5.038  14.175   6.155  0.0424  0.0716  0.1015
  880YOPE   C4B12918   4.807  14.506   6.295  0.1682  0.2945  0.2615
  881YOPE   NH312919   4.986   7.453   5.206  0.3526  0.2488  0.1405
  881YOPE   PO412920   4.798   7.123   5.473 -0.2709 -0.1588 -0.4772
  881YOPE   GL112921   5.052   6.891   5.846 -0.2690 -0.3861  0.2136
  881YOPE   GL212922   5.336   6.723   5.854 -0.4275  0.1983  0.1491
  881YOPE   C1A12923   4.962   6.640   6.164  0.1381  0.1920  0.1686
  881YOPE   D2A12924   5.033   6.586   6.568  0.3968  0.0058  0.0652
  881YOPE   C3A12925   5.067   6.247   6.819 -0.0294 -0.3044 -0.0929
  881YOPE   C4A12926   4.978   6.257   7.223 -0.3480  0.0956  0.0055
  881YOPE   C1B12927   5.460   6.642   6.290  0.2806 -0.1335 -0.1634
  881YOPE   C2B12928   5.498   6.337   6.565 -0.2713 -0.2593 -0.1154
  881YOPE   D3B12929   5.461   6.212   7.111  0.1954  0.1341 -0.0969
  881YOPE   C4B12930   5.544   6.290   7.555  0.2406  0.0972 -0.0864
  882YOPE   NH312931  16.462  15.514   5.984  0.0017  0.0896  0.0210
  882YOPE   PO412932  16.845  15.526   5.845  0.1974 -0.1680  0.0175
  882YOPE   GL112933  16.819  15.592   6.302 -0.2646 -0.0569 -0.0868
  882YOPE   GL212934  17.247  15.514   6.340 -0.2481  0.3380  0.1548
  882YOPE   C1A12935  16.980  15.696   6.681 -0.0979 -0.1157  0.2433
  882YOPE   D2A12936  16.912  15.784   7.076  0.2450 -0.0389  0.2026
  882YOPE   C3A12937  17.063  15.424   7.395 -0.1606  0.1378 -0.3690
  882YOPE   C4A12938  16.938  15.236   7.797 -0.1997  0.0423  0.2082
  882YOPE   C1B12939  17.502  15.807   6.596 -0.1129  0.1282  0.3076
  882YOPE   C2B12940  17.508  15.944   6.977 -0.2352 -0.0467  0.0077
  882YOPE   D3B12941  17.431  15.800   7.365 -0.0540  0.0161  0.0109
  882YOPE   C4B12942  17.563  16.023   7.590  0.4404  0.2794  0.1079
  883YOPE   NH312943   3.442   6.958   5.624 -0.2732  0.0570 -0.0480
  883YOPE   PO412944   3.843   6.679   5.408 -0.2927  0.0066 -0.0728
  883YOPE   GL112945   3.775   6.607   5.839 -0.3510 -0.0651  0.1062
  883YOPE   GL212946   3.861   6.887   5.996  0.3180  0.1147  0.1069
  883YOPE   C1A12947   3.891   6.254   6.011 -0.1870 -0.0823 -0.0693
  883YOPE   D2A12948   3.687   5.987   6.374 -0.2620  0.4041 -0.0200
  883YOPE   C3A12949   3.944   5.823   6.705 -0.2886 -0.1902  0.2221
  883YOPE   C4A12950   3.955   5.578   7.064  0.0306 -0.2093 -0.0330
  883YOPE   C1B12951   4.163   6.846   6.319  0.3835  0.0500 -0.2638
  883YOPE   C2B12952   4.169   6.913   6.780 -0.1416  0.3025  0.0854
  883YOPE   D3B12953   4.157   7.261   7.042 -0.0895 -0.1625  0.0792
  883YOPE   C4B12954   4.364   7.507   7.389 -0.3307 -0.1985  0.0013
  884YOPE   NH312955   8.435  15.798   5.734 -0.1124  0.0126 -0.0510
  884YOPE   PO412956   8.795  15.782   5.433 -0.0696 -0.0876  0.0011
  884YOPE   GL112957   8.866  15.968   5.903 -0.3409  0.0903 -0.0683
  884YOPE   GL212958   8.936  16.252   6.131  0.2070 -0.2498 -0.0881
  884YOPE   C1A12959   8.685  15.867   6.366 -0.0942  0.0929  0.2147
  884YOPE   D2A12960   8.422  15.881   6.684  0.1783 -0.0268  0.3483
  884YOPE   C3A12961   8.277  15.584   7.040  0.1496 -0.1224  0.1700
  884YOPE   C4A12962   8.357  15.180   7.054 -0.2410 -0.0082 -0.2163
  884YOPE   C1B12963   8.921  16.337   6.576 -0.0854  0.0788  0.1104
  884YOPE   C2B12964   9.050  16.031   6.912  0.0176 -0.0048  0.1162
  884YOPE   D3B12965   9.200  16.032   7.292 -0.0632 -0.1942  0.1559
  884YOPE   C4B12966   9.350  16.217   7.692 -0.1177  0.0823 -0.4098
  885YOPE   NH312967   8.762   5.879   5.293 -0.0161  0.1418  0.2783
  885YOPE   PO412968   8.510   5.706   5.620  0.4353 -0.1704 -0.2548
  885YOPE   GL112969   8.469   5.847   6.018 -0.1844  0.2425  0.3048
  885YOPE   GL212970   8.599   6.036   6.128  0.1236  0.1026 -0.0615
  885YOPE   C1A12971   8.074   5.955   6.301 -0.2901 -0.1986  0.0019
  885YOPE   D2A12972   7.738   6.301   6.552 -0.0945  0.1751 -0.0234
  885YOPE   C3A12973   7.645   6.247   6.973 -0.1151 -0.1622 -0.1282
  885YOPE   C4A12974   7.452   6.287   7.253  0.1066  0.1435 -0.1736
  885YOPE   C1B12975   8.659   6.023   6.631 -0.1414  0.0194  0.2487
  885YOPE   C2B12976   8.748   6.135   6.879 -0.0865 -0.0894 -0.5741
  885YOPE   D3B12977   8.856   5.779   7.006 -0.2525 -0.3019 -0.0526
  885YOPE   C4B12978   8.700   5.407   6.806  0.1141 -0.4857  0.1321
  886YOPE   NH312979  14.751  15.936   5.698  0.3193 -0.1843 -0.2292
  886YOPE   PO412980  15.148  15.688   5.782 -0.2811  0.3394  0.0387
  886YOPE   GL112981  15.190  16.010   6.024 -0.0959  0.0692  0.1820
  886YOPE   GL212982  15.343  15.896   6.277 -0.0715 -0.0241 -0.0135
  886YOPE   C1A12983  15.244  16.405   6.272 -0.2575 -0.1095  0.0935
  886YOPE   D2A12984  15.249  16.620   6.741 -0.0592  0.2691  0.0999
  886YOPE   C3A12985  15.592  16.468   7.054  0.0462  0.1043  0.1323
  886YOPE   C4A12986  15.644  16.543   7.515  0.0420 -0.0936 -0.2054
  886YOPE   C1B12987  15.417  16.073   6.702  0.2733 -0.2113  0.4221
  886YOPE   C2B12988  15.568  15.861   7.082  0.0423 -0.2591  0.1016
  886YOPE   D3B12989  15.774  15.795   7.586 -0.0356 -0.0806 -0.1118
  886YOPE   C4B12990  16.131  15.689   7.791  0.1176  0.0139  0.2317
  887YOPE   NH312991   5.230   0.062   5.269 -0.0198  0.0876  0.0882
  887YOPE   PO412992   5.595   0.231   5.317 -0.1578  0.1227 -0.0611
  887YOPE   GL112993   5.629   0.531   5.596 -0.1129  0.0069 -0.0585
  887YOPE   GL212994   5.927   0.560   5.670  0.1160  0.0427 -0.1615
  887YOPE   C1A12995   5.360   0.782   5.816  0.0320  0.0280  0.1075
  887YOPE   D2A12996   5.256   0.961   6.186  0.2038  0.0054 -0.1560
  887YOPE   C3A12997   4.820   0.794   6.333 -0.0581  0.0614 -0.1559
  887YOPE   C4A12998   4.466   0.938   6.647 -0.2411  0.0539 -0.1927
  887YOPE   C1B12999   5.873   0.870   6.046  0.1315 -0.2929  0.0985
  887YOPE   C2B13000   5.798   0.980   6.350 -0.1155  0.1329 -0.0855
  887YOPE   D3B13001   5.902   1.202   6.723  0.5013  0.2383 -0.2759
  887YOPE   C4B13002   6.236   1.311   6.867  0.0525 -0.0762 -0.0613
  888YOPE   NH313003  16.989  12.051   6.264 -0.1709  0.2024 -0.0416
  888YOPE   PO413004  16.507  12.058   6.267 -0.1441  0.1882 -0.3901
  888YOPE   GL113005  16.731  12.141   6.678  0.1967  0.1994 -0.3191
  888YOPE   GL213006  16.436  12.115   6.893 -0.1891 -0.2868 -0.0711
  888YOPE   C1A13007  17.025  12.106   7.024 -0.1444 -0.1185 -0.2494
  888YOPE   D2A13008  17.098  11.978   7.406  0.0201  0.0932 -0.2171
  888YOPE   C3A13009  17.450  11.919   7.705 -0.0208  0.1114  0.1136
  888YOPE   C4A13010  17.632  11.873   8.094  0.1342 -0.1046  0.1983
  888YOPE   C1B13011  16.649  12.438   7.146 -0.0640 -0.0897  0.0063
  888YOPE   C2B13012  16.762  12.295   7.576 -0.1168  0.0924  0.2620
  888YOPE   D3B13013  16.939  12.472   8.017 -0.1935 -0.1420 -0.1680
  888YOPE   C4B13014  16.906  12.618   8.550 -0.0713  0.0851 -0.0628
  889YOPE   NH313015   9.357   1.142   5.746  0.0778 -0.1897  0.0586
  889YOPE   PO413016   9.038   1.592   5.684  0.2408  0.1861  0.0040
  889YOPE   GL113017   9.236   1.484   6.027  0.1215  0.3149 -0.2432
  889YOPE   GL213018   9.457   1.771   5.913  0.0122  0.0386 -0.0353
  889YOPE   C1A13019   9.169   1.230   6.433 -0.1983  0.4611  0.4044
  889YOPE   D2A13020   8.914   1.286   6.884  0.2083  0.3384 -0.0114
  889YOPE   C3A13021   8.685   1.602   6.839 -0.0387  0.1656 -0.1447
  889YOPE   C4A13022   8.702   2.041   6.908  0.1438 -0.1187 -0.1871
  889YOPE   C1B13023   9.603   1.441   6.337  0.0567  0.0165  0.2379
  889YOPE   C2B13024   9.873   1.383   6.655  0.3384 -0.0255 -0.0420
  889YOPE   D3B13025  10.050   1.104   6.893 -0.0676  0.1002  0.0335
  889YOPE   C4B13026  10.134   0.983   7.313 -0.1183  0.1026 -0.0291
  890YOPE   NH313027  15.850  15.133   6.038  0.0441 -0.0526 -0.2140
  890YOPE   PO413028  16.244  14.936   5.966 -0.0816  0.1573 -0.1119
  890YOPE   GL113029  16.297  15.113   6.368  0.1953 -0.2250  0.3204
  890YOPE   GL213030  16.564  15.084   6.394  0.1806 -0.3500  0.1816
  890YOPE   C1A13031  16.045  15.226   6.730 -0.2012  0.2571 -0.4078
  890YOPE   D2A13032  15.941  15.554   6.994  0.3593 -0.0567 -0.1515
  890YOPE   C3A13033  16.014  15.336   7.477 -0.0618  0.1206 -0.0609
  890YOPE   C4A13034  15.720  15.389   7.825 -0.2257  0.0579 -0.1950
  890YOPE   C1B13035  16.597  15.084   6.802 -0.1531 -0.1521 -0.0099
  890YOPE   C2B13036  16.273  15.008   7.177  0.1962  0.2396 -0.2367
  890YOPE   D3B13037  16.227  14.878   7.507 -0.1476 -0.3035  0.3334
  890YOPE   C4B13038  16.149  14.975   7.944  0.0601  0.1617  0.0922
  891YOPE   NH313039  12.171   9.137   6.089  0.2596  0.3836  0.4114
  891YOPE   PO413040  11.962   9.524   6.146  0.0714  0.2619  0.2027
  891YOPE   GL113041  12.105   9.484   6.541 -0.2481 -0.1689  0.0799
  891YOPE   GL213042  12.266   9.834   6.574 -0.3148  0.0368 -0.2363
  891YOPE   C1A13043  12.192   9.560   6.983 -0.1702 -0.0702 -0.1302
  891YOPE   D2A13044  12.577   9.721   7.348 -0.0137 -0.1447 -0.0578
  891YOPE   C3A13045  12.571   9.715   7.754 -0.0711  0.1343  0.2523
  891YOPE   C4A13046  12.495   9.587   8.304 -0.3783 -0.0134  0.0297
  891YOPE   C1B13047  12.421  10.064   7.026 -0.0053  0.3101  0.1856
  891YOPE   C2B13048  12.209  10.070   7.427 -0.0712 -0.2539 -0.2835
  891YOPE   D3B13049  12.430  10.219   7.804  0.1554  0.3455  0.0420
  891YOPE   C4B13050  12.417  10.047   8.220  0.2400  0.3904 -0.0821
  892YOPE   NH313051   5.363   2.594   4.598 -0.1426  0.2115 -0.0550
  892YOPE   PO413052   5.421   2.435   5.054  0.0983 -0.1116 -0.1649
  892YOPE   GL113053   5.369   2.364   5.435 -0.0076 -0.0722  0.0741
  892YOPE   GL213054   5.264   2.603   5.727 -0.2071  0.3607  0.2727
  892YOPE   C1A13055   5.512   2.157   5.863  0.1765  0.1572 -0.4207
  892YOPE   D2A13056   5.691   2.206   6.391 -0.3533 -0.0091  0.0045
  892YOPE   C3A13057   5.408   2.116   6.606 -0.1510  0.2042 -0.1759
  892YOPE   C4A13058   5.201   2.376   6.875  0.0950 -0.2824 -0.0151
  892YOPE   C1B13059   5.514   2.656   6.083 -0.4253 -0.2176 -0.2223
  892YOPE   C2B13060   5.458   2.661   6.571 -0.3071  0.0052  0.5038
  892YOPE   D3B13061   5.254   2.900   6.854  0.0673 -0.1200  0.0379
  892YOPE   C4B13062   4.988   2.930   7.237 -0.1203 -0.0228 -0.0397
  893YOPE   NH313063  12.086  10.707   5.969  0.1788 -0.1270 -0.3349
  893YOPE   PO413064  11.752  10.433   5.934 -0.0652  0.0630 -0.0683
  893YOPE   GL113065  11.754  10.542   6.364  0.1133  0.1208 -0.1689
  893YOPE   GL213066  11.665  10.308   6.601  0.5387  0.0353 -0.1032
  893YOPE   C1A13067  11.752  10.777   6.756 -0.2152  0.0722 -0.2257
  893YOPE   D2A13068  12.016  10.894   6.998 -0.1460  0.3159 -0.2163
  893YOPE   C3A13069  11.922  11.371   7.095 -0.1815  0.0706 -0.1916
  893YOPE   C4A13070  12.037  11.507   7.459  0.1493 -0.1931 -0.2609
  893YOPE   C1B13071  11.352  10.360   6.835  0.1117 -0.1052 -0.0816
  893YOPE   C2B13072  11.213  10.265   7.132  0.1329  0.1553 -0.3189
  893YOPE   D3B13073  11.308  10.215   7.651 -0.0494  0.0683  0.3124
  893YOPE   C4B13074  11.403  10.377   8.058  0.0073  0.1191 -0.1501
  894YOPE   NH313075   8.997   5.903   5.796 -0.0556 -0.0568 -0.0995
  894YOPE   PO413076   8.780   6.273   5.633 -0.3749 -0.0041 -0.1327
  894YOPE   GL113077   9.026   6.314   6.076 -0.0162 -0.0451  0.1030
  894YOPE   GL213078   9.297   6.562   6.076  0.1314  0.4295 -0.1750
  894YOPE   C1A13079   9.091   6.293   6.472  0.0870 -0.2340 -0.0913
  894YOPE   D2A13080   9.224   6.035   6.790  0.1502  0.0080 -0.1540
  894YOPE   C3A13081   9.122   6.162   7.222  0.1059  0.0390 -0.0604
  894YOPE   C4A13082   9.014   5.906   7.572  0.0959  0.0399 -0.2781
  894YOPE   C1B13083   9.040   6.765   6.361  0.1162 -0.1062 -0.0500
  894YOPE   C2B13084   8.654   6.593   6.539 -0.0701  0.1071 -0.0498
  894YOPE   D3B13085   8.302   6.377   6.684 -0.1334  0.0351 -0.0809
  894YOPE   C4B13086   8.083   6.029   6.805 -0.2139 -0.1957  0.1793
  895YOPE   NH313087   5.262   2.933   5.389  0.1416  0.1384 -0.4094
  895YOPE   PO413088   4.816   2.903   5.498  0.0492 -0.0334 -0.0846
  895YOPE   GL113089   4.864   2.978   5.856  0.3296 -0.2674 -0.0059
  895YOPE   GL213090   4.580   2.998   5.948 -0.3831 -0.3406 -0.1130
  895YOPE   C1A13091   4.987   2.803   6.295  0.0326 -0.0816 -0.0315
  895YOPE   D2A13092   4.821   2.711   6.788  0.3124  0.0817  0.1608
  895YOPE   C3A13093   4.673   3.124   6.946  0.0969  0.1952 -0.0443
  895YOPE   C4A13094   4.744   3.303   7.388  0.0225 -0.1460 -0.0826
  895YOPE   C1B13095   4.520   3.051   6.348 -0.0653  0.1667  0.2525
  895YOPE   C2B13096   4.287   2.857   6.662 -0.0799  0.0888 -0.3309
  895YOPE   D3B13097   4.375   2.665   7.088  0.1705  0.0843  0.0950
  895YOPE   C4B13098   4.131   2.552   7.512  0.0927  0.1038 -0.2682
  896YOPE   NH313099   5.584  17.003   5.316 -0.1207  0.1377  0.1468
  896YOPE   PO413100   5.545  16.513   5.469 -0.0352 -0.2547 -0.2706
  896YOPE   GL113101   5.734  16.406   5.752 -0.1735 -0.4964  0.1712
  896YOPE   GL213102   5.637  16.198   6.003 -0.2227  0.2287  0.0050
  896YOPE   C1A13103   6.117  16.443   6.046 -0.3191  0.1261  0.1107
  896YOPE   D2A13104   6.540  16.264   6.191 -0.4728  0.1620 -0.1542
  896YOPE   C3A13105   6.561  15.934   6.560  0.0653  0.1957  0.0618
  896YOPE   C4A13106   6.578  15.554   6.604  0.0113  0.1484 -0.0343
  896YOPE   C1B13107   5.607  15.798   6.204  0.1491 -0.0462  0.1366
  896YOPE   C2B13108   5.523  15.660   6.557  0.0803 -0.0269 -0.1638
  896YOPE   D3B13109   5.345  15.518   6.892 -0.0342  0.2413 -0.0900
  896YOPE   C4B13110   4.990  15.664   7.107 -0.5801 -0.2011 -0.3266
  897YOPE   NH313111  15.092   3.802   5.400 -0.0526 -0.0692  0.0474
  897YOPE   PO413112  14.783   4.194   5.371  0.1048 -0.0087  0.2505
  897YOPE   GL113113  14.747   4.378   5.762  0.0540  0.0424  0.3558
  897YOPE   GL213114  14.750   4.562   5.978 -0.0005 -0.3021 -0.2650
  897YOPE   C1A13115  14.967   4.126   6.155 -0.1409  0.1894 -0.0400
  897YOPE   D2A13116  15.269   3.798   6.279 -0.2057  0.0378 -0.1231
  897YOPE   C3A13117  15.496   3.791   6.606 -0.0684  0.0094  0.4074
  897YOPE   C4A13118  15.744   3.748   6.920  0.2048  0.0432  0.2271
  897YOPE   C1B13119  14.758   4.589   6.367 -0.1104  0.1731 -0.0768
  897YOPE   C2B13120  14.642   4.584   6.822  0.2147 -0.0587 -0.1618
  897YOPE   D3B13121  14.583   4.197   7.212  0.0473  0.1988 -0.3731
  897YOPE   C4B13122  14.428   3.992   7.560  0.3035 -0.1739 -0.0770
  898YOPE   NH313123   7.298  14.064   5.412 -0.2187  0.0453  0.0454
  898YOPE   PO413124   7.160  13.656   5.447 -0.0465 -0.3397 -0.1714
  898YOPE   GL113125   7.107  13.692   5.866  0.2897  0.0884 -0.0965
  898YOPE   GL213126   7.060  14.041   5.859 -0.0323  0.2031 -0.0957
  898YOPE   C1A13127   7.133  13.705   6.329 -0.0118  0.0665  0.0604
  898YOPE   D2A13128   6.948  13.743   6.690  0.1206  0.1433  0.1170
  898YOPE   C3A13129   7.094  13.541   7.067  0.1272  0.1197  0.0493
  898YOPE   C4A13130   7.168  13.192   7.423  0.1923  0.0676 -0.4529
  898YOPE   C1B13131   6.992  14.269   6.356  0.1270 -0.3109 -0.3180
  898YOPE   C2B13132   6.909  14.245   6.819 -0.3857  0.0294 -0.1346
  898YOPE   D3B13133   7.043  14.031   7.230 -0.2006 -0.2432 -0.1306
  898YOPE   C4B13134   7.145  14.235   7.603 -0.1409 -0.0680 -0.3758
  899YOPE   NH313135   6.593   7.272   5.707 -0.0315 -0.0215  0.0362
  899YOPE   PO413136   6.352   6.895   6.002  0.0897  0.0578 -0.1420
  899YOPE   GL113137   6.604   6.798   6.251  0.0315  0.1525 -0.1090
  899YOPE   GL213138   7.028   6.924   6.467 -0.1108  0.0021 -0.2254
  899YOPE   C1A13139   6.773   6.485   6.488 -0.3935  0.2479  0.0843
  899YOPE   D2A13140   7.123   6.422   6.848  0.2820 -0.2604  0.0561
  899YOPE   C3A13141   6.759   6.192   6.940 -0.1984  0.3217 -0.0302
  899YOPE   C4A13142   6.603   6.016   7.195 -0.2433 -0.2203  0.1829
  899YOPE   C1B13143   6.854   6.884   6.859  0.2801 -0.2812  0.0011
  899YOPE   C2B13144   6.585   6.636   7.119 -0.0698  0.0326 -0.0589
  899YOPE   D3B13145   6.479   6.416   7.562 -0.1190 -0.3596 -0.0097
  899YOPE   C4B13146   6.403   6.373   7.885 -0.1354  0.1703  0.0160
  900YOPE   NH313147  10.715   9.444   6.081  0.1610 -0.2761 -0.2096
  900YOPE   PO413148  10.413   9.050   6.050  0.1935 -0.0134  0.1280
  900YOPE   GL113149  10.297   9.026   6.426 -0.3193 -0.2079  0.3452
  900YOPE   GL213150  10.557   9.283   6.578  0.1435 -0.2044  0.0310
  900YOPE   C1A13151  10.022   9.004   6.775 -0.1805  0.0280  0.0696
  900YOPE   D2A13152   9.921   8.692   7.016  0.1054 -0.1189 -0.0615
  900YOPE   C3A13153   9.499   8.761   6.941  0.0553 -0.1314  0.2199
  900YOPE   C4A13154   9.212   8.818   6.823 -0.1659  0.0524 -0.2385
  900YOPE   C1B13155  10.420   9.071   7.032  0.2410  0.2824 -0.0979
  900YOPE   C2B13156  10.562   9.048   7.485  0.3876 -0.2904  0.1218
  900YOPE   D3B13157  10.356   9.235   7.784  0.0002 -0.2144  0.0518
  900YOPE   C4B13158  10.082   9.414   8.042 -0.1881  0.1995  0.0056
  901POPC   NC313159  17.530  16.904   5.774 -0.1387  0.0291 -0.0217
  901POPC   PO413160  17.373  17.343   5.737 -0.0648 -0.0055  0.1610
  901POPC   GL113161  17.482  17.247   6.191 -0.2696  0.1924 -0.0394
  901POPC   GL213162  17.749  17.512   6.311  0.0711 -0.1934 -0.0065
  901POPC   C1A13163  17.308  17.264   6.661  0.1071 -0.1257 -0.0288
  901POPC   D2A13164  17.095  17.190   6.966 -0.3354  0.0143  0.1672
  901POPC   C3A13165  17.295  17.447   7.383 -0.0113  0.3176  0.1549
  901POPC   C4A13166  17.450  17.465   7.777 -0.2066  0.2456  0.1247
  901POPC   C1B13167  17.824  17.564   6.606 -0.0381 -0.1149  0.1706
  901POPC   C2B13168  18.059  17.565   6.880  0.0299 -0.2208  0.2829
  901POPC   C3B13169  18.396  17.645   7.222 -0.1261  0.0648  0.3632
  901POPC   C4B13170  18.744  17.376   7.541  0.0690  0.1673 -0.2370
  902POPC   NC313171   0.088   5.867   5.467 -0.1922  0.1765 -0.0745
  902POPC   PO413172   0.135   6.283   5.760  0.0310 -0.1738  0.0790
  902POPC   GL113173  -0.062   6.170   6.144  0.1124  0.0386 -0.2116
  902POPC   GL213174  -0.364   5.980   6.203  0.3524 -0.0536  0.3143
  902POPC   C1A13175  -0.086   5.987   6.586  0.1684 -0.2531 -0.0693
  902POPC   D2A13176  -0.114   5.751   7.019  0.2005 -0.2173 -0.0498
  902POPC   C3A13177  -0.035   6.039   7.285 -0.1980  0.2189 -0.1007
  902POPC   C4A13178   0.343   5.996   7.465  0.2854  0.1556  0.3646
  902POPC   C1B13179  -0.540   5.777   6.617  0.2778 -0.0036  0.0809
  902POPC   C2B13180  -0.623   5.593   7.035  0.1211  0.0417 -0.0447
  902POPC   C3B13181  -0.388   5.517   7.382  0.1248 -0.0053  0.1505
  902POPC   C4B13182  -0.136   5.608   7.742  0.2517 -0.1163 -0.5762
  903POPC   NC313183   7.892  10.534   5.434 -0.3392  0.0567 -0.0649
  903POPC   PO413184   8.039  10.816   5.594 -0.1836 -0.2256  0.1919
  903POPC   GL113185   8.175  10.834   6.075 -0.3563  0.0046 -0.0883
  903POPC   GL213186   8.475  11.053   6.128 -0.0089 -0.0707 -0.0340
  903POPC   C1A13187   7.974  10.590   6.366 -0.1172  0.3351 -0.1045
  903POPC   D2A13188   7.635  10.335   6.360  0.1802  0.3127  0.0381
  903POPC   C3A13189   7.355  10.104   6.450  0.1155 -0.0936 -0.0805
  903POPC   C4A13190   7.048   9.921   6.649  0.1543  0.0574 -0.0842
  903POPC   C1B13191   8.359  10.882   6.554 -0.0308 -0.2807  0.1045
  903POPC   C2B13192   8.354  11.018   6.993  0.0553 -0.0173 -0.0827
  903POPC   C3B13193   8.344  10.963   7.389  0.1018 -0.1891 -0.0987
  903POPC   C4B13194   8.299  10.902   7.734  0.0323 -0.0958  0.0419
  904POPC   NC313195  16.013   6.976   5.779 -0.0172 -0.1772  0.0479
  904POPC   PO413196  15.542   7.068   5.747 -0.0270  0.0437  0.2410
  904POPC   GL113197  15.564   7.090   6.241 -0.0415 -0.0644  0.0119
  904POPC   GL213198  15.596   7.338   6.331 -0.0276  0.0829  0.0758
  904POPC   C1A13199  15.740   6.826   6.610 -0.3113 -0.2465  0.0422
  904POPC   D2A13200  15.929   6.604   6.879  0.1297  0.0603 -0.0538
  904POPC   C3A13201  15.774   6.489   7.323  0.0756 -0.3597  0.1340
  904POPC   C4A13202  15.817   6.366   7.756 -0.2646 -0.1883  0.2511
  904POPC   C1B13203  15.630   7.391   6.728 -0.2460 -0.1191 -0.1431
  904POPC   C2B13204  15.528   7.514   7.127 -0.3880  0.1772  0.1690
  904POPC   C3B13205  15.768   7.332   7.512 -0.2303 -0.3279 -0.0783
  904POPC   C4B13206  16.063   7.127   7.599 -0.0173 -0.0245 -0.0074
  905POPC   NC313207  15.639  10.659   5.917  0.1041 -0.0418 -0.2882
  905POPC   PO413208  15.823  10.999   6.066  0.1895  0.1668  0.1042
  905POPC   GL113209  15.785  10.853   6.432  0.0313 -0.0506  0.0531
  905POPC   GL213210  15.697  10.633   6.579 -0.4190  0.0484 -0.4056
  905POPC   C1A13211  15.824  11.007   6.881 -0.3601 -0.0508 -0.1578
  905POPC   D2A13212  15.844  10.855   7.264 -0.1004 -0.2594 -0.0208
  905POPC   C3A13213  15.709  10.586   7.495  0.0061  0.0852 -0.0976
  905POPC   C4A13214  15.365  10.226   7.634  0.0515  0.2083  0.0863
  905POPC   C1B13215  15.473  10.671   6.972 -0.1859  0.1524 -0.3076
  905POPC   C2B13216  15.207  10.595   7.369 -0.3935  0.1011  0.2451
  905POPC   C3B13217  15.305  10.649   7.826 -0.1312  0.0859  0.1123
  905POPC   C4B13218  15.430  10.701   8.193 -0.0023 -0.0706  0.0375
  906POPC   NC313219  13.506  17.133   5.447  0.2782  0.0802 -0.2028
  906POPC   PO413220  13.396  17.213   5.878 -0.0138  0.2464  0.1548
  906POPC   GL113221  13.445  17.393   6.294 -0.0505  0.0353 -0.0076
  906POPC   GL213222  13.166  17.269   6.400  0.0686 -0.1688 -0.1130
  906POPC   C1A13223  13.519  17.455   6.723  0.0502 -0.3627 -0.0335
  906POPC   D2A13224  13.489  17.485   7.182 -0.0564 -0.0398 -0.0924
  906POPC   C3A13225  13.421  17.143   7.513  0.2477 -0.3029 -0.0446
  906POPC   C4A13226  13.101  17.217   7.757 -0.0500  0.3198  0.0033
  906POPC   C1B13227  12.755  17.217   6.662 -0.2399  0.1126 -0.1759
  906POPC   C2B13228  12.607  17.099   7.057  0.2739  0.0011  0.5871
  906POPC   C3B13229  12.274  16.897   7.267  0.1625 -0.0526 -0.1207
  906POPC   C4B13230  12.241  16.855   7.712  0.3268  0.4220 -0.1732
  907POPC   NC313231   4.585   1.643   5.116  0.2222 -0.0820 -0.3503
  907POPC   PO413232   4.297   2.084   5.246  0.5567  0.2032  0.1505
  907POPC   GL113233   4.714   1.888   5.604  0.2681  0.1205  0.1045
  907POPC   GL213234   4.973   2.076   5.551  0.0208  0.3184 -0.2356
  907POPC   C1A13235   5.037   1.683   5.818  0.0790 -0.1377 -0.1084
  907POPC   D2A13236   5.282   1.867   6.210  0.0912 -0.0677 -0.0428
  907POPC   C3A13237   5.065   1.743   6.482 -0.0161 -0.2392 -0.1300
  907POPC   C4A13238   5.227   1.471   6.820 -0.1340  0.1584 -0.1254
  907POPC   C1B13239   4.955   2.177   6.015 -0.1027 -0.0912 -0.0744
  907POPC   C2B13240   4.948   2.258   6.482 -0.0659 -0.1794 -0.2002
  907POPC   C3B13241   4.759   2.038   6.841 -0.0517  0.1804  0.2437
  907POPC   C4B13242   5.003   1.897   7.089 -0.2815  0.1420 -0.1260
  908POPC   NC313243   7.915   7.581   5.362  0.0663  0.0488  0.2865
  908POPC   PO413244   8.065   7.259   5.516  0.1037 -0.0184  0.2349
  908POPC   GL113245   7.945   7.174   5.887  0.2677 -0.0589  0.0310
  908POPC   GL213246   8.207   7.120   5.970  0.1038 -0.1407  0.0839
  908POPC   C1A13247   7.880   7.021   6.321 -0.0735 -0.1849  0.3032
  908POPC   D2A13248   8.073   6.801   6.579 -0.1075 -0.0598  0.3496
  908POPC   C3A13249   8.011   6.606   6.988 -0.2796  0.1577  0.0383
  908POPC   C4A13250   7.874   6.528   7.309 -0.2887  0.0926  0.0962
  908POPC   C1B13251   8.059   7.498   6.238  0.0711  0.1548 -0.0246
  908POPC   C2B13252   8.316   7.707   6.417  0.3667  0.4811 -0.0178
  908POPC   C3B13253   8.293   7.861   6.821 -0.1167  0.1862  0.0002
  908POPC   C4B13254   8.564   7.976   7.128 -0.1150 -0.0436  0.0480
  909POPC   NC313255   9.895  11.339   6.162 -0.1522 -0.1016  0.2015
  909POPC   PO413256   9.627  10.994   6.269 -0.0544  0.2790 -0.2971
  909POPC   GL113257   9.652  11.090   6.715 -0.0461 -0.1568  0.1425
  909POPC   GL213258   9.793  10.784   6.817 -0.1421 -0.1487  0.4577
  909POPC   C1A13259   9.685  11.446   6.960 -0.1467 -0.0216  0.0508
  909POPC   D2A13260   9.879  11.820   7.179 -0.3093 -0.1536 -0.1237
  909POPC   C3A13261  10.199  11.947   7.079  0.2644  0.1674  0.1165
  909POPC   C4A13262  10.591  11.604   7.187 -0.1176 -0.0463  0.0179
  909POPC   C1B13263   9.485  10.596   7.099  0.0159 -0.0257  0.2783
  909POPC   C2B13264   9.096  10.489   7.157 -0.0649 -0.0123 -0.3676
  909POPC   C3B13265   8.751  10.559   7.335  0.0587 -0.1098  0.1761
  909POPC   C4B13266   8.406  10.239   7.531 -0.1063 -0.2675  0.0684
  910POPC   NC313267  11.604  14.674   5.941  0.2613 -0.1612 -0.2839
  910POPC   PO413268  11.771  14.309   6.164 -0.2275 -0.2897  0.7013
  910POPC   GL113269  12.127  14.357   6.378 -0.2355  0.2554  0.1002
  910POPC   GL213270  12.480  14.359   6.384  0.0151 -0.0323  0.2582
  910POPC   C1A13271  12.240  14.325   6.820  0.0864  0.0961 -0.0879
  910POPC   D2A13272  12.420  14.048   7.140 -0.0137  0.1713  0.1052
  910POPC   C3A13273  12.705  14.124   7.473 -0.2788 -0.3554 -0.0102
  910POPC   C4A13274  13.116  14.272   7.564  0.1824 -0.0275 -0.0973
  910POPC   C1B13275  12.648  14.578   6.629  0.1015 -0.0660 -0.1557
  910POPC   C2B13276  12.623  14.518   7.118 -0.0907 -0.0373  0.3499
  910POPC   C3B13277  12.780  14.632   7.493 -0.0787 -0.4514 -0.0120
  910POPC   C4B13278  12.688  14.427   7.840  0.0469  0.0168  0.0301
  911POPC   NC313279  11.663  10.995   6.097  0.1469 -0.3266 -0.4301
  911POPC   PO413280  11.361  10.796   6.052  0.1182 -0.1763 -0.0088
  911POPC   GL113281  11.060  10.832   6.366 -0.1732  0.1078  0.1116
  911POPC   GL213282  11.290  10.800   6.570 -0.3374  0.0222 -0.0578
  911POPC   C1A13283  10.722  10.912   6.672  0.4212  0.0375 -0.2596
  911POPC   D2A13284  10.771  11.091   7.098  0.3531  0.1767 -0.0924
  911POPC   C3A13285  10.525  11.057   7.426 -0.1610  0.2886  0.2688
  911POPC   C4A13286  10.337  11.227   7.835  0.0298 -0.1084  0.1203
  911POPC   C1B13287  11.158  10.788   6.978 -0.1401  0.0574 -0.0833
  911POPC   C2B13288  11.290  10.798   7.297 -0.0124  0.1353  0.0516
  911POPC   C3B13289  11.320  10.758   7.657  0.0450  0.1187  0.0360
  911POPC   C4B13290  11.733  10.805   7.923  0.1172 -0.0600 -0.0868
  912POPC   NC313291  14.103   0.792   5.396 -0.0501  0.0590  0.1147
  912POPC   PO413292  14.531   1.052   5.441 -0.1261 -0.2425 -0.1546
  912POPC   GL113293  14.416   1.307   5.880  0.1620 -0.2050  0.4472
  912POPC   GL213294  14.062   1.182   5.782 -0.1321  0.1977 -0.0885
  912POPC   C1A13295  14.401   1.561   6.229 -0.0458 -0.1048 -0.2055
  912POPC   D2A13296  14.467   1.903   6.343 -0.2089 -0.3608  0.1744
  912POPC   C3A13297  14.797   2.177   6.250  0.1042  0.3305 -0.2838
  912POPC   C4A13298  15.277   2.214   6.137  0.1261 -0.0996 -0.2428
  912POPC   C1B13299  13.791   1.440   6.028  0.0449 -0.0159 -0.0916
  912POPC   C2B13300  14.021   1.863   6.141  0.1220  0.1588 -0.1533
  912POPC   C3B13301  14.031   2.158   6.199  0.0065 -0.0023 -0.2776
  912POPC   C4B13302  13.822   2.529   6.217  0.0892 -0.2813  0.1185
  913POPC   NC313303  10.193   1.909   5.271 -0.0163 -0.2138  0.0265
  913POPC   PO413304   9.826   1.830   5.523  0.2179  0.0562  0.1069
  913POPC   GL113305   9.953   1.964   5.899  0.2200 -0.2779  0.0784
  913POPC   GL213306  10.193   2.101   6.170 -0.0481 -0.3563  0.2251
  913POPC   C1A13307   9.738   1.965   6.337  0.3036  0.0345 -0.0577
  913POPC   D2A13308   9.914   1.903   6.698 -0.2106 -0.2022  0.1264
  913POPC   C3A13309   9.784   1.728   7.100  0.2051 -0.5634  0.1324
  913POPC   C4A13310   9.788   1.318   7.300  0.0892 -0.1034 -0.1148
  913POPC   C1B13311  10.411   2.079   6.563  0.0598 -0.0307 -0.1972
  913POPC   C2B13312  10.283   2.119   7.024  0.0517 -0.1542 -0.0068
  913POPC   C3B13313   9.945   2.144   7.304  0.1384  0.3246 -0.0575
  913POPC   C4B13314   9.748   2.277   7.674 -0.4408  0.0230  0.2095
  914POPC   NC313315  16.486  13.496   6.381  0.2424 -0.0260  0.1243
  914POPC   PO413316  16.378  13.919   6.167  0.0035 -0.0469  0.2165
  914POPC   GL113317  16.240  14.156   6.524  0.0117 -0.0313 -0.0812
  914POPC   GL213318  16.445  14.490   6.528 -0.2432  0.2778 -0.0811
  914POPC   C1A13319  15.802  14.215   6.823 -0.0609 -0.3897  0.0008
  914POPC   D2A13320  15.478  14.057   6.992  0.0208  0.4347  0.0611
  914POPC   C3A13321  15.441  14.306   7.319 -0.0595  0.1526  0.1167
  914POPC   C4A13322  15.373  14.465   7.667 -0.1677 -0.2263 -0.5244
  914POPC   C1B13323  16.622  14.540   6.950  0.1177  0.1038 -0.3189
  914POPC   C2B13324  16.866  14.437   7.370 -0.0127  0.3519 -0.3344
  914POPC   C3B13325  16.849  14.381   7.839 -0.3071  0.0190  0.0018
  914POPC   C4B13326  17.024  14.089   8.148  0.0387 -0.1037  0.1929
  915POPC   NC313327   3.043   0.652   4.946  0.1939  0.2311  0.2318
  915POPC   PO413328   3.325   0.681   5.242 -0.0624  0.2399 -0.1033
  915POPC   GL113329   3.528   0.845   5.623 -0.1507  0.3359 -0.0493
  915POPC   GL213330   3.807   0.737   5.651  0.3949  0.2420 -0.0710
  915POPC   C1A13331   3.439   0.917   6.141 -0.0174  0.1011 -0.0448
  915POPC   D2A13332   3.194   0.863   6.581 -0.3084 -0.2190 -0.0306
  915POPC   C3A13333   3.120   0.972   6.950  0.1490 -0.1874 -0.0514
  915POPC   C4A13334   3.310   1.167   7.288 -0.2635 -0.0255 -0.0231
  915POPC   C1B13335   3.844   0.602   6.057 -0.3176 -0.0220  0.1173
  915POPC   C2B13336   4.004   0.518   6.533 -0.3194  0.2199 -0.2015
  915POPC   C3B13337   4.150   0.569   6.915 -0.1573 -0.2302  0.2374
  915POPC   C4B13338   4.038   0.298   7.185 -0.3776  0.0872  0.0586
  916POPC   NC313339   1.149   0.043   5.773 -0.2268  0.1818 -0.1148
  916POPC   PO413340   1.363  -0.471   5.645  0.3734 -0.0492  0.1359
  916POPC   GL113341   1.735  -0.381   5.960 -0.1345 -0.0176  0.0084
  916POPC   GL213342   1.547   0.019   6.067  0.2233 -0.2922 -0.0663
  916POPC   C1A13343   1.885  -0.331   6.386 -0.0504  0.1366  0.2258
  916POPC   D2A13344   2.045  -0.319   6.802 -0.1114  0.1402 -0.0520
  916POPC   C3A13345   1.937  -0.554   7.101 -0.2318 -0.2399 -0.1547
  916POPC   C4A13346   2.171  -0.831   7.415 -0.3068  0.2095 -0.0992
  916POPC   C1B13347   1.386  -0.223   6.388 -0.1286  0.3446  0.0538
  916POPC   C2B13348   1.490  -0.492   6.774 -0.0435  0.0366  0.2275
  916POPC   C3B13349   1.413  -0.685   7.176 -0.0682  0.3349  0.6543
  916POPC   C4B13350   1.606  -0.643   7.584 -0.0588  0.3025 -0.0311
  917POPC   NC313351  10.159   4.913   5.134  0.2860 -0.3284 -0.0156
  917POPC   PO413352   9.790   5.200   5.422  0.1372 -0.2911  0.1279
  917POPC   GL113353  10.034   5.323   5.773 -0.0442  0.0997  0.1311
  917POPC   GL213354  10.251   5.523   5.880 -0.2000 -0.0512 -0.0701
  917POPC   C1A13355  10.041   5.156   6.115 -0.2031 -0.0141  0.0576
  917POPC   D2A13356  10.340   5.052   6.511  0.1304 -0.1050  0.0499
  917POPC   C3A13357  10.653   4.829   6.464  0.0147  0.5760 -0.1895
  917POPC   C4A13358  11.073   4.946   6.341  0.0763 -0.0464  0.0433
  917POPC   C1B13359  10.169   5.935   6.151 -0.1844 -0.7817  0.1453
  917POPC   C2B13360  10.044   6.040   6.563  0.3602 -0.0888  0.1155
  917POPC   C3B13361   9.943   5.930   6.997  0.2235  0.1399 -0.1208
  917POPC   C4B13362  10.096   5.679   7.413 -0.2418  0.0456  0.0489
  918POPC   NC313363   8.228  13.105   5.095  0.1267 -0.1237  0.2988
  918POPC   PO413364   8.435  12.846   5.317  0.0635  0.0764 -0.0348
  918POPC   GL113365   8.477  12.579   5.586  0.1653  0.1834  0.1353
  918POPC   GL213366   8.165  12.434   5.769 -0.0953  0.1181  0.0905
  918POPC   C1A13367   8.613  12.518   5.976 -0.1259 -0.1312 -0.1943
  918POPC   D2A13368   8.883  12.484   6.341 -0.1947  0.0086  0.0852
  918POPC   C3A13369   8.775  12.611   6.770  0.0743 -0.1091  0.1119
  918POPC   C4A13370   8.746  12.743   7.206  0.1879 -0.2531  0.1749
  918POPC   C1B13371   8.124  12.358   6.236  0.0097  0.4718 -0.0778
  918POPC   C2B13372   8.288  12.389   6.587 -0.1175  0.0178  0.1252
  918POPC   C3B13373   8.357  12.344   7.024  0.0096  0.2274  0.1492
  918POPC   C4B13374   8.569  12.251   7.436  0.3245 -0.0226 -0.1412
  919POPC   NC313375   6.513   8.056   5.452  0.3339  0.1505 -0.1164
  919POPC   PO413376   6.570   8.529   5.399  0.0736  0.1951 -0.1925
  919POPC   GL113377   6.461   8.412   5.807 -0.2236  0.4718  0.2076
  919POPC   GL213378   6.637   8.598   6.041  0.0747  0.2329 -0.0759
  919POPC   C1A13379   6.368   8.259   6.225  0.0908  0.1716 -0.0354
  919POPC   D2A13380   6.401   8.247   6.759 -0.1655 -0.1162 -0.3095
  919POPC   C3A13381   6.269   7.952   7.151  0.0685 -0.2523 -0.2457
  919POPC   C4A13382   6.060   7.894   7.581 -0.1413  0.0279  0.1136
  919POPC   C1B13383   6.705   8.519   6.500 -0.0061 -0.0352 -0.0699
  919POPC   C2B13384   7.096   8.352   6.666 -0.1110  0.2533 -0.0471
  919POPC   C3B13385   7.580   8.276   6.681  0.1915  0.7010 -0.1348
  919POPC   C4B13386   7.980   8.291   6.596 -0.0511  0.0038  0.1136
  920POPC   NC313387   2.884   2.936   4.887 -0.0844  0.1084 -0.1664
  920POPC   PO413388   2.664   2.779   5.376 -0.0761 -0.1695 -0.2355
  920POPC   GL113389   2.564   2.803   5.750 -0.1149 -0.2519  0.1975
  920POPC   GL213390   2.297   2.947   5.778 -0.1165  0.2202 -0.1423
  920POPC   C1A13391   2.662   2.620   6.206 -0.0083 -0.2290 -0.0291
  920POPC   D2A13392   2.693   2.429   6.628 -0.0382 -0.2217  0.2114
  920POPC   C3A13393   2.347   2.233   6.605  0.3457 -0.0737 -0.0805
  920POPC   C4A13394   1.944   1.994   6.650  0.3364 -0.0954  0.1646
  920POPC   C1B13395   2.257   2.940   6.256  0.0532  0.1614  0.1729
  920POPC   C2B13396   2.305   2.770   6.676  0.0267  0.0974  0.0602
  920POPC   C3B13397   2.503   2.542   7.010  0.5229 -0.1347 -0.5178
  920POPC   C4B13398   2.399   2.413   7.431  0.0419  0.0819  0.1231
  921POPC   NC313399  13.834  14.550   5.470  0.2032  0.1690  0.0509
  921POPC   PO413400  13.825  14.990   5.302 -0.2769  0.1078 -0.2013
  921POPC   GL113401  13.644  15.191   5.699 -0.2540  0.1362 -0.0772
  921POPC   GL213402  13.659  14.978   5.971  0.0725 -0.4015 -0.0664
  921POPC   C1A13403  13.499  15.462   5.933 -0.0673  0.2377  0.0728
  921POPC   D2A13404  13.232  15.865   6.190  0.0775  0.0733 -0.1764
  921POPC   C3A13405  13.292  15.831   6.680 -0.0951 -0.4893 -0.0816
  921POPC   C4A13406  13.609  15.607   7.000  0.0874  0.2219  0.1581
  921POPC   C1B13407  13.836  15.037   6.453 -0.1940  0.1826 -0.0591
  921POPC   C2B13408  14.071  15.271   6.818  0.0252 -0.1583  0.0358
  921POPC   C3B13409  14.035  15.540   7.181 -0.0393 -0.2476 -0.1291
  921POPC   C4B13410  13.887  15.739   7.562 -0.0457 -0.1523  0.0166
  922POPC   NC313411  13.794   5.396   5.723 -0.2282 -0.0136  0.1519
  922POPC   PO413412  14.253   5.206   5.899  0.0364 -0.1814 -0.1767
  922POPC   GL113413  13.887   5.088   6.174 -0.0574  0.1045 -0.4011
  922POPC   GL213414  13.629   5.249   6.217  0.1067  0.1067 -0.1033
  922POPC   C1A13415  13.872   4.920   6.586  0.1164  0.0107  0.0381
  922POPC   D2A13416  14.133   4.931   6.963  0.4296 -0.3597  0.0925
  922POPC   C3A13417  14.250   4.578   7.281  0.1330 -0.1627  0.3591
  922POPC   C4A13418  14.207   4.617   7.722 -0.2731 -0.0215 -0.0410
  922POPC   C1B13419  13.433   5.203   6.600  0.0256  0.2123 -0.1295
  922POPC   C2B13420  13.443   4.924   6.975  0.1732  0.0788  0.4385
  922POPC   C3B13421  13.329   4.773   7.436 -0.0039 -0.0529  0.0950
  922POPC   C4B13422  13.063   4.779   7.827 -0.1535 -0.2800 -0.0904
  923POPC   NC313423   7.302   9.714   5.572  0.1398 -0.0757 -0.2684
  923POPC   PO413424   7.654   9.498   5.780 -0.2547 -0.0374 -0.0085
  923POPC   GL113425   7.327   9.454   6.180  0.1764  0.1737 -0.0746
  923POPC   GL213426   7.026   9.562   6.282 -0.0258 -0.0147 -0.1110
  923POPC   C1A13427   7.349   9.210   6.469 -0.0121  0.1242 -0.0155
  923POPC   D2A13428   7.314   8.776   6.605 -0.1697  0.0948  0.1849
  923POPC   C3A13429   7.316   8.717   6.994  0.1053  0.3161 -0.0808
  923POPC   C4A13430   7.273   8.388   7.200 -0.3327  0.1228 -0.1662
  923POPC   C1B13431   7.036   9.457   6.817  0.1851  0.2213 -0.0715
  923POPC   C2B13432   7.145   9.211   7.144 -0.1613 -0.1599 -0.0875
  923POPC   C3B13433   6.991   8.752   7.393  0.3020  0.2483  0.2282
  923POPC   C4B13434   6.733   8.533   7.540 -0.1017  0.1339 -0.0107
  924POPC   NC313435   6.437   3.904   5.003  0.1554 -0.1589  0.0453
  924POPC   PO413436   6.800   4.158   5.118 -0.0041  0.4896  0.0327
  924POPC   GL113437   6.902   4.218   5.517 -0.0481  0.1562 -0.3782
  924POPC   GL213438   7.059   3.861   5.713  0.0276  0.0574  0.3236
  924POPC   C1A13439   6.782   4.521   5.843 -0.3366 -0.6928  0.2143
  924POPC   D2A13440   6.413   4.314   6.180 -0.3054 -0.2562  0.1394
  924POPC   C3A13441   6.103   4.673   6.202  0.0313 -0.0019  0.0117
  924POPC   C4A13442   5.933   4.827   6.471 -0.0065 -0.0698  0.0749
  924POPC   C1B13443   7.225   3.782   6.208 -0.1802  0.0187 -0.0272
  924POPC   C2B13444   7.597   3.855   6.497 -0.2879 -0.1995 -0.0370
  924POPC   C3B13445   7.883   3.717   6.891 -0.0589  0.1063  0.0918
  924POPC   C4B13446   7.877   3.878   7.335  0.0550  0.0006 -0.2247
  925POPC   NC313447  14.835  17.994   5.801 -0.0983  0.3124 -0.3413
  925POPC   PO413448  15.119  18.337   5.982  0.1423  0.1720 -0.0288
  925POPC   GL113449  14.888  18.297   6.331  0.1944 -0.1930 -0.4733
  925POPC   GL213450  14.560  18.405   6.381  0.0418 -0.2453  0.1666
  925POPC   C1A13451  15.183  18.140   6.602  0.0032 -0.0138  0.0076
  925POPC   D2A13452  15.618  18.245   6.809  0.3484  0.0660 -0.1274
  925POPC   C3A13453  15.479  18.259   7.239  0.4379 -0.0794  0.4536
  925POPC   C4A13454  15.567  18.025   7.570  0.0042  0.0761  0.1809
  925POPC   C1B13455  14.270  18.341   6.595 -0.1085  0.0185 -0.1586
  925POPC   C2B13456  13.913  18.387   6.898 -0.3125 -0.0040  0.1630
  925POPC   C3B13457  13.813  18.322   7.310  0.2876  0.2701  0.3665
  925POPC   C4B13458  13.545  18.520   7.647  0.0148 -0.2530 -0.0784
  926POPC   NC313459  17.613   2.055   5.652 -0.3374  0.0370  0.0448
  926POPC   PO413460  17.956   2.377   5.752 -0.0024 -0.3452 -0.4381
  926POPC   GL113461  17.693   2.480   5.945 -0.2110 -0.0471 -0.0040
  926POPC   GL213462  17.321   2.239   5.982 -0.0529 -0.2457  0.0819
  926POPC   C1A13463  17.623   2.265   6.402 -0.0602  0.1060 -0.2603
  926POPC   D2A13464  17.724   1.979   6.805 -0.5847 -0.0566  0.0667
  926POPC   C3A13465  17.976   2.136   7.098  0.1716 -0.1009 -0.2035
  926POPC   C4A13466  18.339   2.082   7.373 -0.0619  0.2405 -0.3819
  926POPC   C1B13467  17.289   2.580   6.186 -0.0209  0.1976 -0.0659
  926POPC   C2B13468  17.240   2.693   6.640 -0.3637  0.0851 -0.0336
  926POPC   C3B13469  17.182   2.761   7.009 -0.1724  0.0440  0.0751
  926POPC   C4B13470  17.198   2.542   7.495 -0.1042 -0.0238 -0.1110
  927POPC   NC313471   4.687  13.642   5.202 -0.3549 -0.2886  0.0421
  927POPC   PO413472   4.457  14.033   5.242  0.1504 -0.0285 -0.2490
  927POPC   GL113473   4.198  14.051   5.727  0.1297 -0.3410  0.1474
  927POPC   GL213474   4.053  13.816   5.670  0.1382 -0.0494 -0.3010
  927POPC   C1A13475   4.042  14.037   6.104  0.2060 -0.1134  0.0780
  927POPC   D2A13476   3.979  13.971   6.493  0.1050 -0.2372 -0.2655
  927POPC   C3A13477   3.852  13.551   6.619 -0.0064  0.1905 -0.0017
  927POPC   C4A13478   4.107  13.237   6.917  0.2154 -0.0948 -0.0878
  927POPC   C1B13479   3.975  13.439   5.636 -0.1628  0.0626  0.1223
  927POPC   C2B13480   3.926  13.058   5.776 -0.1716  0.3577  0.0303
  927POPC   C3B13481   4.140  12.779   6.022 -0.0366 -0.3484  0.0030
  927POPC   C4B13482   4.286  12.570   6.351 -0.0669 -0.2605 -0.2354
  928POPC   NC313483   2.932   5.252   5.278  0.1534  0.0543  0.0190
  928POPC   PO413484   2.701   5.161   5.621  0.0692  0.0376 -0.0544
  928POPC   GL113485   2.503   5.166   6.050 -0.0182  0.1400  0.1821
  928POPC   GL213486   2.336   5.402   6.098  0.1146 -0.1218  0.3082
  928POPC   C1A13487   2.513   5.013   6.501  0.1019 -0.2297  0.1975
  928POPC   D2A13488   2.374   5.069   6.922 -0.1799 -0.1195  0.3495
  928POPC   C3A13489   2.621   4.931   7.249  0.0371  0.2452  0.0408
  928POPC   C4A13490   2.849   4.770   7.686  0.0940 -0.1189 -0.1151
  928POPC   C1B13491   1.996   5.674   6.134 -0.0200  0.1016 -0.1581
  928POPC   C2B13492   1.600   5.538   6.046  0.1920  0.1591 -0.2078
  928POPC   C3B13493   1.563   5.257   6.379 -0.0387 -0.0142  0.0064
  928POPC   C4B13494   1.612   5.391   6.860 -0.1650 -0.0053 -0.0874
  929POPC   NC313495  10.727  16.550   5.206  0.0759  0.0994 -0.1407
  929POPC   PO413496  10.989  16.838   5.423 -0.2220 -0.0508 -0.0271
  929POPC   GL113497  10.849  16.815   5.868 -0.0889 -0.0522  0.0140
  929POPC   GL213498  10.963  16.598   6.057 -0.1870  0.1893  0.1546
  929POPC   C1A13499  10.654  16.796   6.404  0.0090  0.2403 -0.1216
  929POPC   D2A13500  10.896  16.760   6.804  0.1065 -0.2113  0.1469
  929POPC   C3A13501  11.156  17.029   6.900 -0.1089 -0.1304  0.0022
  929POPC   C4A13502  11.342  16.948   7.231  0.0045 -0.3830  0.0379
  929POPC   C1B13503  11.169  16.761   6.382 -0.0613 -0.0034 -0.1098
  929POPC   C2B13504  11.095  17.207   6.318 -0.1089  0.2956 -0.0550
  929POPC   C3B13505  11.087  17.519   6.635 -0.0492 -0.1034  0.2628
  929POPC   C4B13506  11.050  17.548   7.039  0.0446 -0.0413 -0.0753
  930POPC   NC313507   0.900  14.345   5.392  0.0186 -0.1690  0.2607
  930POPC   PO413508   0.864  14.047   5.657 -0.0846 -0.1894 -0.2578
  930POPC   GL113509   1.058  13.920   5.991  0.0964 -0.0682  0.0699
  930POPC   GL213510   1.037  13.593   6.099 -0.0757  0.2688 -0.1514
  930POPC   C1A13511   1.288  13.944   6.398  0.1696  0.0586 -0.0818
  930POPC   D2A13512   1.527  13.922   6.805 -0.3153 -0.0470  0.0506
  930POPC   C3A13513   1.415  13.557   6.977  0.0578 -0.0464  0.2279
  930POPC   C4A13514   1.208  13.257   7.251 -0.2827 -0.0225 -0.1109
  930POPC   C1B13515   1.055  13.409   6.474 -0.1096  0.0345  0.1288
  930POPC   C2B13516   0.910  13.382   6.903  0.1613 -0.0645 -0.0288
  930POPC   C3B13517   0.785  13.555   7.369  0.2445 -0.2071 -0.2208
  930POPC   C4B13518   0.782  13.805   7.700  0.1051  0.0899  0.1042
  931POPC   NC313519  17.698   6.019   5.886  0.2830 -0.2004 -0.1943
  931POPC   PO413520  17.193   6.144   5.872 -0.0720  0.2543  0.1024
  931POPC   GL113521  16.948   6.178   6.235  0.0213  0.1133 -0.1960
  931POPC   GL213522  16.948   6.483   6.320 -0.2649  0.0148 -0.1765
  931POPC   C1A13523  16.662   6.179   6.671  0.1302 -0.0488 -0.1239
  931POPC   D2A13524  16.483   5.934   7.007 -0.1091 -0.0919  0.1670
  931POPC   C3A13525  16.672   5.626   7.258 -0.1811  0.1568 -0.1770
  931POPC   C4A13526  16.690   5.198   7.295  0.1012 -0.1948 -0.3168
  931POPC   C1B13527  16.976   6.575   6.773 -0.0136  0.1241  0.3069
  931POPC   C2B13528  16.849   6.399   7.151 -0.0801 -0.0423  0.0321
  931POPC   C3B13529  16.838   6.196   7.387 -0.4359  0.0520 -0.1106
  931POPC   C4B13530  17.055   5.850   7.446 -0.0426  0.2551  0.3745
  932POPC   NC313531  10.384  13.605   5.593  0.1481 -0.2047  0.1517
  932POPC   PO413532  10.463  13.905   5.762 -0.2457 -0.2263 -0.0569
  932POPC   GL113533  10.560  13.878   6.195  0.1639 -0.1779 -0.1259
  932POPC   GL213534  10.953  13.747   6.213 -0.0526 -0.0168  0.2494
  932POPC   C1A13535  10.686  13.839   6.642 -0.1196  0.0507 -0.2953
  932POPC   D2A13536  10.958  13.926   6.945  0.0675  0.0889 -0.3023
  932POPC   C3A13537  10.818  13.793   7.441 -0.2277 -0.1153 -0.0520
  932POPC   C4A13538  10.917  13.437   7.728 -0.0310  0.0750  0.5753
  932POPC   C1B13539  11.186  13.658   6.627 -0.1708 -0.0611  0.0326
  932POPC   C2B13540  11.185  13.558   7.117  0.0450  0.0300  0.2073
  932POPC   C3B13541  11.313  13.285   7.492 -0.0355 -0.1261 -0.1276
  932POPC   C4B13542  11.517  13.234   7.826  0.3074  0.0216  0.0678
  933POPC   NC313543  17.827  17.618   5.800 -0.0027  0.0230  0.0331
  933POPC   PO413544  17.735  17.988   6.074  0.2959 -0.0689 -0.5069
  933POPC   GL113545  17.847  18.114   6.525 -0.1812 -0.0221 -0.1283
  933POPC   GL213546  18.097  18.113   6.515 -0.0491 -0.2245  0.0962
  933POPC   C1A13547  17.859  18.027   6.927  0.0990 -0.3148 -0.1878
  933POPC   D2A13548  18.193  18.138   7.250 -0.3785 -0.0374 -0.1520
  933POPC   C3A13549  18.263  17.951   7.619  0.1582  0.0865  0.4662
  933POPC   C4A13550  18.582  17.824   7.727  0.3117  0.0564  0.2292
  933POPC   C1B13551  18.404  18.051   6.774 -0.2364  0.0536  0.0748
  933POPC   C2B13552  18.701  18.287   6.822  0.1773  0.1537  0.0637
  933POPC   C3B13553  18.685  18.492   7.129  0.1613  0.0471  0.1849
  933POPC   C4B13554  18.281  18.698   7.383 -0.3527  0.3829 -0.2327
  934POPC   NC313555  17.041  12.871   5.689  0.1927 -0.0230 -0.0850
  934POPC   PO413556  17.220  13.306   5.858  0.2605 -0.1779  0.1577
  934POPC   GL113557  17.265  13.203   6.243  0.1570 -0.1030  0.0164
  934POPC   GL213558  17.280  13.476   6.450 -0.0516 -0.1327  0.0003
  934POPC   C1A13559  17.299  12.967   6.614 -0.2877  0.1309 -0.0535
  934POPC   D2A13560  17.440  12.732   6.915  0.0829 -0.3417  0.1666
  934POPC   C3A13561  17.813  12.556   6.995 -0.0573 -0.0850 -0.4088
  934POPC   C4A13562  18.207  12.456   7.180  0.0411 -0.0248  0.1805
  934POPC   C1B13563  17.135  13.459   6.779  0.2673  0.0943 -0.0255
  934POPC   C2B13564  17.106  13.612   7.152 -0.0860 -0.0805 -0.0692
  934POPC   C3B13565  17.049  13.469   7.595  0.0186  0.0026 -0.0599
  934POPC   C4B13566  17.022  13.132   7.957  0.4064 -0.1763  0.1181
  935POPC   NC313567  13.065   3.025   5.839  0.3046  0.1646  0.1678
  935POPC   PO413568  13.264   2.544   5.737  0.2673  0.0384 -0.0561
  935POPC   GL113569  13.369   2.688   6.082  0.1730  0.0404 -0.1798
  935POPC   GL213570  13.133   2.758   6.273 -0.2318 -0.0043 -0.2306
  935POPC   C1A13571  13.563   2.968   6.472 -0.0634  0.0299  0.0921
  935POPC   D2A13572  13.791   3.193   6.692 -0.0986  0.0067 -0.0644
  935POPC   C3A13573  14.052   3.181   6.889  0.1309  0.2203  0.3460
  935POPC   C4A13574  14.351   3.306   7.297  0.2382  0.3464  0.0463
  935POPC   C1B13575  13.258   2.663   6.679  0.0714  0.1384  0.2699
  935POPC   C2B13576  13.179   2.658   7.037 -0.0790 -0.0639 -0.2544
  935POPC   C3B13577  13.433   2.583   7.351  0.1784 -0.0519  0.0465
  935POPC   C4B13578  13.391   2.679   7.752 -0.1431 -0.0746 -0.0735
  936POPC   NC313579  16.059   5.727   5.593 -0.0613 -0.0097  0.0197
  936POPC   PO413580  16.001   5.224   5.806  0.1757 -0.1707 -0.1542
  936POPC   GL113581  16.007   5.228   6.299 -0.0724  0.0504  0.1925
  936POPC   GL213582  15.749   5.176   6.442  0.3033  0.2404  0.0186
  936POPC   C1A13583  16.176   4.967   6.590 -0.0258  0.1653 -0.1141
  936POPC   D2A13584  16.106   4.753   7.027  0.0204 -0.5439  0.0961
  936POPC   C3A13585  16.162   4.499   7.202 -0.1213 -0.0174 -0.3434
  936POPC   C4A13586  16.213   4.314   7.548  0.0942 -0.0659 -0.1009
  936POPC   C1B13587  15.801   5.154   6.913 -0.0485  0.0239  0.0688
  936POPC   C2B13588  16.146   5.318   7.213 -0.0497 -0.0822 -0.1440
  936POPC   C3B13589  16.353   5.311   7.675  0.0305 -0.4420  0.0300
  936POPC   C4B13590  16.289   5.107   8.023 -0.2288 -0.2936  0.2340
  937POPC   NC313591  12.499   3.829   5.725  0.1697  0.0427 -0.3392
  937POPC   PO413592  12.053   3.844   5.823 -0.0598 -0.1174  0.1413
  937POPC   GL113593  12.030   3.581   6.153 -0.1251 -0.0311 -0.0202
  937POPC   GL213594  11.656   3.554   6.227 -0.1578  0.1953 -0.0785
  937POPC   C1A13595  12.288   3.477   6.379  0.2171 -0.3061 -0.0798
  937POPC   D2A13596  12.524   3.306   6.739  0.0345  0.0320  0.2841
  937POPC   C3A13597  12.528   3.409   7.205 -0.1662 -0.4535  0.2995
  937POPC   C4A13598  12.803   3.615   7.543  0.2039  0.0194 -0.0924
  937POPC   C1B13599  11.854   3.579   6.628 -0.0359  0.2094 -0.2589
  937POPC   C2B13600  12.070   3.449   7.034  0.1596 -0.2511 -0.2366
  937POPC   C3B13601  12.054   3.293   7.475 -0.1198  0.0221 -0.1734
  937POPC   C4B13602  11.917   2.986   7.655  0.2145  0.0429  0.0301
  938POPC   NC313603  18.409  17.094   5.483 -0.0674  0.1857  0.0318
  938POPC   PO413604  18.313  17.474   5.770  0.0984  0.2009 -0.0720
  938POPC   GL113605  18.542  17.306   6.133 -0.1156 -0.2504 -0.1788
  938POPC   GL213606  18.830  17.124   6.054 -0.2153  0.1461 -0.0108
  938POPC   C1A13607  18.760  17.225   6.504  0.0379  0.1058  0.0824
  938POPC   D2A13608  18.688  17.322   6.979  0.3142 -0.1124  0.0585
  938POPC   C3A13609  18.543  17.051   7.246  0.1065 -0.2879  0.1795
  938POPC   C4A13610  18.212  17.124   7.124  0.2600  0.1319  0.1070
  938POPC   C1B13611  18.989  17.617   6.270 -0.1501  0.2125 -0.0180
  938POPC   C2B13612  19.027  18.148   6.483  0.0419  0.0534  0.2123
  938POPC   C3B13613  19.158  18.167   6.959  0.3664  0.0605  0.2447
  938POPC   C4B13614  19.251  18.347   7.408 -0.0895 -0.0959  0.2027
  939POPC   NC313615  14.480  10.572   5.702  0.0359  0.0692 -0.0679
  939POPC   PO413616  14.729  10.181   5.877  0.2442 -0.1383  0.1623
  939POPC   GL113617  14.759  10.158   6.274  0.0326 -0.0219  0.4305
  939POPC   GL213618  14.798  10.508   6.360 -0.1860 -0.0019 -0.0671
  939POPC   C1A13619  14.589   9.748   6.516  0.2442  0.1950  0.1233
  939POPC   D2A13620  14.478   9.594   6.906 -0.0519  0.0532  0.0350
  939POPC   C3A13621  14.250   9.866   7.087  0.1859 -0.0689 -0.1298
  939POPC   C4A13622  14.088  10.275   7.180  0.0835 -0.2216 -0.2722
  939POPC   C1B13623  15.169  10.316   6.690 -0.2468  0.2408  0.1041
  939POPC   C2B13624  15.262  10.157   7.067  0.0844 -0.2492 -0.2465
  939POPC   C3B13625  15.275   9.833   7.275  0.3413  0.4010  0.0840
  939POPC   C4B13626  15.180   9.795   7.690 -0.3771  0.1784  0.0008
  940POPC   NC313627   4.687   0.067   5.248 -0.0949 -0.3521 -0.0906
  940POPC   PO413628   4.303  -0.024   5.387  0.0410 -0.0406  0.1549
  940POPC   GL113629   4.371  -0.315   5.699 -0.0029 -0.0220  0.0687
  940POPC   GL213630   4.255  -0.647   5.764 -0.0899  0.1179 -0.0790
  940POPC   C1A13631   4.471  -0.205   6.119  0.0178 -0.2602 -0.1557
  940POPC   D2A13632   4.488  -0.120   6.588 -0.0646  0.2183 -0.6073
  940POPC   C3A13633   4.184  -0.053   6.758  0.0442 -0.0202 -0.3994
  940POPC   C4A13634   3.737   0.081   6.832 -0.2805 -0.0039 -0.1706
  940POPC   C1B13635   4.301  -1.025   5.980 -0.0175  0.0672  0.2351
  940POPC   C2B13636   4.422  -1.123   6.465  0.2040 -0.0083 -0.0116
  940POPC   C3B13637   4.143  -0.993   6.770  0.1430 -0.1425  0.0392
  940POPC   C4B13638   4.115  -1.146   7.224  0.1466 -0.1493  0.1557
  941YOPC   NC313639  15.348   1.652   5.255  0.2437  0.2924 -0.2660
  941YOPC   PO413640  15.359   1.371   5.566 -0.1606  0.1919  0.1561
  941YOPC   GL113641  15.232   1.270   5.925 -0.0072 -0.0602  0.2310
  941YOPC   GL213642  14.894   1.053   5.956  0.0303 -0.6071 -0.2493
  941YOPC   C1A13643  15.134   1.218   6.324  0.1324  0.1187 -0.0380
  941YOPC   D2A13644  14.948   1.072   6.730 -0.0105  0.0843 -0.0980
  941YOPC   C3A13645  14.958   1.461   7.014  0.0676  0.1338  0.2426
  941YOPC   C4A13646  14.860   1.747   7.374  0.1581  0.1092 -0.0814
  941YOPC   C1B13647  14.577   1.112   6.336 -0.2038 -0.2004 -0.0057
  941YOPC   C2B13648  14.164   1.087   6.433 -0.2284  0.1504  0.1652
  941YOPC   D3B13649  13.885   0.852   6.110 -0.2909 -0.0945  0.0294
  941YOPC   C4B13650  13.548   0.993   5.900  0.2902 -0.2117 -0.1843
  942YOPC   NC313651   9.371  16.032   5.772 -0.1725  0.1370 -0.0036
  942YOPC   PO413652   9.752  15.932   5.586  0.1422  0.1214  0.3341
  942YOPC   GL113653   9.733  15.743   5.996  0.0244  0.0522  0.6853
  942YOPC   GL213654   9.794  15.432   6.007  0.0300 -0.4502 -0.0388
  942YOPC   C1A13655   9.843  15.842   6.403  0.0187  0.0011  0.1671
  942YOPC   D2A13656  10.016  16.080   6.599 -0.0898 -0.2536  0.0981
  942YOPC   C3A13657  10.003  15.863   6.989  0.0120 -0.3212 -0.3593
  942YOPC   C4A13658  10.162  15.867   7.427 -0.0926 -0.1762  0.3197
  942YOPC   C1B13659   9.595  15.428   6.365  0.1316  0.0534 -0.3496
  942YOPC   C2B13660   9.640  15.490   6.753 -0.3263  0.1155 -0.1450
  942YOPC   D3B13661   9.557  15.178   6.986 -0.2208 -0.1061 -0.1119
  942YOPC   C4B13662   9.814  14.740   7.110 -0.2222 -0.0250  0.1186
  943YOPC   NC313663   1.162  12.605   5.632  0.0579  0.0114  0.1213
  943YOPC   PO413664   0.769  12.712   5.704  0.2409  0.2190 -0.2419
  943YOPC   GL113665   0.835  12.790   6.109  0.1820 -0.0314  0.0284
  943YOPC   GL213666   1.097  12.983   6.226 -0.0923  0.1398  0.1493
  943YOPC   C1A13667   0.837  12.813   6.563  0.2081 -0.0858  0.5453
  943YOPC   D2A13668   1.002  12.404   6.791 -0.0287  0.1130  0.1083
  943YOPC   C3A13669   1.320  12.303   6.991  0.1403  0.0751  0.1987
  943YOPC   C4A13670   1.558  12.219   7.244 -0.1644  0.2605  0.1298
  943YOPC   C1B13671   1.354  12.643   6.448 -0.1305 -0.0309  0.3281
  943YOPC   C2B13672   1.703  12.558   6.517 -0.2612 -0.3044  0.2208
  943YOPC   D3B13673   1.802  12.559   6.999  0.2585 -0.2752 -0.1778
  943YOPC   C4B13674   1.671  12.635   7.468  0.3219  0.2046  0.2483
  944YOPC   NC313675  18.440   2.275   5.640 -0.0511  0.0924  0.1463
  944YOPC   PO413676  18.420   2.673   5.556  0.1359 -0.2891 -0.1161
  944YOPC   GL113677  18.230   2.699   5.952  0.0845  0.0354 -0.1799
  944YOPC   GL213678  18.601   2.710   6.161  0.0542 -0.1004  0.0943
  944YOPC   C1A13679  18.171   2.536   6.390 -0.1734 -0.2047 -0.0715
  944YOPC   D2A13680  18.035   2.357   6.665 -0.3185 -0.2779 -0.0670
  944YOPC   C3A13681  17.643   2.454   6.916  0.2167  0.0352 -0.2766
  944YOPC   C4A13682  17.419   2.181   7.125 -0.0562  0.3073  0.3452
  944YOPC   C1B13683  18.550   2.759   6.645  0.2796  0.2943 -0.2398
  944YOPC   C2B13684  18.497   2.897   7.040 -0.0145 -0.1657 -0.1675
  944YOPC   D3B13685  18.388   3.068   7.402 -0.1195  0.0275 -0.0962
  944YOPC   C4B13686  18.157   2.934   7.617  0.4506 -0.1534  0.3337
  945YOPC   NC313687  14.399   8.118   5.312  0.1530 -0.1080 -0.2105
  945YOPC   PO413688  14.298   8.272   5.790  0.0360  0.5046 -0.1239
  945YOPC   GL113689  14.421   8.584   6.172  0.1094 -0.2111  0.1172
  945YOPC   GL213690  14.408   8.130   6.304 -0.1503  0.0151  0.1993
  945YOPC   C1A13691  14.632   8.685   6.570 -0.1242 -0.0131 -0.1413
  945YOPC   D2A13692  14.507   8.499   6.980  0.1084  0.0115  0.2150
  945YOPC   C3A13693  14.264   8.379   7.225  0.1110 -0.0087  0.1006
  945YOPC   C4A13694  13.924   8.486   7.502  0.1468  0.0085 -0.1393
  945YOPC   C1B13695  14.187   8.333   6.654 -0.0464  0.0856  0.0491
  945YOPC   C2B13696  14.130   8.737   6.678 -0.1855  0.0272  0.0394
  945YOPC   D3B13697  14.039   8.897   7.164  0.0433  0.0100 -0.1142
  945YOPC   C4B13698  13.938   8.956   7.675  0.0643 -0.1530 -0.1732
  946YOPC   NC313699  10.863  15.134   5.878  0.2429  0.1029 -0.0741
  946YOPC   PO413700  11.118  15.523   5.837 -0.0859  0.2980 -0.0953
  946YOPC   GL113701  11.368  15.349   6.190  0.2120  0.0727  0.3264
  946YOPC   GL213702  11.455  15.072   6.265 -0.4687 -0.0579  0.0200
  946YOPC   C1A13703  11.427  15.471   6.577  0.1335 -0.0734  0.4844
  946YOPC   D2A13704  11.495  15.457   6.969  0.1900  0.2134  0.1388
  946YOPC   C3A13705  11.374  15.616   7.341 -0.2741 -0.2010  0.2567
  946YOPC   C4A13706  11.520  15.532   7.718  0.3064 -0.2499  0.2460
  946YOPC   C1B13707  11.527  15.004   6.754 -0.0813 -0.0475 -0.1277
  946YOPC   C2B13708  11.748  14.823   7.061  0.2045 -0.2826  0.1886
  946YOPC   D3B13709  11.827  14.761   7.474 -0.0656 -0.2585 -0.0076
  946YOPC   C4B13710  11.816  15.088   7.840 -0.0372 -0.3221 -0.0966
  947YOPC   NC313711   1.901   6.655   5.275 -0.0326 -0.2554  0.1262
  947YOPC   PO413712   1.539   6.412   5.408  0.2694 -0.1560  0.0128
  947YOPC   GL113713   1.692   6.423   5.825 -0.0260  0.2022 -0.1801
  947YOPC   GL213714   1.769   6.723   5.890 -0.0788  0.1155 -0.0757
  947YOPC   C1A13715   1.470   6.467   6.220 -0.1290 -0.2691 -0.1503
  947YOPC   D2A13716   1.307   6.793   6.487 -0.0446  0.2202 -0.0094
  947YOPC   C3A13717   1.019   6.705   6.697  0.0860 -0.0768 -0.1552
  947YOPC   C4A13718   0.583   6.630   6.713 -0.0896 -0.1090  0.0164
  947YOPC   C1B13719   1.885   6.695   6.345 -0.1929 -0.0064 -0.1138
  947YOPC   C2B13720   1.746   6.504   6.747 -0.2346 -0.2253 -0.0349
  947YOPC   D3B13721   1.871   6.713   7.104 -0.1283 -0.0415 -0.0064
  947YOPC   C4B13722   1.662   7.055   7.282 -0.1696  0.0913 -0.2560
  948YOPC   NC313723   6.914  14.414   5.150 -0.3162 -0.0224  0.0593
  948YOPC   PO413724   6.824  14.038   5.413  0.0188  0.2607  0.4811
  948YOPC   GL113725   6.578  14.301   5.609  0.1673 -0.0562 -0.1346
  948YOPC   GL213726   6.267  14.228   5.619 -0.0204 -0.0726  0.2555
  948YOPC   C1A13727   6.536  14.417   6.138 -0.0868  0.1421 -0.2674
  948YOPC   D2A13728   6.145  14.375   6.440  0.0305  0.1773 -0.3015
  948YOPC   C3A13729   5.728  14.431   6.604  0.1121 -0.0902  0.3149
  948YOPC   C4A13730   5.492  14.386   7.037  0.2815 -0.0765  0.0574
  948YOPC   C1B13731   6.140  14.106   6.003 -0.0003 -0.1406  0.0005
  948YOPC   C2B13732   5.898  13.957   6.270 -0.0588  0.0136 -0.2032
  948YOPC   D3B13733   5.930  13.908   6.565 -0.0048 -0.2120  0.0960
  948YOPC   C4B13734   6.152  13.580   6.725  0.1471  0.1851  0.0165
  949YOPC   NC313735  14.334   6.392   5.883 -0.0388 -0.1416  0.2906
  949YOPC   PO413736  14.585   6.782   5.844  0.3020  0.0902  0.1243
  949YOPC   GL113737  14.541   6.737   6.239 -0.2264 -0.1891 -0.0825
  949YOPC   GL213738  14.359   6.952   6.446  0.0092  0.0772  0.3058
  949YOPC   C1A13739  14.635   6.536   6.664 -0.0985 -0.0962  0.0481
  949YOPC   D2A13740  14.534   6.217   7.023  0.3155 -0.3004  0.0946
  949YOPC   C3A13741  14.487   6.378   7.336  0.1819 -0.1139  0.4744
  949YOPC   C4A13742  14.233   6.391   7.755  0.2529  0.0273  0.4113
  949YOPC   C1B13743  14.459   7.036   6.818  0.2993  0.0812 -0.1206
  949YOPC   C2B13744  14.369   7.006   7.172 -0.3630  0.0676  0.1615
  949YOPC   D3B13745  14.263   7.200   7.564  0.2500 -0.0366  0.1807
  949YOPC   C4B13746  14.450   7.611   7.840  0.1310  0.2107 -0.1218
  950YOPC   NC313747   7.652  15.626   5.709 -0.0946 -0.0631 -0.1733
  950YOPC   PO413748   8.070  15.452   5.646  0.2587 -0.3437  0.0651
  950YOPC   GL113749   8.310  15.403   6.049  0.1322  0.2368 -0.0264
  950YOPC   GL213750   8.076  15.670   6.178 -0.1876 -0.2823 -0.2146
  950YOPC   C1A13751   8.300  15.396   6.525 -0.0729 -0.1391  0.1305
  950YOPC   D2A13752   8.662  15.444   6.836 -0.0882  0.0323 -0.0312
  950YOPC   C3A13753   8.653  15.873   7.147  0.1024  0.1076 -0.2031
  950YOPC   C4A13754   8.332  16.025   7.530  0.2612 -0.1696  0.0801
  950YOPC   C1B13755   7.638  15.405   6.340 -0.0355 -0.0015 -0.0336
  950YOPC   C2B13756   7.563  15.015   6.531 -0.0678  0.1331 -0.1835
  950YOPC   D3B13757   7.495  14.967   6.996 -0.0572 -0.2841 -0.0447
  950YOPC   C4B13758   7.493  15.083   7.495 -0.0967 -0.2377  0.0145
  951YOPC   NC313759   7.215   3.800   5.167  0.0168 -0.2920  0.0768
  951YOPC   PO413760   7.562   3.732   5.412 -0.0315 -0.0251 -0.0617
  951YOPC   GL113761   7.487   3.607   5.831  0.2456  0.5554  0.4332
  951YOPC   GL213762   7.371   3.303   5.846  0.1194 -0.1010 -0.3232
  951YOPC   C1A13763   7.805   3.568   6.011 -0.2760 -0.1845 -0.0693
  951YOPC   D2A13764   8.066   3.557   6.441 -0.0735 -0.0827  0.0243
  951YOPC   C3A13765   8.301   3.900   6.647 -0.2251  0.2630  0.2149
  951YOPC   C4A13766   8.531   4.158   6.895  0.0116 -0.0295 -0.1058
  951YOPC   C1B13767   7.430   3.292   6.289  0.2292  0.1300  0.1086
  951YOPC   C2B13768   7.735   3.212   6.644  0.0499 -0.1355 -0.2976
  951YOPC   D3B13769   7.485   3.133   7.038 -0.0768  0.1729  0.0789
  951YOPC   C4B13770   7.065   3.237   7.110 -0.3394  0.1905 -0.1211
  952YOPC   NC313771   5.577   4.948   4.960 -0.1774  0.3440 -0.1485
  952YOPC   PO413772   6.043   5.204   5.106 -0.0996  0.1312  0.4619
  952YOPC   GL113773   5.802   5.016   5.410 -0.1025 -0.1026 -0.0746
  952YOPC   GL213774   6.104   4.830   5.586 -0.1043 -0.1563  0.1305
  952YOPC   C1A13775   5.681   5.072   5.866  0.6171 -0.2055  0.1764
  952YOPC   D2A13776   6.098   5.192   6.138  0.2179 -0.1174 -0.1000
  952YOPC   C3A13777   5.872   5.353   6.464 -0.0572 -0.1487 -0.3297
  952YOPC   C4A13778   5.755   5.065   6.882  0.0676  0.0624 -0.0020
  952YOPC   C1B13779   6.456   4.907   5.913 -0.0301  0.1461  0.0306
  952YOPC   C2B13780   6.550   4.870   6.320 -0.2869  0.1067  0.0526
  952YOPC   D3B13781   6.418   5.295   6.556  0.4184  0.0203 -0.0037
  952YOPC   C4B13782   6.140   5.388   6.970 -0.1251  0.1040  0.1339
  953YOPC   NC313783  14.155  12.066   6.240 -0.0163 -0.0137  0.0814
  953YOPC   PO413784  14.547  12.106   6.460  0.0294  0.1444  0.1587
  953YOPC   GL113785  14.398  12.326   6.796 -0.1690 -0.0893 -0.0268
  953YOPC   GL213786  14.037  12.341   6.731  0.0487  0.0887  0.3750
  953YOPC   C1A13787  14.256  12.295   7.165 -0.0873  0.1800 -0.0892
  953YOPC   D2A13788  13.860  12.324   7.443 -0.2091 -0.3620 -0.3167
  953YOPC   C3A13789  13.521  12.729   7.545  0.0198  0.2005 -0.1476
  953YOPC   C4A13790  13.461  12.950   7.919 -0.2164 -0.0855  0.1333
  953YOPC   C1B13791  13.776  12.607   6.980  0.1838  0.0455 -0.2379
  953YOPC   C2B13792  13.436  12.391   7.134  0.1236  0.0621 -0.0634
  953YOPC   D3B13793  13.353  12.239   7.547 -0.0586  0.1259  0.1576
  953YOPC   C4B13794  13.353  11.877   7.941 -0.1772  0.0210  0.0692
  954YOPC   NC313795   3.793   5.494   5.210 -0.1781 -0.0421 -0.3923
  954YOPC   PO413796   3.448   5.131   5.219 -0.0247 -0.2496  0.1117
  954YOPC   GL113797   3.654   5.276   5.652  0.1856  0.2010 -0.1180
  954YOPC   GL213798   3.611   5.562   5.756 -0.1742 -0.2323  0.0972
  954YOPC   C1A13799   3.591   5.250   6.149 -0.1984  0.0247 -0.0139
  954YOPC   D2A13800   3.305   5.226   6.465  0.0089 -0.0299 -0.1026
  954YOPC   C3A13801   3.183   5.676   6.631  0.0152  0.0638 -0.1785
  954YOPC   C4A13802   3.307   5.931   7.057 -0.1443 -0.0110  0.2004
  954YOPC   C1B13803   3.289   5.642   6.051  0.0483  0.0475  0.0957
  954YOPC   C2B13804   2.836   5.426   6.328 -0.4439 -0.0659  0.2208
  954YOPC   D3B13805   2.639   5.496   6.693  0.0546  0.2241  0.0416
  954YOPC   C4B13806   2.764   5.653   7.040 -0.2760  0.3761 -0.4565
  955YOPC   NC313807  16.826  16.204   5.124  0.1865 -0.1494 -0.3155
  955YOPC   PO413808  16.951  16.403   5.475 -0.1406 -0.1807 -0.3814
  955YOPC   GL113809  17.038  16.535   5.930 -0.0694  0.2454  0.1556
  955YOPC   GL213810  16.744  16.711   6.125 -0.0017 -0.0208 -0.1644
  955YOPC   C1A13811  17.165  16.332   6.336  0.3007  0.0183 -0.2464
  955YOPC   D2A13812  17.063  16.184   6.753  0.1062 -0.2867  0.0816
  955YOPC   C3A13813  17.135  16.204   7.070  0.1604  0.1945 -0.0981
  955YOPC   C4A13814  17.037  16.384   7.425 -0.0487 -0.0081  0.2960
  955YOPC   C1B13815  16.805  16.675   6.562  0.0478  0.0906 -0.3188
  955YOPC   C2B13816  16.799  16.620   6.950 -0.0914  0.0542  0.0265
  955YOPC   D3B13817  16.586  16.837   7.154  0.3160 -0.0593  0.0862
  955YOPC   C4B13818  16.443  17.266   7.393 -0.3589 -0.0047  0.1311
  956YOPC   NC313819   4.354   6.901   5.514 -0.0746 -0.1553  0.0869
  956YOPC   PO413820   4.672   6.570   5.350 -0.4503 -0.0133 -0.1524
  956YOPC   GL113821   4.769   6.503   5.727 -0.0232  0.0746  0.1659
  956YOPC   GL213822   5.101   6.352   5.625  0.2298  0.0804 -0.1701
  956YOPC   C1A13823   4.324   6.494   6.024  0.5200 -0.1018  0.2098
  956YOPC   D2A13824   4.210   6.309   6.487  0.0473  0.2284  0.3228
  956YOPC   C3A13825   4.452   6.534   6.726  0.4923 -0.0401 -0.1672
  956YOPC   C4A13826   4.687   6.592   6.897  0.2054 -0.3700  0.1265
  956YOPC   C1B13827   5.163   6.182   6.040  0.0173  0.0618  0.0009
  956YOPC   C2B13828   5.146   5.987   6.319  0.2120 -0.0353  0.1767
  956YOPC   D3B13829   5.481   5.829   6.630  0.1869 -0.0399 -0.0045
  956YOPC   C4B13830   5.691   5.574   6.883  0.0294 -0.1395  0.0146
  957YOPC   NC313831   3.378   2.322   5.538 -0.1674 -0.2113 -0.1915
  957YOPC   PO413832   3.000   1.982   5.608 -0.2911  0.3170 -0.1557
  957YOPC   GL113833   3.061   1.812   5.977  0.0830  0.1001 -0.0191
  957YOPC   GL213834   3.321   1.922   6.024 -0.1340 -0.0043 -0.0716
  957YOPC   C1A13835   2.834   1.608   6.301 -0.3138 -0.0895  0.0602
  957YOPC   D2A13836   2.945   1.306   6.630 -0.1579  0.0474  0.2489
  957YOPC   C3A13837   2.695   0.856   6.629 -0.1092 -0.0780 -0.3230
  957YOPC   C4A13838   2.249   0.787   6.876  0.2228  0.0887 -0.0574
  957YOPC   C1B13839   3.496   2.226   6.254 -0.0763  0.1386  0.1236
  957YOPC   C2B13840   3.840   2.359   6.625 -0.0841  0.1043 -0.1756
  957YOPC   D3B13841   3.869   2.710   6.926 -0.2215  0.1143  0.1441
  957YOPC   C4B13842   3.669   2.670   7.271  0.0828 -0.2082  0.1356
  958YOPC   NC313843   9.736  14.229   5.928 -0.1837  0.0119  0.0200
  958YOPC   PO413844   9.917  13.885   5.548 -0.2507  0.0461  0.0600
  958YOPC   GL113845  10.007  13.864   6.047  0.3259 -0.1745 -0.0145
  958YOPC   GL213846  10.118  13.591   6.146 -0.1258 -0.1755  0.1270
  958YOPC   C1A13847  10.183  13.878   6.524  0.2090  0.1878  0.0566
  958YOPC   D2A13848  10.376  13.891   7.026  0.1553 -0.0937 -0.2614
  958YOPC   C3A13849  10.603  14.223   7.137 -0.0790 -0.1149  0.2587
  958YOPC   C4A13850  10.752  14.646   6.963 -0.1001  0.0188  0.2530
  958YOPC   C1B13851  10.047  13.394   6.540 -0.1865  0.4472  0.0493
  958YOPC   C2B13852   9.977  13.389   7.077  0.1162  0.1132  0.1782
  958YOPC   D3B13853  10.232  13.084   7.187 -0.1345  0.0802 -0.0762
  958YOPC   C4B13854  10.619  12.769   7.103 -0.1484  0.0549 -0.1328
  959YOPC   NC313855   6.027   2.655   5.164 -0.1609  0.0321 -0.4415
  959YOPC   PO413856   5.718   2.842   5.185 -0.0456  0.3301  0.1635
  959YOPC   GL113857   5.802   3.014   5.520 -0.3415  0.0190  0.0192
  959YOPC   GL213858   5.891   3.335   5.547 -0.3143  0.0839 -0.1760
  959YOPC   C1A13859   5.869   3.018   6.040  0.1409  0.0129  0.2076
  959YOPC   D2A13860   5.936   2.746   6.397 -0.2467 -0.0263 -0.1565
  959YOPC   C3A13861   6.359   2.508   6.464 -0.3627 -0.0543  0.0217
  959YOPC   C4A13862   6.632   2.349   6.251  0.0197 -0.5477  0.0213
  959YOPC   C1B13863   5.833   3.491   5.917 -0.0110  0.2969  0.0656
  959YOPC   C2B13864   5.761   3.718   6.228  0.0043 -0.2336  0.0067
  959YOPC   D3B13865   5.842   3.846   6.621 -0.0201 -0.2646 -0.1697
  959YOPC   C4B13866   6.012   4.152   6.922 -0.1134  0.1640 -0.1246
  960YOPC   NC313867   1.614  14.645   4.927 -0.0036 -0.2559  0.5032
  960YOPC   PO413868   1.375  14.775   5.354 -0.2060 -0.2352  0.1099
  960YOPC   GL113869   1.327  14.440   5.711  0.0887  0.1896 -0.1999
  960YOPC   GL213870   1.026  14.430   5.874 -0.2212 -0.1945 -0.4178
  960YOPC   C1A13871   1.527  14.320   6.138  0.2911  0.1309  0.1819
  960YOPC   D2A13872   1.702  14.294   6.572 -0.2990 -0.0967 -0.0062
  960YOPC   C3A13873   2.060  13.975   6.624  0.0993 -0.2046  0.1326
  960YOPC   C4A13874   2.413  13.711   6.440  0.1829  0.0616 -0.2314
  960YOPC   C1B13875   1.004  14.453   6.309  0.2524  0.0964 -0.0950
  960YOPC   C2B13876   1.233  14.301   6.736 -0.2041  0.1999 -0.1223
  960YOPC   D3B13877   1.536  14.479   7.140 -0.0106 -0.0045  0.0691
  960YOPC   C4B13878   1.879  14.543   7.373 -0.1762  0.0504 -0.1170
  961YOPC   NC313879   3.276   3.492   5.492  0.1666 -0.0844 -0.1359
  961YOPC   PO413880   2.919   3.558   5.407  0.0828  0.0520 -0.1874
  961YOPC   GL113881   2.823   3.246   5.627 -0.0883 -0.0626  0.1001
  961YOPC   GL213882   3.036   3.018   5.638  0.0290 -0.0423  0.1256
  961YOPC   C1A13883   2.681   3.225   6.064  0.0519  0.1017  0.1717
  961YOPC   D2A13884   2.663   3.177   6.501  0.1371 -0.1404 -0.2847
  961YOPC   C3A13885   2.878   2.878   6.681  0.4264 -0.1469  0.0479
  961YOPC   C4A13886   2.991   2.653   7.082 -0.1523 -0.0306 -0.2358
  961YOPC   C1B13887   3.067   2.903   6.100  0.0507 -0.0625 -0.0078
  961YOPC   C2B13888   3.148   2.531   6.278  0.0688 -0.3971  0.1412
  961YOPC   D3B13889   3.338   2.425   6.784  0.0869  0.0698  0.1677
  961YOPC   C4B13890   3.480   2.043   6.907 -0.2243  0.1453 -0.0485
  962YOPC   NC313891  12.136   2.194   5.646 -0.2558 -0.0465 -0.0561
  962YOPC   PO413892  12.515   2.033   5.894 -0.2829 -0.2560  0.0868
  962YOPC   GL113893  12.555   2.101   6.336 -0.2924  0.1834  0.0931
  962YOPC   GL213894  12.772   2.278   6.548  0.0096 -0.1242  0.0053
  962YOPC   C1A13895  12.618   1.848   6.675 -0.1620 -0.1288 -0.0411
  962YOPC   D2A13896  12.885   1.757   6.980 -0.1753 -0.1192  0.0472
  962YOPC   C3A13897  13.059   1.471   7.246 -0.0132  0.1274 -0.4687
  962YOPC   C4A13898  13.190   1.579   7.601  0.0573 -0.1574 -0.0024
  962YOPC   C1B13899  13.106   2.185   6.692 -0.0624  0.1949  0.1239
  962YOPC   C2B13900  13.420   2.150   7.027  0.1057 -0.3357 -0.2512
  962YOPC   D3B13901  13.384   2.011   7.380  0.0901  0.0400 -0.2764
  962YOPC   C4B13902  13.562   2.172   7.665 -0.1559 -0.0302 -0.3095
  963YOPC   NC313903   2.849   4.435   5.589  0.0267 -0.0488  0.3277
  963YOPC   PO413904   2.575   4.264   5.804 -0.0710 -0.0230 -0.0136
  963YOPC   GL113905   2.878   4.218   6.082 -0.1449 -0.2275  0.1359
  963YOPC   GL213906   3.124   4.008   6.180 -0.2353 -0.1297 -0.0721
  963YOPC   C1A13907   3.102   4.374   6.455 -0.1492  0.1533 -0.0479
  963YOPC   D2A13908   2.969   4.799   6.464  0.1593  0.1997 -0.1792
  963YOPC   C3A13909   3.000   5.064   6.835 -0.2305  0.2031 -0.0483
  963YOPC   C4A13910   3.109   5.340   7.203 -0.3264  0.1293 -0.5381
  963YOPC   C1B13911   3.298   3.762   6.404 -0.2899 -0.0075 -0.0397
  963YOPC   C2B13912   3.665   3.604   6.592 -0.3195 -0.0101  0.2862
  963YOPC   D3B13913   3.653   3.770   7.013  0.1057  0.0585 -0.1281
  963YOPC   C4B13914   3.520   4.065   7.294 -0.2535 -0.2809  0.1319
  964YOPC   NC313915   3.738   0.251   5.520  0.2754  0.2393 -0.2656
  964YOPC   PO413916   3.255   0.203   5.527  0.0553  0.2522  0.0474
  964YOPC   GL113917   3.014   0.279   5.852  0.3377  0.1337 -0.0583
  964YOPC   GL213918   3.087   0.621   5.879  0.0509  0.0509  0.3355
  964YOPC   C1A13919   2.822   0.007   6.072 -0.0151 -0.1926  0.1480
  964YOPC   D2A13920   2.977  -0.362   6.117  0.1228 -0.0746 -0.1053
  964YOPC   C3A13921   2.780  -0.690   6.308 -0.2217  0.1019 -0.0884
  964YOPC   C4A13922   2.545  -1.004   6.530 -0.0152 -0.1429 -0.0121
  964YOPC   C1B13923   3.009   0.450   6.341  0.0366  0.3224 -0.0336
  964YOPC   C2B13924   3.126   0.381   6.796 -0.0740 -0.1422 -0.0324
  964YOPC   D3B13925   3.183   0.500   7.181 -0.0547 -0.0614  0.0434
  964YOPC   C4B13926   3.099   0.742   7.546  0.0303 -0.0121  0.2575
  965YOPC   NC313927   0.940   1.055   5.480 -0.1762 -0.1305 -0.0153
  965YOPC   PO413928   1.444   0.976   5.522  0.0621  0.0389 -0.0782
  965YOPC   GL113929   1.267   1.022   5.911 -0.1416 -0.2307  0.3140
  965YOPC   GL213930   1.299   1.452   6.029 -0.1041  0.2989  0.0055
  965YOPC   C1A13931   1.299   0.977   6.304 -0.3806  0.0757 -0.0523
  965YOPC   D2A13932   1.650   0.791   6.487  0.0111 -0.3228  0.1821
  965YOPC   C3A13933   1.764   0.621   6.839 -0.3116  0.1049  0.4326
  965YOPC   C4A13934   1.779   0.510   7.250  0.0529 -0.0428 -0.2695
  965YOPC   C1B13935   0.994   1.325   6.304 -0.2156  0.0623  0.1400
  965YOPC   C2B13936   1.140   1.248   6.691 -0.2113 -0.0573  0.1961
  965YOPC   D3B13937   1.313   0.886   6.837  0.1023 -0.1081  0.0742
  965YOPC   C4B13938   1.307   0.779   7.233 -0.0567  0.0871 -0.3924
  966YOPC   NC313939   0.476  11.702   5.443 -0.3282 -0.0520  0.1002
  966YOPC   PO413940   0.222  12.070   5.447  0.2791  0.0200 -0.1094
  966YOPC   GL113941   0.381  12.220   5.836 -0.2728  0.1886  0.2590
  966YOPC   GL213942   0.631  12.361   6.089 -0.1363  0.0699  0.1456
  966YOPC   C1A13943   0.369  12.014   6.328 -0.0937  0.3132  0.1937
  966YOPC   D2A13944   0.225  12.018   6.703  0.1225 -0.1130  0.0660
  966YOPC   C3A13945  -0.038  11.797   6.946  0.0015 -0.1013 -0.1432
  966YOPC   C4A13946  -0.234  11.540   7.263  0.0771  0.4549  0.0042
  966YOPC   C1B13947   1.003  12.352   6.285 -0.0550  0.4268 -0.0987
  966YOPC   C2B13948   1.315  12.030   6.401  0.0211 -0.0210 -0.2269
  966YOPC   D3B13949   1.206  11.738   6.748  0.1320  0.0507  0.0164
  966YOPC   C4B13950   1.021  11.647   7.082  0.0365 -0.2530 -0.1177
  967YOPC   NC313951  14.577   9.026   6.053 -0.1654  0.0371  0.2350
  967YOPC   PO413952  14.348   9.360   6.036  0.1042 -0.1473 -0.1279
  967YOPC   GL113953  14.319   9.411   6.466  0.0625  0.1144  0.1002
  967YOPC   GL213954  14.104   9.729   6.598 -0.1391 -0.0813 -0.1729
  967YOPC   C1A13955  14.431   9.139   6.816  0.0469  0.1640 -0.2518
  967YOPC   D2A13956  14.628   9.066   7.158  0.1314 -0.0506 -0.1693
  967YOPC   C3A13957  14.471   8.775   7.399 -0.0169  0.1647  0.1497
  967YOPC   C4A13958  14.284   8.627   7.768 -0.1080 -0.1034 -0.0075
  967YOPC   C1B13959  13.855  10.073   6.732 -0.1010  0.0717  0.0315
  967YOPC   C2B13960  13.685   9.980   7.115 -0.2370 -0.0608 -0.2727
  967YOPC   D3B13961  14.084   9.827   7.529 -0.0725  0.1920  0.3286
  967YOPC   C4B13962  14.408  10.021   7.559 -0.1543 -0.1221 -0.1543
  968YOPC   NC313963  16.171   7.811   5.824  0.1067 -0.1549 -0.2801
  968YOPC   PO413964  16.077   7.416   5.545  0.2665  0.4652 -0.2969
  968YOPC   GL113965  16.261   7.354   5.994 -0.2319 -0.0343 -0.1702
  968YOPC   GL213966  16.107   7.223   6.224  0.0811  0.2636 -0.2456
  968YOPC   C1A13967  16.550   7.359   6.371  0.1211  0.2276  0.1506
  968YOPC   D2A13968  16.619   7.107   6.827  0.0086  0.2089 -0.0260
  968YOPC   C3A13969  16.908   7.221   7.098 -0.0966  0.1647 -0.0181
  968YOPC   C4A13970  17.057   7.257   7.560  0.0197  0.1606  0.2397
  968YOPC   C1B13971  16.145   7.015   6.690  0.0731  0.1559 -0.2198
  968YOPC   C2B13972  16.265   6.999   7.175  0.1125 -0.0462  0.0017
  968YOPC   D3B13973  16.586   6.801   7.355 -0.0281  0.0849 -0.1935
  968YOPC   C4B13974  17.051   6.793   7.358  0.1342 -0.0255 -0.0681
  969YOPC   NC313975   1.452  17.084   5.384  0.1802  0.0499  0.1200
  969YOPC   PO413976   1.133  16.657   5.387  0.0617 -0.1897  0.3451
  969YOPC   GL113977   1.224  16.543   5.780  0.1106  0.0725  0.1914
  969YOPC   GL213978   1.141  16.192   5.859 -0.1970 -0.1501  0.1646
  969YOPC   C1A13979   0.854  16.748   6.104 -0.1295  0.1141  0.0664
  969YOPC   D2A13980   0.814  16.686   6.497  0.2920 -0.1958 -0.0168
  969YOPC   C3A13981   1.058  16.498   6.813 -0.0521 -0.0908  0.4780
  969YOPC   C4A13982   1.383  16.224   6.879  0.3261 -0.1934 -0.2745
  969YOPC   C1B13983   0.900  15.831   5.976  0.0220  0.2391  0.1253
  969YOPC   C2B13984   0.920  15.734   6.443 -0.3641 -0.1872  0.0289
  969YOPC   D3B13985   1.098  15.460   6.698 -0.1388  0.2944 -0.1119
  969YOPC   C4B13986   1.321  15.579   7.037 -0.0151  0.0328 -0.1297
  970YOPC   NC313987   4.943  15.308   5.481  0.2416  0.1640 -0.1990
  970YOPC   PO413988   5.422  15.222   5.340 -0.2256 -0.2656  0.3081
  970YOPC   GL113989   5.291  15.138   5.786  0.2540  0.0035 -0.1073
  970YOPC   GL213990   4.977  15.031   5.939 -0.0326 -0.1182 -0.0017
  970YOPC   C1A13991   5.423  15.186   6.132  0.1267 -0.5144 -0.2086
  970YOPC   D2A13992   5.247  15.202   6.549  0.2517 -0.2089  0.0415
  970YOPC   C3A13993   5.397  14.834   6.759  0.1781 -0.0295 -0.2474
  970YOPC   C4A13994   5.142  14.375   6.620 -0.1508 -0.1589 -0.1250
  970YOPC   C1B13995   4.835  15.035   6.336 -0.1323  0.6125 -0.1556
  970YOPC   C2B13996   4.893  14.832   6.691 -0.0921  0.2525  0.1269
  970YOPC   D3B13997   5.045  15.140   7.053  0.0317  0.1087 -0.0311
  970YOPC   C4B13998   5.304  15.238   7.303 -0.0194 -0.0432 -0.0781
  971YOPC   NC313999   2.390   5.606   5.566 -0.0284 -0.0853  0.1075
  971YOPC   PO414000   2.429   6.050   5.563 -0.0194 -0.1998  0.2342
  971YOPC   GL114001   2.336   5.998   5.993 -0.4390  0.1536 -0.0661
  971YOPC   GL214002   2.154   6.245   6.045  0.1073  0.0534  0.2265
  971YOPC   C1A14003   2.423   5.823   6.415  0.2316 -0.0883  0.0002
  971YOPC   D2A14004   2.720   6.044   6.682 -0.2749  0.1988  0.0859
  971YOPC   C3A14005   2.751   6.201   7.128 -0.0155  0.1308  0.2994
  971YOPC   C4A14006   2.925   5.945   7.481 -0.1299  0.2102  0.3041
  971YOPC   C1B14007   1.954   6.086   6.441  0.4179  0.0401 -0.2287
  971YOPC   C2B14008   1.630   5.938   6.782 -0.1856  0.2780 -0.3435
  971YOPC   D3B14009   1.804   5.646   7.204 -0.0364  0.4194  0.1879
  971YOPC   C4B14010   1.923   5.675   7.584 -0.1876 -0.5381 -0.0371
  972YOPC   NC314011  16.694   8.268   6.235  0.2063  0.0376  0.2532
  972YOPC   PO414012  16.622   7.931   6.045  0.3085  0.1940 -0.0540
  972YOPC   GL114013  16.632   7.918   6.524  0.1845  0.2896 -0.0310
  972YOPC   GL214014  16.665   8.152   6.743 -0.2899  0.0745  0.3048
  972YOPC   C1A14015  16.723   7.711   6.857  0.2487  0.2050 -0.1932
  972YOPC   D2A14016  16.701   7.662   7.249  0.2827  0.0310 -0.0773
  972YOPC   C3A14017  16.563   7.265   7.547 -0.0773 -0.1235  0.0647
  972YOPC   C4A14018  16.628   6.969   7.846 -0.0086  0.0160  0.3658
  972YOPC   C1B14019  16.887   8.311   7.162  0.0372 -0.0422  0.0382
  972YOPC   C2B14020  17.262   8.613   7.244  0.0469 -0.0451  0.0413
  972YOPC   D3B14021  17.733   8.541   7.133  0.1001  0.0140  0.1064
  972YOPC   C4B14022  18.126   8.330   7.041 -0.1987 -0.2662 -0.2478
  973YOPC   NC314023  18.552  18.651   5.819 -0.2133  0.1071 -0.2866
  973YOPC   PO414024  18.773  18.342   5.723  0.2019  0.1975 -0.1686
  973YOPC   GL114025  18.858  18.591   6.230  0.0349  0.0426 -0.0199
  973YOPC   GL214026  18.645  18.427   6.352  0.0838  0.3198  0.4096
  973YOPC   C1A14027  19.083  18.693   6.632 -0.1160  0.0237  0.0194
  973YOPC   D2A14028  19.260  18.820   7.163  0.4386  0.3094  0.0584
  973YOPC   C3A14029  19.296  19.217   7.493  0.0564  0.4255 -0.0380
  973YOPC   C4A14030  19.262  19.604   7.775 -0.0705 -0.2314  0.0030
  973YOPC   C1B14031  18.471  18.649   6.623 -0.2990  0.0751  0.0823
  973YOPC   C2B14032  18.354  18.906   6.927  0.0175 -0.0734 -0.0025
  973YOPC   D3B14033  18.345  19.337   6.934 -0.2539  0.1275  0.4037
  973YOPC   C4B14034  18.085  19.641   6.712 -0.2004  0.1020  0.1177
  974YOPC   NC314035  16.313  11.582   6.205 -0.0921  0.1155  0.1058
  974YOPC   PO414036  15.977  11.500   6.128 -0.1442 -0.1256 -0.1434
  974YOPC   GL114037  15.994  11.734   6.531  0.0794 -0.2386 -0.0138
  974YOPC   GL214038  16.292  11.726   6.688 -0.0372 -0.1346  0.0403
  974YOPC   C1A14039  15.829  11.532   6.984  0.0844  0.0784  0.1637
  974YOPC   D2A14040  15.461  11.175   7.168 -0.0248 -0.2424  0.2238
  974YOPC   C3A14041  15.328  11.123   7.489  0.0460 -0.4544  0.1828
  974YOPC   C4A14042  15.306  11.155   7.908 -0.0462  0.1314  0.1003
  974YOPC   C1B14043  16.251  11.752   7.236  0.1193  0.1766  0.0033
  974YOPC   C2B14044  16.058  11.564   7.472  0.1580 -0.0922 -0.1461
  974YOPC   D3B14045  15.869  11.297   7.467 -0.2354 -0.2056 -0.0191
  974YOPC   C4B14046  15.791  10.984   7.758  0.1128  0.1058 -0.0480
  975YOPC   NC314047  11.816  18.717   5.713 -0.1784 -0.0172  0.1287
  975YOPC   PO414048  11.404  18.435   5.684  0.0433 -0.1391 -0.0135
  975YOPC   GL114049  11.351  18.733   5.930 -0.4700 -0.0111  0.2832
  975YOPC   GL214050  11.593  18.647   6.186  0.1783  0.0239 -0.0432
  975YOPC   C1A14051  11.096  18.703   6.337 -0.2468 -0.0207 -0.3706
  975YOPC   D2A14052  10.998  18.538   6.781 -0.3289  0.1602 -0.2266
  975YOPC   C3A14053  10.917  18.677   7.095 -0.0130 -0.2391  0.0942
  975YOPC   C4A14054  10.784  19.015   7.359  0.0260  0.1578  0.3227
  975YOPC   C1B14055  11.532  18.709   6.594 -0.0479 -0.0924  0.0343
  975YOPC   C2B14056  11.399  18.797   6.964 -0.3653 -0.1001 -0.4506
  975YOPC   D3B14057  11.745  18.978   7.169 -0.0563  0.1675 -0.0271
  975YOPC   C4B14058  11.898  18.729   7.555  0.0153  0.4242 -0.1147
  976YOPC   NC314059   3.945   6.282   5.127  0.1282 -0.0237  0.0922
  976YOPC   PO414060   4.256   5.953   5.250  0.1957 -0.3079 -0.3836
  976YOPC   GL114061   4.296   5.744   5.631 -0.2523 -0.0579  0.0552
  976YOPC   GL214062   4.476   5.782   5.823 -0.2314 -0.1710  0.0349
  976YOPC   C1A14063   3.991   5.769   6.017  0.1232  0.0177 -0.0229
  976YOPC   D2A14064   3.901   5.543   6.329  0.0045  0.1257  0.4716
  976YOPC   C3A14065   4.171   5.388   6.705 -0.1437  0.0507 -0.0558
  976YOPC   C4A14066   4.472   5.191   6.599 -0.0539 -0.0241  0.0291
  976YOPC   C1B14067   4.598   6.045   6.113 -0.1000 -0.0052 -0.0942
  976YOPC   C2B14068   4.704   6.237   6.387 -0.1976 -0.1726 -0.1351
  976YOPC   D3B14069   4.601   6.061   6.751 -0.4509  0.0568  0.0631
  976YOPC   C4B14070   4.444   5.679   7.004 -0.0989 -0.0605  0.0275
  977YOPC   NC314071  10.474   0.349   5.073 -0.0178 -0.0830  0.1394
  977YOPC   PO414072  10.091   0.395   5.264  0.0230 -0.1242 -0.3548
  977YOPC   GL114073   9.979   0.498   5.707 -0.5543  0.0206  0.1280
  977YOPC   GL214074   9.660   0.279   5.615  0.0235  0.2229 -0.0553
  977YOPC   C1A14075  10.045   0.649   6.134  0.0598  0.0980  0.1350
  977YOPC   D2A14076  10.013   0.601   6.562  0.2052  0.0055 -0.2364
  977YOPC   C3A14077  10.354   0.700   6.885 -0.2277  0.1460 -0.2869
  977YOPC   C4A14078  10.708   0.588   6.959  0.4970 -0.1188 -0.3135
  977YOPC   C1B14079   9.639  -0.028   5.917 -0.0472 -0.1876 -0.3484
  977YOPC   C2B14080   9.877  -0.337   6.114 -0.3281 -0.2581 -0.2392
  977YOPC   D3B14081   9.831  -0.362   6.489 -0.1682 -0.3257 -0.0393
  977YOPC   C4B14082   9.657  -0.326   6.874 -0.2648  0.0227 -0.2442
  978YOPC   NC314083   2.174  13.546   5.583 -0.0402  0.1297  0.1709
  978YOPC   PO414084   2.542  13.302   5.710  0.3094  0.0455  0.0920
  978YOPC   GL114085   2.711  13.075   6.043  0.1444 -0.3586 -0.2093
  978YOPC   GL214086   2.501  13.076   6.314 -0.1273 -0.3169  0.0402
  978YOPC   C1A14087   3.042  12.925   6.160 -0.2652  0.1037  0.0663
  978YOPC   D2A14088   3.476  13.017   6.345  0.2689  0.2401 -0.1251
  978YOPC   C3A14089   3.601  13.148   6.816 -0.0590 -0.2932 -0.1664
  978YOPC   C4A14090   3.395  13.263   7.192 -0.0140 -0.0260  0.2500
  978YOPC   C1B14091   2.395  13.258   6.732 -0.0398  0.1560  0.0668
  978YOPC   C2B14092   2.254  13.367   6.974  0.2775 -0.2580 -0.0389
  978YOPC   D3B14093   2.268  13.178   7.435  0.0111  0.3087  0.1847
  978YOPC   C4B14094   2.090  12.889   7.589 -0.0544  0.1297  0.2850
  979YOPC   NC314095   4.513   4.996   5.195  0.0378  0.4128  0.2983
  979YOPC   PO414096   4.873   4.778   4.873 -0.2109  0.0282 -0.1510
  979YOPC   GL114097   4.884   4.814   5.481  0.3234 -0.0658 -0.2206
  979YOPC   GL214098   5.205   4.843   5.653  0.1521 -0.1290  0.0162
  979YOPC   C1A14099   4.726   4.847   5.862  0.1120 -0.0565 -0.1823
  979YOPC   D2A14100   4.561   4.889   6.212 -0.1435 -0.1966 -0.2518
  979YOPC   C3A14101   4.333   5.357   6.121 -0.1566 -0.0117 -0.2899
  979YOPC   C4A14102   4.324   5.760   6.364  0.0002 -0.3244  0.0004
  979YOPC   C1B14103   5.141   4.961   6.102  0.1846  0.0708 -0.1747
  979YOPC   C2B14104   4.944   4.932   6.549  0.0637 -0.0981  0.0012
  979YOPC   D3B14105   5.208   4.865   6.920  0.0772 -0.4374 -0.1957
  979YOPC   C4B14106   5.460   4.628   7.332  0.0233  0.1917  0.0020
  980YOPC   NC314107   0.941   4.019   5.415  0.0962 -0.4019  0.0198
  980YOPC   PO414108   0.785   4.314   5.310 -0.1408 -0.1497  0.2291
  980YOPC   GL114109   0.628   4.393   5.714  0.0751  0.3046 -0.2469
  980YOPC   GL214110   0.441   4.569   5.678  0.3995 -0.0623 -0.3804
  980YOPC   C1A14111   0.644   4.245   6.113 -0.0095  0.0573  0.2082
  980YOPC   D2A14112   0.966   4.112   6.443  0.0122  0.1628  0.3372
  980YOPC   C3A14113   0.874   4.286   6.764 -0.0268  0.0147 -0.1793
  980YOPC   C4A14114   0.413   4.263   6.679 -0.0777  0.2835 -0.3755
  980YOPC   C1B14115   0.452   4.739   6.120 -0.0438  0.1693 -0.1184
  980YOPC   C2B14116   0.697   4.680   6.530  0.1741  0.2487 -0.0727
  980YOPC   D3B14117   0.841   4.855   6.957  0.0985 -0.0516  0.3757
  980YOPC   C4B14118   0.989   5.076   7.451 -0.0047  0.0351  0.2256
  981YOPC   NC314119   1.653   7.837   5.549 -0.0754 -0.0805  0.1777
  981YOPC   PO414120   1.474   7.493   5.476  0.1732  0.0255 -0.2862
  981YOPC   GL114121   1.467   7.259   5.859  0.0719  0.0035  0.1045
  981YOPC   GL214122   1.697   7.520   5.936 -0.1111 -0.1126  0.2212
  981YOPC   C1A14123   1.619   7.075   6.178  0.3978  0.0822 -0.0608
  981YOPC   D2A14124   1.638   7.151   6.606  0.3713  0.2025 -0.1557
  981YOPC   C3A14125   1.246   7.029   6.987 -0.0702 -0.0287 -0.1275
  981YOPC   C4A14126   1.151   7.035   7.527 -0.2300  0.1736  0.0641
  981YOPC   C1B14127   1.949   7.496   6.307  0.0356  0.2063  0.0067
  981YOPC   C2B14128   1.835   7.588   6.794 -0.0515 -0.1217 -0.1409
  981YOPC   D3B14129   1.521   7.447   7.001  0.3051  0.1844 -0.2437
  981YOPC   C4B14130   1.055   7.436   7.237 -0.1585 -0.0020  0.0655
  982YOPC   NC314131   7.471   2.475   5.285 -0.0366 -0.0761  0.0929
  982YOPC   PO414132   7.348   2.956   5.413 -0.2471  0.1271 -0.0417
  982YOPC   GL114133   7.188   2.834   5.699 -0.3126 -0.1206  0.1042
  982YOPC   GL214134   7.231   2.472   5.757  0.1274  0.1508 -0.2996
  982YOPC   C1A14135   7.115   2.938   6.174  0.2941  0.1110  0.2798
  982YOPC   D2A14136   6.788   2.849   6.376  0.0435 -0.3572 -0.2832
  982YOPC   C3A14137   6.450   3.201   6.482 -0.0168  0.0947  0.0549
  982YOPC   C4A14138   6.049   3.346   6.475  0.0220  0.0532  0.1456
  982YOPC   C1B14139   7.116   2.457   6.162 -0.2344  0.0882  0.1590
  982YOPC   C2B14140   7.036   2.432   6.637  0.0190 -0.2943 -0.2686
  982YOPC   D3B14141   6.675   2.343   6.840 -0.2247 -0.3983 -0.0708
  982YOPC   C4B14142   6.313   2.018   7.039 -0.2365  0.2304  0.1459
  983YOPC   NC314143   7.621  13.746   5.143  0.3250 -0.2347  0.0332
  983YOPC   PO414144   7.945  13.495   5.289  0.0623 -0.4016 -0.3969
  983YOPC   GL114145   8.074  13.708   5.631  0.1929 -0.0983 -0.0492
  983YOPC   GL214146   8.393  13.799   5.632 -0.0710  0.1622 -0.1311
  983YOPC   C1A14147   8.017  13.631   6.056  0.1204 -0.0269 -0.2317
  983YOPC   D2A14148   8.089  13.544   6.370  0.0661 -0.1945  0.2794
  983YOPC   C3A14149   8.523  13.390   6.455  0.1112  0.0149 -0.0219
  983YOPC   C4A14150   8.743  13.409   6.625 -0.1219  0.1181 -0.1823
  983YOPC   C1B14151   8.509  13.570   5.995  0.2581 -0.3191  0.1560
  983YOPC   C2B14152   8.264  13.144   6.138  0.2960  0.0372 -0.0920
  983YOPC   D3B14153   8.000  12.836   6.012  0.1063 -0.3391  0.0287
  983YOPC   C4B14154   7.515  12.867   6.165  0.1083  0.1513  0.1591
  984YOPC   NC314155  12.024   1.599   5.364 -0.0660 -0.2915  0.5103
  984YOPC   PO414156  12.128   1.709   5.755  0.1602  0.0159 -0.2766
  984YOPC   GL114157  11.845   1.743   6.083  0.2433  0.1079 -0.0011
  984YOPC   GL214158  12.016   2.033   6.124  0.1526 -0.2547  0.3173
  984YOPC   C1A14159  11.658   1.825   6.412 -0.1316  0.0561  0.0948
  984YOPC   D2A14160  11.730   2.084   6.774 -0.1279 -0.3849 -0.3860
  984YOPC   C3A14161  11.419   2.199   6.957  0.3574 -0.0582  0.0696
  984YOPC   C4A14162  11.110   2.294   7.210  0.0347  0.0764 -0.1713
  984YOPC   C1B14163  12.149   2.166   6.553  0.1517 -0.2206  0.0200
  984YOPC   C2B14164  12.411   2.201   6.863  0.0642 -0.0810 -0.4171
  984YOPC   D3B14165  12.436   1.904   7.132  0.0645 -0.0136 -0.0072
  984YOPC   C4B14166  12.237   1.897   7.593  0.0662  0.5938  0.3066
  985YOPC   NC314167  13.373   6.095   6.029  0.3734  0.3488 -0.2350
  985YOPC   PO414168  13.808   6.318   6.043 -0.3083 -0.0517  0.0914
  985YOPC   GL114169  13.624   6.190   6.426 -0.2362  0.0723  0.0480
  985YOPC   GL214170  13.410   6.431   6.410 -0.1852  0.0306  0.2055
  985YOPC   C1A14171  13.757   6.002   6.834 -0.1282 -0.2107 -0.1561
  985YOPC   D2A14172  13.680   5.886   7.241 -0.1339  0.1553  0.0180
  985YOPC   C3A14173  13.779   6.135   7.612 -0.1328  0.1481  0.1989
  985YOPC   C4A14174  13.955   5.880   7.969 -0.3343  0.1391 -0.1730
  985YOPC   C1B14175  13.525   6.718   6.700  0.0096  0.3344 -0.0192
  985YOPC   C2B14176  13.488   6.884   7.097 -0.0652 -0.0223 -0.0234
  985YOPC   D3B14177  13.842   7.175   7.213  0.0897  0.0088 -0.2311
  985YOPC   C4B14178  13.753   7.681   7.204  0.1900 -0.0595  0.2541
  986YOPC   NC314179  16.309  17.643   5.975  0.0335 -0.0501  0.2436
  986YOPC   PO414180  16.508  18.087   5.945  0.0085  0.1612  0.3112
  986YOPC   GL114181  16.650  18.413   6.230  0.2237  0.2525 -0.1495
  986YOPC   GL214182  16.842  18.121   6.351  0.2763 -0.1211  0.1736
  986YOPC   C1A14183  16.889  18.581   6.603 -0.0800 -0.2370  0.1956
  986YOPC   D2A14184  16.965  18.846   6.948 -0.0284  0.0796 -0.1106
  986YOPC   C3A14185  17.215  18.664   7.354  0.2363  0.1849 -0.2187
  986YOPC   C4A14186  17.367  18.388   7.698  0.2979 -0.0821  0.1858
  986YOPC   C1B14187  16.945  18.128   6.777 -0.1050  0.2977 -0.0636
  986YOPC   C2B14188  17.031  17.766   7.107  0.0144 -0.0077 -0.0182
  986YOPC   D3B14189  16.819  17.640   7.397  0.0581  0.1052  0.0085
  986YOPC   C4B14190  16.847  17.797   7.747  0.3760  0.0430 -0.1009
  987YOPC   NC314191  13.572   8.866   6.132 -0.2696  0.1858  0.0097
  987YOPC   PO414192  13.305   8.484   5.927  0.0792 -0.0435 -0.3216
  987YOPC   GL114193  13.239   8.400   6.400  0.0650 -0.0924 -0.0524
  987YOPC   GL214194  13.443   8.128   6.458 -0.1136  0.1500 -0.4558
  987YOPC   C1A14195  13.049   8.227   6.763 -0.0182 -0.1391  0.1006
  987YOPC   D2A14196  12.781   8.214   7.143 -0.2126 -0.1216  0.1263
  987YOPC   C3A14197  12.792   7.921   7.528 -0.2279  0.1066 -0.4372
  987YOPC   C4A14198  12.810   7.959   7.918  0.0066 -0.2945  0.1233
  987YOPC   C1B14199  13.656   8.465   6.695  0.2625 -0.2253  0.1939
  987YOPC   C2B14200  13.779   8.436   7.056  0.1143  0.0076  0.1410
  987YOPC   D3B14201  13.952   8.082   7.019 -0.0144  0.1533 -0.2307
  987YOPC   C4B14202  14.340   7.930   6.849  0.0594  0.1860  0.1495
  988YOPC   NC314203   0.321   1.148   5.966  0.1594 -0.0049  0.0510
  988YOPC   PO414204   0.573   0.826   5.710  0.3058  0.2111 -0.0192
  988YOPC   GL114205   0.876   0.804   6.163 -0.0506 -0.1143  0.1763
  988YOPC   GL214206   0.877   0.520   6.302 -0.1844  0.2460  0.0626
  988YOPC   C1A14207   0.729   0.939   6.587 -0.2961  0.0364  0.0916
  988YOPC   D2A14208   0.797   1.108   7.009 -0.1059 -0.1481 -0.0395
  988YOPC   C3A14209   0.835   0.824   7.330  0.3486  0.0237  0.0130
  988YOPC   C4A14210   0.958   0.423   7.303 -0.2700 -0.0850 -0.2232
  988YOPC   C1B14211   1.013   0.504   6.736 -0.1600 -0.1072 -0.0413
  988YOPC   C2B14212   1.376   0.347   7.008  0.3650  0.1644 -0.0734
  988YOPC   D3B14213   1.397   0.244   7.381 -0.2604 -0.0999 -0.3176
  988YOPC   C4B14214   1.351   0.564   7.655 -0.0744 -0.0850 -0.0429
  989YOPC   NC314215  15.369  12.775   6.331 -0.3558 -0.1313  0.0339
  989YOPC   PO414216  15.127  12.467   6.363 -0.0255  0.1164  0.0716
  989YOPC   GL114217  14.878  12.435   6.817  0.0484 -0.1839 -0.1709
  989YOPC   GL214218  14.930  12.183   6.857 -0.0621  0.1529  0.2203
  989YOPC   C1A14219  14.767  12.467   7.198  0.0408 -0.2604  0.3008
  989YOPC   D2A14220  14.749  12.584   7.690  0.1345  0.1024  0.1290
  989YOPC   C3A14221  14.504  12.511   7.878  0.3650 -0.2143  0.1304
  989YOPC   C4A14222  14.215  12.463   8.186  0.2427  0.1179 -0.3362
  989YOPC   C1B14223  14.548  11.928   7.091  0.1900 -0.0065 -0.1280
  989YOPC   C2B14224  14.124  11.764   7.278 -0.3769 -0.1583 -0.4029
  989YOPC   D3B14225  13.818  11.971   7.076  0.2657 -0.0723  0.1773
  989YOPC   C4B14226  13.593  12.189   6.692  0.2093 -0.0465  0.1736
  990YOPC   NC314227   2.631   6.640   5.369 -0.4249  0.0442  0.0099
  990YOPC   PO414228   3.105   6.731   5.371  0.0855  0.4345 -0.0437
  990YOPC   GL114229   2.966   6.595   5.794 -0.2933  0.2741 -0.0743
  990YOPC   GL214230   2.767   6.292   6.006 -0.1419 -0.1123  0.1346
  990YOPC   C1A14231   2.966   6.641   6.336 -0.2533 -0.1366 -0.3421
  990YOPC   D2A14232   2.757   6.546   6.707  0.1384 -0.0689  0.0425
  990YOPC   C3A14233   2.433   6.777   6.867  0.3132  0.1125  0.0161
  990YOPC   C4A14234   2.260   6.995   7.292  0.1889 -0.3270  0.3910
  990YOPC   C1B14235   2.969   5.956   6.221  0.0252 -0.1496  0.0468
  990YOPC   C2B14236   3.238   6.144   6.513 -0.2465  0.0168 -0.1945
  990YOPC   D3B14237   3.149   6.411   6.904 -0.3432 -0.2077 -0.3371
  990YOPC   C4B14238   2.824   6.696   7.191 -0.0438  0.2011  0.0311
  991YOPC   NC314239  17.847   8.437   5.873 -0.2134 -0.1968  0.1467
  991YOPC   PO414240  17.517   8.275   5.688  0.2307  0.2570  0.0403
  991YOPC   GL114241  17.424   8.317   6.098  0.0677 -0.0644  0.0300
  991YOPC   GL214242  17.257   8.626   6.102  0.2133 -0.0472 -0.0627
  991YOPC   C1A14243  17.638   8.297   6.565  0.0280 -0.2704 -0.0300
  991YOPC   D2A14244  17.604   8.067   6.953 -0.0351  0.1469  0.2029
  991YOPC   C3A14245  17.442   8.129   7.330  0.0008  0.0611  0.1164
  991YOPC   C4A14246  17.212   8.218   7.658  0.1846 -0.0257 -0.1493
  991YOPC   C1B14247  17.620   8.801   6.415 -0.0967  0.1768  0.0615
  991YOPC   C2B14248  17.871   8.860   6.726  0.0667 -0.0933 -0.1723
  991YOPC   D3B14249  17.781   9.221   6.738 -0.2373 -0.1796  0.1606
  991YOPC   C4B14250  17.674   9.545   6.992 -0.0174  0.2308 -0.1103
  992YOPC   NC314251   9.640   2.629   5.605 -0.3773 -0.1286  0.2130
  992YOPC   PO414252  10.039   2.317   5.526 -0.0480  0.1166  0.1292
  992YOPC   GL114253   9.915   2.611   6.002  0.2658 -0.1644  0.2863
  992YOPC   GL214254   9.664   2.417   6.108 -0.1773 -0.2780  0.0409
  992YOPC   C1A14255  10.121   2.964   6.175  0.4204 -0.1967  0.0433
  992YOPC   D2A14256  10.186   3.142   6.510  0.0772  0.3520  0.2202
  992YOPC   C3A14257   9.853   3.067   6.782  0.2235 -0.0439  0.0010
  992YOPC   C4A14258   9.471   3.297   6.849  0.0124 -0.3070 -0.1020
  992YOPC   C1B14259   9.786   2.506   6.471 -0.3910 -0.0933  0.1736
  992YOPC   C2B14260   9.846   2.396   6.866  0.1320  0.1624 -0.2737
  992YOPC   D3B14261   9.566   2.414   7.166 -0.0642 -0.3035 -0.0649
  992YOPC   C4B14262   9.070   2.552   7.069  0.0357 -0.1183 -0.3950
  993YOPC   NC314263   0.851   2.122   5.169 -0.1816 -0.0155 -0.0597
  993YOPC   PO414264   1.157   2.035   5.484 -0.2308  0.1911 -0.0465
  993YOPC   GL114265   1.289   1.915   5.888  0.0098  0.0861 -0.0577
  993YOPC   GL214266   1.410   2.293   6.124 -0.0286 -0.0707  0.3215
  993YOPC   C1A14267   1.196   1.891   6.345 -0.1904 -0.6026  0.2492
  993YOPC   D2A14268   1.425   1.899   6.643 -0.1388  0.0434 -0.0688
  993YOPC   C3A14269   1.268   1.575   7.015 -0.2417 -0.2102 -0.3417
  993YOPC   C4A14270   1.194   1.272   7.301 -0.2170  0.1026  0.1689
  993YOPC   C1B14271   1.692   2.406   6.464 -0.2401  0.0747  0.0987
  993YOPC   C2B14272   1.790   2.430   6.848  0.1172  0.1086  0.0586
  993YOPC   D3B14273   2.128   2.208   7.072  0.1166 -0.0962  0.0025
  993YOPC   C4B14274   2.081   1.902   7.378 -0.3289 -0.1513  0.1693
  994YOPC   NC314275  13.191   7.906   6.132 -0.0293 -0.0018 -0.1573
  994YOPC   PO414276  13.582   7.666   6.171 -0.1529  0.0888 -0.0384
  994YOPC   GL114277  13.552   7.565   6.516 -0.3582 -0.0539 -0.0877
  994YOPC   GL214278  13.820   7.807   6.644  0.0350  0.1631  0.0231
  994YOPC   C1A14279  13.456   7.422   6.900  0.0266  0.0256 -0.0728
  994YOPC   D2A14280  13.281   7.309   7.325 -0.3833  0.0130  0.1064
  994YOPC   C3A14281  13.523   7.154   7.630 -0.2101 -0.3745 -0.0891
  994YOPC   C4A14282  13.544   7.382   8.116 -0.4377 -0.3773  0.2802
  994YOPC   C1B14283  13.441   7.891   6.871  0.0564 -0.2269 -0.1012
  994YOPC   C2B14284  13.205   7.839   7.179 -0.0394  0.2672 -0.1828
  994YOPC   D3B14285  13.243   7.706   7.625  0.0541 -0.1961 -0.1647
  994YOPC   C4B14286  13.063   7.485   7.934  0.0494  0.2424  0.1872
  995YOPC   NC314287   7.215   7.784   5.956 -0.0644  0.2855 -0.4571
  995YOPC   PO414288   7.387   8.179   5.968 -0.0458 -0.1416  0.1657
  995YOPC   GL114289   7.339   7.999   6.410 -0.2857 -0.0585  0.2462
  995YOPC   GL214290   7.494   7.731   6.361 -0.0315  0.1157 -0.0472
  995YOPC   C1A14291   7.319   7.821   6.807 -0.0338 -0.0813 -0.0030
  995YOPC   D2A14292   7.517   7.541   7.068 -0.1930 -0.1536 -0.3960
  995YOPC   C3A14293   7.532   7.547   7.521  0.0102 -0.0489 -0.0498
  995YOPC   C4A14294   7.777   7.754   7.830 -0.0779  0.1585  0.1394
  995YOPC   C1B14295   7.801   7.719   6.639 -0.0857 -0.2225 -0.0795
  995YOPC   C2B14296   7.976   7.617   7.104  0.0303  0.3821 -0.3023
  995YOPC   D3B14297   8.160   7.911   7.369  0.2964 -0.5946  0.1848
  995YOPC   C4B14298   8.471   8.079   7.694 -0.2851 -0.4768 -0.2764
  996YOPC   NC314299   1.620   2.208   5.618  0.2837 -0.0032  0.0485
  996YOPC   PO414300   1.609   2.624   5.539 -0.0429 -0.1464  0.0782
  996YOPC   GL114301   1.728   2.730   5.984 -0.0488  0.0142 -0.4483
  996YOPC   GL214302   1.343   2.871   5.987 -0.0809  0.1959 -0.0167
  996YOPC   C1A14303   1.829   2.911   6.435 -0.5411 -0.1853 -0.0919
  996YOPC   D2A14304   1.866   2.969   6.889 -0.0054  0.4227  0.0843
  996YOPC   C3A14305   2.033   2.700   7.187 -0.1453 -0.0619 -0.0430
  996YOPC   C4A14306   1.850   2.304   7.452  0.0873 -0.1480  0.1394
  996YOPC   C1B14307   1.385   2.860   6.371 -0.0920 -0.1793  0.0463
  996YOPC   C2B14308   1.326   2.883   6.799  0.0845  0.0056 -0.0061
  996YOPC   D3B14309   1.561   2.761   7.226 -0.0478  0.2687 -0.4464
  996YOPC   C4B14310   1.884   2.790   7.644 -0.1393  0.3228 -0.1615
  997YOPC   NC314311  12.661   1.015   4.988 -0.2829  0.0679  0.4608
  997YOPC   PO414312  12.600   1.208   5.374 -0.3928  0.1129  0.0400
  997YOPC   GL114313  12.211   1.155   5.762 -0.0534 -0.2380 -0.0157
  997YOPC   GL214314  12.125   0.869   5.785 -0.0596 -0.3545 -0.0812
  997YOPC   C1A14315  11.764   1.224   5.971 -0.3861  0.1077  0.0020
  997YOPC   D2A14316  11.488   1.444   6.206  0.1309 -0.1382  0.3639
  997YOPC   C3A14317  11.050   1.369   6.261 -0.0309 -0.3039  0.3646
  997YOPC   C4A14318  10.528   1.310   6.111 -0.1062  0.0341  0.1638
  997YOPC   C1B14319  12.228   1.022   6.221  0.2699  0.2181 -0.0466
  997YOPC   C2B14320  12.384   1.151   6.504 -0.0712  0.1325  0.0549
  997YOPC   D3B14321  12.493   0.907   6.809 -0.1244 -0.0436  0.1812
  997YOPC   C4B14322  12.527   0.564   7.056 -0.0919  0.1520  0.0475
  998YOPC   NC314323  14.216   2.589   4.990 -0.2032  0.2484 -0.1506
  998YOPC   PO414324  14.085   2.214   5.289 -0.3744 -0.3026 -0.1783
  998YOPC   GL114325  14.251   2.329   5.812  0.3008 -0.1295 -0.0599
  998YOPC   GL214326  14.615   2.284   5.830 -0.3441 -0.1509 -0.3975
  998YOPC   C1A14327  14.306   2.623   6.168  0.1023  0.4817 -0.0386
  998YOPC   D2A14328  14.179   2.781   6.463 -0.0276  0.1898  0.0580
  998YOPC   C3A14329  14.192   2.582   6.891  0.1886 -0.0081 -0.0067
  998YOPC   C4A14330  14.310   2.740   7.243 -0.0097 -0.0256 -0.0103
  998YOPC   C1B14331  14.597   1.895   5.844  0.0280 -0.1492 -0.0090
  998YOPC   C2B14332  14.857   1.622   6.058 -0.0775  0.0162 -0.0853
  998YOPC   D3B14333  14.836   1.559   6.503  0.1825  0.0350 -0.0585
  998YOPC   C4B14334  14.520   1.594   6.769  0.0176  0.1971  0.0678
  999YOPC   NC314335   2.260  11.364   5.315  0.1616  0.0178 -0.1377
  999YOPC   PO414336   2.559  11.659   5.528  0.1794 -0.2378  0.1693
  999YOPC   GL114337   2.557  11.905   5.916 -0.3109  0.3504  0.0027
  999YOPC   GL214338   2.491  12.139   5.844 -0.1531 -0.1838 -0.1108
  999YOPC   C1A14339   2.743  11.939   6.248 -0.0740  0.3593  0.0779
  999YOPC   D2A14340   2.676  12.062   6.597  0.1961 -0.0233 -0.0705
  999YOPC   C3A14341   2.797  11.971   6.972 -0.0337  0.1564  0.0853
  999YOPC   C4A14342   3.106  12.295   7.042  0.0890  0.0053  0.0613
  999YOPC   C1B14343   2.336  12.241   6.237 -0.0344 -0.1223  0.0918
  999YOPC   C2B14344   2.126  12.276   6.705 -0.2357 -0.1125  0.2778
  999YOPC   D3B14345   2.475  12.321   7.028 -0.1002  0.0046  0.2122
  999YOPC   C4B14346   2.666  12.251   7.445  0.0563 -0.0926 -0.0028
 1000YOPC   NC314347   4.555  17.879   5.336  0.0123  0.1275 -0.0420
 1000YOPC   PO414348   4.717  18.351   5.275 -0.2924  0.0990  0.0957
 1000YOPC   GL114349   4.854  18.275   5.638  0.0433  0.1742 -0.1241
 1000YOPC   GL214350   4.759  17.985   5.809  0.2080 -0.0046 -0.1354
 1000YOPC   C1A14351   4.989  18.382   6.030  0.1560 -0.2314 -0.1216
 1000YOPC   D2A14352   4.999  18.435   6.482 -0.1548 -0.1969 -0.1102
 1000YOPC   C3A14353   5.264  18.676   6.577  0.2042  0.0961  0.1553
 1000YOPC   C4A14354   5.413  18.969   6.866 -0.0887 -0.1890  0.0735
 1000YOPC   C1B14355   4.611  18.089   6.160  0.0548  0.2212 -0.1840
 1000YOPC   C2B14356   4.499  18.169   6.571 -0.2248  0.3122 -0.1501
 1000YOPC   D3B14357   4.737  18.286   6.887 -0.1026  0.0894 -0.1399
 1000YOPC   C4B14358   5.015  18.123   7.275 -0.0359  0.1246 -0.3979
 1001YOPC   NC314359   6.788  15.355   5.420 -0.2892  0.2831 -0.1057
 1001YOPC   PO414360   7.175  15.496   5.427 -0.2871 -0.0114 -0.7182
 1001YOPC   GL114361   7.170  15.112   5.759 -0.0737 -0.1656 -0.0404
 1001YOPC   GL214362   7.298  14.990   5.709  0.0272 -0.2653  0.0024
 1001YOPC   C1A14363   7.197  15.206   6.234 -0.0353  0.1915  0.0885
 1001YOPC   D2A14364   7.165  15.291   6.635  0.1065 -0.1077 -0.0242
 1001YOPC   C3A14365   7.411  15.542   6.827  0.0735 -0.1711  0.1003
 1001YOPC   C4A14366   7.658  15.427   7.124  0.4192  0.1936 -0.0723
 1001YOPC   C1B14367   7.710  14.997   6.034 -0.0393  0.1702  0.2287
 1001YOPC   C2B14368   8.001  15.085   6.293  0.1950  0.0699  0.0335
 1001YOPC   D3B14369   7.972  15.196   6.774 -0.0847 -0.2249  0.2116
 1001YOPC   C4B14370   7.908  15.700   6.731  0.0137 -0.1908  0.0421
 1002YOPC   NC314371  16.184  10.025   5.940  0.2061  0.0533 -0.3762
 1002YOPC   PO414372  16.239   9.550   5.799  0.3181 -0.1715  0.0860
 1002YOPC   GL114373  16.360   9.554   6.169  0.1199 -0.1477 -0.0649
 1002YOPC   GL214374  16.521   9.786   6.243  0.1769 -0.0915  0.1360
 1002YOPC   C1A14375  16.385   9.282   6.589  0.0519 -0.1568 -0.3659
 1002YOPC   D2A14376  16.382   8.971   6.826  0.4055  0.0644  0.0498
 1002YOPC   C3A14377  16.122   8.902   6.985 -0.0859 -0.2683  0.0246
 1002YOPC   C4A14378  15.885   9.159   7.248  0.0218 -0.1245  0.1416
 1002YOPC   C1B14379  16.495   9.942   6.616  0.0698 -0.1219 -0.0665
 1002YOPC   C2B14380  16.507  10.158   6.983  0.1117 -0.2649 -0.0748
 1002YOPC   D3B14381  16.394   9.987   7.260 -0.2677  0.2075  0.2344
 1002YOPC   C4B14382  16.294  10.045   7.641 -0.0181 -0.1210  0.0983
 1003YOPC   NC314383  10.826   6.872   5.987 -0.1505  0.1873  0.0371
 1003YOPC   PO414384  10.419   7.184   5.911  0.0602 -0.0263 -0.0736
 1003YOPC   GL114385  10.512   7.048   6.291 -0.2887 -0.1723 -0.2279
 1003YOPC   GL214386  10.772   7.267   6.297 -0.1766 -0.0190  0.0264
 1003YOPC   C1A14387  10.562   6.898   6.666 -0.1634  0.1329  0.0553
 1003YOPC   D2A14388  10.675   6.853   7.047 -0.0498 -0.0174  0.1982
 1003YOPC   C3A14389  10.555   6.634   7.390 -0.2877  0.0530 -0.2672
 1003YOPC   C4A14390  10.846   6.566   7.758  0.0088 -0.1010  0.1721
 1003YOPC   C1B14391  10.843   7.379   6.745  0.1827  0.1569 -0.0418
 1003YOPC   C2B14392  10.769   7.291   7.222 -0.3034  0.3113  0.1705
 1003YOPC   D3B14393  10.774   7.067   7.567  0.1068  0.0322  0.2187
 1003YOPC   C4B14394  10.739   7.244   7.967 -0.2477  0.0824 -0.2247
 1004YOPC   NC314395   3.212  17.132   5.351 -0.0803 -0.5070  0.0128
 1004YOPC   PO414396   2.891  17.016   5.339  0.3357 -0.1157  0.1456
 1004YOPC   GL114397   2.809  17.027   5.692 -0.1093 -0.0175  0.0480
 1004YOPC   GL214398   2.802  16.774   5.884  0.0513  0.0589  0.1220
 1004YOPC   C1A14399   2.718  17.206   6.130 -0.1318  0.1429  0.0053
 1004YOPC   D2A14400   2.555  17.176   6.508 -0.3254  0.0694 -0.1278
 1004YOPC   C3A14401   2.446  17.185   6.992  0.2686 -0.0786 -0.2057
 1004YOPC   C4A14402   2.615  17.551   7.346 -0.0355 -0.4117  0.3498
 1004YOPC   C1B14403   2.698  16.710   6.241 -0.5235  0.0133  0.0164
 1004YOPC   C2B14404   2.880  16.704   6.604 -0.2616 -0.0632 -0.0014
 1004YOPC   D3B14405   2.867  16.892   7.060  0.1039 -0.1325  0.0673
 1004YOPC   C4B14406   3.042  17.197   7.273  0.0143 -0.1560 -0.0372
 1005YOPC   NC314407   7.120   1.033   4.936 -0.2444 -0.0642 -0.0849
 1005YOPC   PO414408   7.423   0.880   5.189  0.0585  0.0450  0.0542
 1005YOPC   GL114409   7.529   0.974   5.735  0.0504  0.1330 -0.0084
 1005YOPC   GL214410   7.445   1.356   5.766 -0.0790 -0.1177  0.5319
 1005YOPC   C1A14411   7.762   0.945   6.164  0.0469 -0.1181  0.2115
 1005YOPC   D2A14412   8.104   0.917   6.374  0.1006  0.2457  0.0203
 1005YOPC   C3A14413   8.007   1.021   6.778  0.0528  0.0060 -0.0951
 1005YOPC   C4A14414   7.732   1.408   6.740  0.1030  0.0534 -0.2127
 1005YOPC   C1B14415   7.634   1.450   6.210 -0.2721  0.0891 -0.2297
 1005YOPC   C2B14416   7.438   1.754   6.572  0.0405  0.2298  0.0665
 1005YOPC   D3B14417   7.340   1.581   7.082  0.1871 -0.0373  0.1607
 1005YOPC   C4B14418   7.442   1.556   7.581 -0.0447 -0.0771 -0.0270
 1006YOPC   NC314419   0.176  16.314   5.442  0.3079  0.1404  0.1180
 1006YOPC   PO414420   0.078  15.793   5.449  0.2360  0.0606 -0.2091
 1006YOPC   GL114421  -0.001  16.020   5.851  0.3702  0.3016 -0.0797
 1006YOPC   GL214422   0.268  16.115   5.957 -0.1692 -0.2110  0.0529
 1006YOPC   C1A14423  -0.068  15.908   6.186 -0.1362  0.2830  0.1819
 1006YOPC   D2A14424  -0.075  15.883   6.650  0.0730  0.1475  0.1453
 1006YOPC   C3A14425   0.192  16.207   6.897  0.0312 -0.1246 -0.2152
 1006YOPC   C4A14426   0.363  16.473   7.335  0.3653 -0.2603 -0.1219
 1006YOPC   C1B14427   0.438  15.905   6.353  0.3689 -0.0298 -0.3034
 1006YOPC   C2B14428   0.653  16.189   6.664  0.1456  0.0067 -0.2070
 1006YOPC   D3B14429   0.927  16.048   7.014  0.2477  0.2344  0.0572
 1006YOPC   C4B14430   1.145  15.862   7.416  0.3714 -0.2217  0.0096
 1007YOPC   NC314431  12.575   6.285   5.862 -0.2871  0.2721  0.0412
 1007YOPC   PO414432  12.939   6.379   5.970  0.2763 -0.0006 -0.4548
 1007YOPC   GL114433  12.925   6.053   6.277  0.1904 -0.1542  0.1553
 1007YOPC   GL214434  12.780   5.766   6.117  0.0770 -0.2535 -0.0775
 1007YOPC   C1A14435  12.986   6.123   6.701 -0.2517  0.0400  0.0303
 1007YOPC   D2A14436  13.308   6.221   6.832 -0.0343 -0.0919 -0.0739
 1007YOPC   C3A14437  13.336   6.424   7.291  0.0364  0.1432 -0.0825
 1007YOPC   C4A14438  13.508   6.646   7.567 -0.0039 -0.3393 -0.1816
 1007YOPC   C1B14439  12.782   5.705   6.596  0.2283  0.1979 -0.0505
 1007YOPC   C2B14440  12.823   5.712   7.100  0.1642  0.1119 -0.0003
 1007YOPC   D3B14441  13.204   5.854   7.306  0.1763  0.1868  0.0836
 1007YOPC   C4B14442  13.471   5.722   7.635 -0.0018 -0.0302 -0.3875
 1008YOPC   NC314443   5.318  13.335   4.601 -0.2546 -0.3975  0.1276
 1008YOPC   PO414444   5.140  13.542   5.101  0.1997  0.0408 -0.0106
 1008YOPC   GL114445   5.189  13.460   5.471 -0.1256  0.2239  0.0530
 1008YOPC   GL214446   5.256  13.794   5.531  0.1066  0.4238  0.3806
 1008YOPC   C1A14447   4.904  13.459   5.887  0.1640  0.2428  0.4985
 1008YOPC   D2A14448   4.993  13.676   6.262  0.2129  0.1645 -0.1706
 1008YOPC   C3A14449   4.874  13.943   6.572  0.3037 -0.0956  0.2125
 1008YOPC   C4A14450   4.595  14.061   6.833 -0.0059  0.2789 -0.2034
 1008YOPC   C1B14451   5.444  13.707   6.102 -0.1898  0.2471  0.1597
 1008YOPC   C2B14452   5.471  13.990   6.490 -0.4507  0.2242  0.2543
 1008YOPC   D3B14453   5.272  13.896   6.858  0.1002 -0.1281 -0.1856
 1008YOPC   C4B14454   5.101  14.090   7.210  0.0894 -0.3296 -0.4261
 1009YOPC   NC314455   6.314   8.882   5.608 -0.2252 -0.0524  0.2515
 1009YOPC   PO414456   6.541   9.013   5.898 -0.0850  0.2740  0.3975
 1009YOPC   GL114457   6.578   9.197   6.230 -0.0981 -0.0902  0.2176
 1009YOPC   GL214458   6.257   9.337   6.233 -0.1188 -0.0299 -0.2660
 1009YOPC   C1A14459   6.738   9.033   6.589  0.1881  0.1662 -0.1182
 1009YOPC   D2A14460   6.875   8.857   6.914 -0.4342 -0.2069 -0.1133
 1009YOPC   C3A14461   6.743   8.508   7.010  0.2947  0.2425  0.0095
 1009YOPC   C4A14462   6.799   8.193   7.178 -0.2088 -0.0468 -0.1278
 1009YOPC   C1B14463   6.194   9.223   6.644  0.0622 -0.0592 -0.2389
 1009YOPC   C2B14464   6.438   9.206   6.943  0.3202  0.1538 -0.1495
 1009YOPC   D3B14465   6.495   8.986   7.374  0.2805 -0.2287 -0.0232
 1009YOPC   C4B14466   6.467   9.005   7.734  0.1061 -0.3202 -0.1055
 1010YOPC   NC314467  15.255   6.586   5.596  0.0493  0.0306 -0.1114
 1010YOPC   PO414468  15.353   6.219   5.858  0.1717 -0.0322  0.0984
 1010YOPC   GL114469  15.172   5.978   6.160  0.1100 -0.1912  0.2863
 1010YOPC   GL214470  15.216   5.712   6.195 -0.0545  0.1918  0.0000
 1010YOPC   C1A14471  15.209   5.918   6.644  0.0754 -0.0798 -0.0662
 1010YOPC   D2A14472  15.465   5.717   7.022  0.0207  0.1893 -0.3525
 1010YOPC   C3A14473  15.375   5.891   7.389 -0.0082  0.2457  0.0452
 1010YOPC   C4A14474  15.368   6.329   7.523  0.1009 -0.0283  0.0793
 1010YOPC   C1B14475  15.573   5.642   6.454  0.1143 -0.0023  0.0754
 1010YOPC   C2B14476  16.059   5.542   6.653 -0.1328 -0.0254 -0.2405
 1010YOPC   D3B14477  16.479   5.428   6.764  0.1935 -0.0536  0.2310
 1010YOPC   C4B14478  16.871   5.361   6.905 -0.0091 -0.1056 -0.1613
 1011YOPC   NC314479   0.926  10.101   5.589 -0.1005  0.1942  0.5139
 1011YOPC   PO414480   1.082   9.732   5.585 -0.0740  0.0092 -0.0313
 1011YOPC   GL114481   0.940   9.642   5.929  0.1250  0.3072 -0.0548
 1011YOPC   GL214482   0.674   9.784   5.879 -0.0108 -0.2063 -0.1535
 1011YOPC   C1A14483   1.163   9.519   6.395  0.0493  0.2818  0.0970
 1011YOPC   D2A14484   1.444   9.513   6.740  0.1731 -0.0247  0.3904
 1011YOPC   C3A14485   1.455   9.189   6.988 -0.0407 -0.1223  0.1996
 1011YOPC   C4A14486   1.433   8.984   7.327  0.1706  0.0952 -0.0017
 1011YOPC   C1B14487   0.632  10.099   6.234 -0.0209  0.1111  0.0239
 1011YOPC   C2B14488   0.257  10.236   6.420 -0.1197  0.0255 -0.1695
 1011YOPC   D3B14489  -0.232  10.123   6.339 -0.3231  0.2143  0.0099
 1011YOPC   C4B14490  -0.696  10.219   6.216 -0.4344 -0.0512  0.0003
 1012YOPC   NC314491  15.584   2.625   5.501  0.1082 -0.1759 -0.2368
 1012YOPC   PO414492  15.269   2.910   5.740  0.0820 -0.2295  0.1966
 1012YOPC   GL114493  15.553   2.909   5.938 -0.1662  0.4120 -0.1927
 1012YOPC   GL214494  15.739   3.158   5.916  0.0452  0.1899 -0.1480
 1012YOPC   C1A14495  15.793   2.927   6.310 -0.1703 -0.0878 -0.0371
 1012YOPC   D2A14496  15.743   2.867   6.682  0.0080  0.0645  0.0773
 1012YOPC   C3A14497  15.788   2.859   7.058  0.0177  0.0414 -0.2933
 1012YOPC   C4A14498  15.882   2.962   7.494  0.3753  0.1577  0.3950
 1012YOPC   C1B14499  15.684   3.660   6.072 -0.0902  0.0901 -0.0631
 1012YOPC   C2B14500  15.692   4.086   6.005 -0.0370  0.0745 -0.1514
 1012YOPC   D3B14501  15.792   4.391   6.379 -0.0519 -0.1263 -0.4091
 1012YOPC   C4B14502  15.748   4.713   6.714 -0.1298  0.0672  0.0405
 1013YOPC   NC314503   4.306   7.902   5.338 -0.1665  0.2790  0.2811
 1013YOPC   PO414504   4.501   8.275   5.165 -0.1897 -0.1900 -0.1375
 1013YOPC   GL114505   4.426   8.349   5.598  0.0726 -0.1038  0.4493
 1013YOPC   GL214506   4.484   8.635   5.493 -0.0670  0.1084  0.3660
 1013YOPC   C1A14507   4.224   8.549   5.902 -0.2071  0.1579  0.2987
 1013YOPC   D2A14508   3.881   8.647   6.114 -0.1978  0.2470 -0.0127
 1013YOPC   C3A14509   3.692   8.321   6.368 -0.1737  0.0046  0.2446
 1013YOPC   C4A14510   3.328   8.127   6.437 -0.3617  0.0285 -0.1532
 1013YOPC   C1B14511   4.754   8.853   5.653 -0.1827  0.1965  0.1468
 1013YOPC   C2B14512   4.783   9.205   5.997 -0.1088 -0.3564 -0.0931
 1013YOPC   D3B14513   4.596   9.320   6.443 -0.2229 -0.0281  0.4092
 1013YOPC   C4B14514   4.213   9.202   6.783  0.1841  0.0375 -0.0195
 1014YOPC   NC314515  17.334  15.259   5.780  0.1687 -0.1708  0.2175
 1014YOPC   PO414516  17.355  14.917   5.964  0.0600 -0.2416  0.1562
 1014YOPC   GL114517  17.079  14.972   6.277 -0.3052 -0.1728  0.1071
 1014YOPC   GL214518  17.121  14.546   6.332 -0.2514 -0.1423 -0.2589
 1014YOPC   C1A14519  17.127  15.211   6.684  0.0453 -0.0616 -0.1393
 1014YOPC   D2A14520  17.307  15.477   6.973 -0.2440 -0.0636  0.1619
 1014YOPC   C3A14521  17.518  15.287   7.321  0.0799 -0.2111 -0.1666
 1014YOPC   C4A14522  17.877  15.607   7.503 -0.0920 -0.0260 -0.3581
 1014YOPC   C1B14523  16.977  14.750   6.659 -0.2455  0.0848 -0.5612
 1014YOPC   C2B14524  17.087  14.800   7.075  0.1225  0.2429 -0.1364
 1014YOPC   D3B14525  16.702  14.895   7.395 -0.0139  0.0384  0.1476
 1014YOPC   C4B14526  16.609  14.840   7.795 -0.2094  0.1751 -0.3464
 1015YOPC   NC314527  15.070   5.800   5.645 -0.0435 -0.1808  0.1924
 1015YOPC   PO414528  15.084   5.384   5.818  0.4400 -0.0878 -0.0171
 1015YOPC   GL114529  15.028   5.234   6.177 -0.1571  0.0719 -0.0170
 1015YOPC   GL214530  14.886   5.032   6.288 -0.3796  0.1954  0.5021
 1015YOPC   C1A14531  15.190   5.400   6.632 -0.1118  0.1098 -0.1696
 1015YOPC   D2A14532  15.286   5.237   6.967  0.0141 -0.0220 -0.0948
 1015YOPC   C3A14533  15.667   5.335   7.348 -0.1419 -0.0851  0.2319
 1015YOPC   C4A14534  15.882   5.108   7.681 -0.2022 -0.2889  0.1652
 1015YOPC   C1B14535  14.820   5.103   6.725 -0.0640 -0.3998  0.2891
 1015YOPC   C2B14536  14.818   5.040   7.103  0.0736  0.0061  0.0503
 1015YOPC   D3B14537  14.902   4.615   7.308  0.2649  0.0698  0.0650
 1015YOPC   C4B14538  14.753   4.478   7.693 -0.3759 -0.0366 -0.2277
 1016YOPC   NC314539   7.531  16.616   4.931 -0.4146 -0.1950  0.1481
 1016YOPC   PO414540   7.212  16.391   5.109 -0.1735 -0.1862  0.1319
 1016YOPC   GL114541   7.255  16.368   5.580  0.0387 -0.0470  0.0874
 1016YOPC   GL214542   6.922  16.294   5.807 -0.1125  0.1766  0.0568
 1016YOPC   C1A14543   7.408  16.453   5.977 -0.0249 -0.0556  0.1311
 1016YOPC   D2A14544   7.520  16.507   6.400 -0.0169  0.1035 -0.0745
 1016YOPC   C3A14545   7.292  16.648   6.754 -0.1149  0.0073 -0.0876
 1016YOPC   C4A14546   6.991  16.808   6.951  0.1383 -0.1854 -0.0312
 1016YOPC   C1B14547   7.069  16.256   6.308 -0.3056 -0.0807  0.0236
 1016YOPC   C2B14548   6.858  16.457   6.585 -0.0635  0.0016  0.0320
 1016YOPC   D3B14549   6.701  16.411   6.952  0.2406 -0.1207 -0.2456
 1016YOPC   C4B14550   6.349  16.207   6.884 -0.0467 -0.0495  0.0325
 1017YOPC   NC314551  14.937   3.338   5.622  0.2459 -0.5360 -0.1095
 1017YOPC   PO414552  15.362   3.431   5.611  0.3423  0.3088 -0.0747
 1017YOPC   GL114553  15.244   3.384   6.005 -0.3441  0.1416  0.2279
 1017YOPC   GL214554  14.979   3.448   6.094 -0.1629 -0.1295 -0.0071
 1017YOPC   C1A14555  15.483   3.362   6.356 -0.1970  0.0684 -0.1859
 1017YOPC   D2A14556  15.370   3.361   6.748 -0.0554  0.1165 -0.1745
 1017YOPC   C3A14557  15.219   3.003   6.880 -0.1003 -0.1085 -0.2296
 1017YOPC   C4A14558  15.191   2.860   7.237  0.0178 -0.2583  0.2649
 1017YOPC   C1B14559  15.067   3.119   6.390 -0.1391  0.0917  0.1991
 1017YOPC   C2B14560  15.298   2.656   6.422  0.0752 -0.1178  0.1741
 1017YOPC   D3B14561  15.318   2.549   6.869  0.1720  0.1052  0.1566
 1017YOPC   C4B14562  15.425   2.434   7.329 -0.0627  0.1562 -0.2741
 1018YOPC   NC314563  12.250   9.865   5.981 -0.2352  0.3520 -0.0335
 1018YOPC   PO414564  12.287  10.240   5.976  0.2856 -0.0471  0.1991
 1018YOPC   GL114565  12.445  10.256   6.376  0.2922  0.0679  0.1086
 1018YOPC   GL214566  12.245  10.337   6.598  0.3229 -0.1322 -0.3657
 1018YOPC   C1A14567  12.717  10.122   6.681  0.2296 -0.2299  0.2419
 1018YOPC   D2A14568  12.926  10.288   7.058 -0.1761 -0.0370 -0.1764
 1018YOPC   C3A14569  12.822  10.147   7.499 -0.1194 -0.1984  0.0189
 1018YOPC   C4A14570  12.857  10.187   8.015  0.0677  0.0344 -0.0740
 1018YOPC   C1B14571  11.999  10.397   6.935 -0.0215  0.4059  0.0695
 1018YOPC   C2B14572  11.748  10.395   7.290 -0.2640  0.0495 -0.2750
 1018YOPC   D3B14573  11.776  10.913   7.458  0.3104  0.5341  0.1044
 1018YOPC   C4B14574  11.584  11.225   7.659  0.0767  0.1160 -0.0257
 1019YOPC   NC314575   8.374   4.037   5.221 -0.3398  0.0328  0.1005
 1019YOPC   PO414576   8.794   3.905   5.378 -0.1739 -0.1179  0.3620
 1019YOPC   GL114577   8.513   3.864   5.732 -0.1060  0.1084 -0.0002
 1019YOPC   GL214578   8.428   4.183   5.809  0.0724  0.0623  0.0195
 1019YOPC   C1A14579   8.389   3.725   6.034 -0.1129 -0.0957  0.0825
 1019YOPC   D2A14580   8.660   3.450   6.312  0.2712  0.0713  0.0187
 1019YOPC   C3A14581   8.511   3.402   6.796 -0.1825 -0.3365 -0.1326
 1019YOPC   C4A14582   8.317   3.621   7.250 -0.1056 -0.1296  0.2097
 1019YOPC   C1B14583   8.407   4.314   6.271  0.0888  0.1373 -0.0078
 1019YOPC   C2B14584   8.270   4.549   6.667 -0.0200  0.0977 -0.4325
 1019YOPC   D3B14585   8.561   4.640   7.029 -0.1148 -0.0955 -0.5396
 1019YOPC   C4B14586   8.852   4.837   7.281 -0.1308  0.2153  0.2259
 1020YOPC   NC314587   8.633  14.940   5.182  0.0599 -0.0455  0.1188
 1020YOPC   PO414588   8.582  14.650   5.417 -0.0797  0.1474  0.0668
 1020YOPC   GL114589   8.684  14.887   5.784 -0.0861 -0.0925  0.0212
 1020YOPC   GL214590   9.022  15.022   5.931  0.0498 -0.2187 -0.2302
 1020YOPC   C1A14591   8.521  15.000   6.208 -0.1976  0.5502 -0.0136
 1020YOPC   D2A14592   8.363  14.907   6.666  0.0902  0.0430  0.0292
 1020YOPC   C3A14593   8.678  14.777   6.963  0.0542 -0.1057  0.0953
 1020YOPC   C4A14594   8.824  14.529   7.336  0.3162 -0.0967  0.0906
 1020YOPC   C1B14595   9.246  15.059   6.279  0.0565  0.2172  0.0517
 1020YOPC   C2B14596   9.358  14.776   6.611 -0.1377  0.3123  0.2158
 1020YOPC   D3B14597   9.239  14.311   6.533  0.0009 -0.2182 -0.1373
 1020YOPC   C4B14598   9.318  13.963   6.719  0.0693  0.0691 -0.2215
 1021YOPC   NC314599   5.183   9.320   5.426 -0.2096  0.2397  0.0680
 1021YOPC   PO414600   5.362   8.980   5.179  0.1486 -0.0314  0.1917
 1021YOPC   GL114601   5.355   8.625   5.444 -0.0725  0.0478  0.2151
 1021YOPC   GL214602   5.583   8.398   5.480 -0.0486 -0.0326  0.1099
 1021YOPC   C1A14603   5.014   8.406   5.683  0.6863  0.1333  0.0042
 1021YOPC   D2A14604   4.828   8.587   6.066 -0.1015  0.1961  0.1191
 1021YOPC   C3A14605   4.825   8.242   6.489  0.0284 -0.3410  0.0773
 1021YOPC   C4A14606   4.724   8.012   6.837 -0.0951 -0.2330 -0.0172
 1021YOPC   C1B14607   5.438   8.522   5.908  0.0149  0.0825 -0.0170
 1021YOPC   C2B14608   5.506   8.448   6.258 -0.1925 -0.0118 -0.1006
 1021YOPC   D3B14609   5.275   8.170   6.547 -0.3118 -0.2626  0.1879
 1021YOPC   C4B14610   5.202   7.964   6.975  0.2312 -0.0244  0.0948
 1022YOPC   NC314611   5.209   1.996   5.134  0.2472  0.0723  0.0783
 1022YOPC   PO414612   5.103   1.558   5.190 -0.0215  0.0582 -0.2111
 1022YOPC   GL114613   5.294   1.385   5.405  0.2195  0.1216  0.2628
 1022YOPC   GL214614   5.383   0.966   5.380  0.0869  0.2853 -0.2089
 1022YOPC   C1A14615   5.494   1.418   5.937  0.1156 -0.1169  0.2671
 1022YOPC   D2A14616   5.483   1.404   6.350 -0.1241  0.3618 -0.1909
 1022YOPC   C3A14617   5.696   1.703   6.574 -0.1829  0.1287 -0.0359
 1022YOPC   C4A14618   6.033   1.731   6.738  0.1293 -0.1437 -0.0321
 1022YOPC   C1B14619   5.761   1.112   5.603  0.0818  0.1207  0.0089
 1022YOPC   C2B14620   6.184   1.162   5.768 -0.2513 -0.1046  0.1824
 1022YOPC   D3B14621   6.256   1.569   5.883  0.0268 -0.0539 -0.0434
 1022YOPC   C4B14622   6.532   1.894   6.037  0.0942  0.0595  0.1341
 1023YOPC   NC314623  10.115   3.269   4.992  0.0127 -0.0133 -0.1906
 1023YOPC   PO414624  10.151   3.241   5.437 -0.0466 -0.0686  0.0611
 1023YOPC   GL114625  10.292   3.326   5.848 -0.3014 -0.2128  0.0115
 1023YOPC   GL214626  10.544   3.232   6.077  0.0917  0.1590 -0.0146
 1023YOPC   C1A14627  10.323   3.689   6.199  0.0640 -0.2906  0.1955
 1023YOPC   D2A14628  10.238   3.725   6.620 -0.1802 -0.0245  0.1883
 1023YOPC   C3A14629  10.482   3.459   6.942 -0.1296  0.3359  0.0255
 1023YOPC   C4A14630  10.667   3.213   7.267  0.1071 -0.0775 -0.1773
 1023YOPC   C1B14631  10.642   3.299   6.459  0.1463 -0.3546 -0.1308
 1023YOPC   C2B14632  10.961   3.365   6.819  0.2841  0.0889  0.2506
 1023YOPC   D3B14633  10.936   3.644   7.195 -0.2023  0.0109  0.0637
 1023YOPC   C4B14634  10.695   3.594   7.641 -0.0299  0.3601  0.0582
 1024YOPC   NC314635   6.546   2.031   5.006  0.2932  0.0838  0.0587
 1024YOPC   PO414636   6.472   2.483   5.090 -0.0326  0.2046 -0.0136
 1024YOPC   GL114637   6.300   2.440   5.539 -0.1909  0.2580 -0.2146
 1024YOPC   GL214638   6.432   2.114   5.526 -0.1144 -0.1897 -0.0302
 1024YOPC   C1A14639   6.218   2.338   5.983 -0.0684 -0.2203  0.0013
 1024YOPC   D2A14640   6.238   2.067   6.382  0.1561  0.2454 -0.0533
 1024YOPC   C3A14641   6.017   2.274   6.713  0.0414 -0.1876  0.1299
 1024YOPC   C4A14642   5.721   2.376   6.933  0.1561 -0.0686  0.2290
 1024YOPC   C1B14643   6.024   2.013   5.679  0.2898  0.1173  0.1722
 1024YOPC   C2B14644   5.815   1.810   6.046  0.0489 -0.1922 -0.2409
 1024YOPC   D3B14645   6.015   1.497   6.296  0.1020 -0.0245 -0.1413
 1024YOPC   C4B14646   6.259   1.114   6.311  0.1168  0.1708  0.2248
 1025YOPC   NC314647  11.504   3.007   5.723  0.0272 -0.2128 -0.0424
 1025YOPC   PO414648  11.268   3.388   5.880  0.5497 -0.1637 -0.0786
 1025YOPC   GL114649  11.009   3.124   6.070 -0.1548  0.1554 -0.0240
 1025YOPC   GL214650  11.233   3.185   6.346  0.1015  0.1034 -0.0671
 1025YOPC   C1A14651  10.729   2.820   6.080 -0.2933  0.1146  0.0026
 1025YOPC   D2A14652  10.412   2.586   6.229  0.1093  0.0660  0.0314
 1025YOPC   C3A14653  10.227   2.678   6.676 -0.0950 -0.1678 -0.0569
 1025YOPC   C4A14654  10.218   2.886   7.045 -0.1552  0.0108  0.0345
 1025YOPC   C1B14655  10.937   2.913   6.550  0.0608  0.0760  0.1515
 1025YOPC   C2B14656  10.687   2.981   6.866  0.2494  0.0836  0.1985
 1025YOPC   D3B14657  10.598   2.582   7.182 -0.2152  0.1386 -0.3462
 1025YOPC   C4B14658  10.687   2.191   7.406  0.3204 -0.0889 -0.0796
 1026YOPC   NC314659   9.638  14.196   5.354 -0.2412  0.3651 -0.3538
 1026YOPC   PO414660   9.642  14.579   5.608 -0.1342  0.1084 -0.0972
 1026YOPC   GL114661   9.763  14.669   6.108  0.1114  0.2445 -0.0965
 1026YOPC   GL214662   9.734  14.953   6.207  0.0559 -0.1663  0.0616
 1026YOPC   C1A14663   9.729  14.503   6.522  0.2619 -0.2251  0.2185
 1026YOPC   D2A14664   9.978  14.298   6.818 -0.2171 -0.1802  0.2069
 1026YOPC   C3A14665  10.410  14.351   6.631 -0.2246  0.2346  0.0031
 1026YOPC   C4A14666  10.901  14.224   6.497 -0.1591  0.0053 -0.0089
 1026YOPC   C1B14667   9.867  15.026   6.588  0.1520  0.0286  0.5310
 1026YOPC   C2B14668  10.229  14.853   6.817  0.2153 -0.0464 -0.3053
 1026YOPC   D3B14669  10.346  14.825   7.186  0.2697  0.1237 -0.1941
 1026YOPC   C4B14670  10.143  14.911   7.475  0.1048 -0.1909 -0.4521
 1027YOPC   NC314671  18.144  11.480   5.684  0.1277 -0.0263 -0.0808
 1027YOPC   PO414672  18.461  11.667   5.635  0.2883  0.0108 -0.2024
 1027YOPC   GL114673  18.396  11.890   6.062 -0.2692  0.0393  0.0262
 1027YOPC   GL214674  18.583  12.113   6.214 -0.0230  0.0799 -0.1533
 1027YOPC   C1A14675  18.309  11.770   6.460  0.1210  0.2933 -0.0310
 1027YOPC   D2A14676  18.423  11.444   6.775 -0.0230 -0.0374 -0.0519
 1027YOPC   C3A14677  18.532  10.944   6.816  0.4089 -0.1887  0.0903
 1027YOPC   C4A14678  18.483  10.609   7.125  0.3745 -0.3076  0.0439
 1027YOPC   C1B14679  18.540  12.181   6.615 -0.1237  0.1560  0.0626
 1027YOPC   C2B14680  18.650  12.262   7.028 -0.1267  0.1460 -0.0970
 1027YOPC   D3B14681  19.061  12.185   7.209  0.2261  0.2251  0.4044
 1027YOPC   C4B14682  19.374  12.099   7.561 -0.3100 -0.1138  0.1297
 1028YOPC   NC314683   2.429   3.613   5.430  0.0453 -0.0697 -0.0363
 1028YOPC   PO414684   2.212   3.217   5.392 -0.1049  0.2006 -0.0806
 1028YOPC   GL114685   2.218   3.436   5.834 -0.1804 -0.2294  0.2062
 1028YOPC   GL214686   1.976   3.307   5.984 -0.0399 -0.0593  0.0783
 1028YOPC   C1A14687   2.268   3.466   6.341  0.0956  0.0875  0.1305
 1028YOPC   D2A14688   2.169   3.335   6.712  0.0581  0.1140  0.1240
 1028YOPC   C3A14689   2.315   3.553   7.023 -0.1502  0.1151  0.0974
 1028YOPC   C4A14690   2.664   3.499   7.301  0.0452  0.0025 -0.1022
 1028YOPC   C1B14691   1.800   3.633   6.196  0.0933 -0.1736  0.1332
 1028YOPC   C2B14692   1.682   3.756   6.536 -0.0385 -0.0738 -0.2791
 1028YOPC   D3B14693   1.831   3.631   6.889 -0.1711 -0.0792 -0.1205
 1028YOPC   C4B14694   1.714   3.780   7.273 -0.2494 -0.0466  0.0391
 1029YOPC   NC314695   1.591   4.726   5.715 -0.1223 -0.1825  0.1361
 1029YOPC   PO414696   1.977   4.835   5.979  0.1944  0.1662  0.3946
 1029YOPC   GL114697   2.124   4.609   6.293 -0.3099  0.2740  0.2927
 1029YOPC   GL214698   2.480   4.561   6.249 -0.0319 -0.0767  0.2277
 1029YOPC   C1A14699   2.205   4.612   6.714 -0.1166  0.1121  0.4700
 1029YOPC   D2A14700   2.161   4.531   7.136  0.1348  0.0469  0.0102
 1029YOPC   C3A14701   2.210   4.917   7.525  0.0178 -0.2683  0.0902
 1029YOPC   C4A14702   2.136   5.262   7.829 -0.2039  0.1738  0.1090
 1029YOPC   C1B14703   2.617   4.353   6.636 -0.0167  0.0286  0.0878
 1029YOPC   C2B14704   2.809   4.533   6.965 -0.1847  0.1271 -0.0432
 1029YOPC   D3B14705   2.642   4.450   7.342  0.2808 -0.2760 -0.0388
 1029YOPC   C4B14706   2.391   4.486   7.616  0.0509  0.1291  0.1725
 1030YOPC   NC314707  17.036   7.935   5.758 -0.1727 -0.0116  0.1379
 1030YOPC   PO414708  17.466   7.812   5.911 -0.0238 -0.1236 -0.1046
 1030YOPC   GL114709  17.384   7.883   6.386 -0.2962 -0.0015  0.4400
 1030YOPC   GL214710  17.070   7.725   6.271  0.0818  0.0705 -0.2966
 1030YOPC   C1A14711  17.384   7.702   6.751  0.1173  0.1052 -0.2101
 1030YOPC   D2A14712  17.161   7.739   7.116  0.2650  0.0815  0.0721
 1030YOPC   C3A14713  17.332   7.746   7.586 -0.1850  0.0061 -0.3421
 1030YOPC   C4A14714  17.593   7.420   7.818  0.2146  0.2085  0.4436
 1030YOPC   C1B14715  17.021   7.395   6.577 -0.1853  0.1020 -0.1379
 1030YOPC   C2B14716  17.266   7.075   6.698 -0.2755 -0.2600  0.2558
 1030YOPC   D3B14717  17.384   7.194   7.088  0.4595 -0.0033 -0.0925
 1030YOPC   C4B14718  17.671   7.533   7.130  0.0908  0.1709 -0.2434
 1031YOPC   NC314719  18.001  12.702   5.839 -0.3101 -0.0833  0.4810
 1031YOPC   PO414720  18.017  13.161   5.923 -0.0932  0.2149 -0.1430
 1031YOPC   GL114721  18.027  13.294   6.282 -0.0397 -0.2406  0.2480
 1031YOPC   GL214722  17.795  13.364   6.555 -0.1000  0.3994 -0.1511
 1031YOPC   C1A14723  18.289  13.434   6.601 -0.1677  0.2554 -0.0283
 1031YOPC   D2A14724  18.363  13.306   7.004  0.1405 -0.2144 -0.2209
 1031YOPC   C3A14725  18.588  13.689   7.043 -0.0361 -0.0265  0.2980
 1031YOPC   C4A14726  18.740  13.946   7.196 -0.1310 -0.2734 -0.1708
 1031YOPC   C1B14727  17.636  13.356   6.946  0.2842  0.2847  0.0405
 1031YOPC   C2B14728  17.480  13.306   7.374 -0.0851  0.5213 -0.3461
 1031YOPC   D3B14729  17.563  12.937   7.349 -0.0917 -0.1930 -0.1717
 1031YOPC   C4B14730  17.761  12.792   7.599 -0.4025  0.0528 -0.0219
 1032YOPC   NC314731   1.766   9.064   5.226  0.0886 -0.4223 -0.1534
 1032YOPC   PO414732   1.498   8.814   5.408  0.0331  0.0346  0.1426
 1032YOPC   GL114733   1.620   8.860   5.859 -0.0418 -0.0703  0.1317
 1032YOPC   GL214734   1.414   8.693   6.089  0.1451  0.0182 -0.0185
 1032YOPC   C1A14735   2.005   8.929   6.089  0.2380 -0.0558 -0.0525
 1032YOPC   D2A14736   2.274   9.064   6.392  0.2225 -0.3378 -0.3016
 1032YOPC   C3A14737   2.276   8.973   6.715 -0.2888  0.2484 -0.2623
 1032YOPC   C4A14738   2.340   8.837   7.116 -0.2142  0.2124  0.1212
 1032YOPC   C1B14739   1.361   8.580   6.604 -0.4729 -0.0691  0.3741
 1032YOPC   C2B14740   1.230   8.573   6.961 -0.0057 -0.1696 -0.3733
 1032YOPC   D3B14741   1.003   8.804   7.311  0.2464 -0.2783  0.0575
 1032YOPC   C4B14742   0.630   8.893   7.516  0.5511 -0.0843 -0.1114
 1033YOPC   NC314743   0.143   6.736   5.582  0.0191 -0.0996 -0.0097
 1033YOPC   PO414744  -0.283   6.647   5.790  0.0350 -0.1926  0.1541
 1033YOPC   GL114745   0.007   6.889   6.156 -0.1195 -0.1988 -0.1375
 1033YOPC   GL214746   0.277   6.673   6.114 -0.1687  0.2521 -0.2430
 1033YOPC   C1A14747   0.101   6.898   6.632 -0.0244 -0.2492  0.2701
 1033YOPC   D2A14748   0.240   7.038   6.962  0.1221  0.1840  0.0566
 1033YOPC   C3A14749   0.711   6.951   7.059 -0.1988  0.0277  0.1790
 1033YOPC   C4A14750   1.018   6.647   7.230 -0.0581  0.1623 -0.1155
 1033YOPC   C1B14751   0.248   6.357   6.424  0.3234  0.0150  0.2680
 1033YOPC   C2B14752   0.322   6.142   6.851  0.0223 -0.1153  0.0115
 1033YOPC   D3B14753   0.564   6.348   7.114  0.1285  0.0289  0.2748
 1033YOPC   C4B14754   0.558   6.601   7.464 -0.1048 -0.2207 -0.0975
 1034YOPC   NC314755  18.209  15.266   5.022 -0.2176 -0.4591  0.1582
 1034YOPC   PO414756  18.332  15.197   5.525  0.0206 -0.2045 -0.1771
 1034YOPC   GL114757  18.281  15.221   6.000  0.2305  0.0306  0.1051
 1034YOPC   GL214758  18.526  15.450   6.143  0.1466 -0.1613 -0.0164
 1034YOPC   C1A14759  18.061  15.107   6.336  0.1202  0.0457  0.2382
 1034YOPC   D2A14760  17.942  14.848   6.678 -0.0557 -0.2118 -0.2609
 1034YOPC   C3A14761  18.065  14.899   6.987  0.0845  0.0352  0.0971
 1034YOPC   C4A14762  17.643  14.839   7.233 -0.0703  0.1937 -0.1301
 1034YOPC   C1B14763  18.898  15.428   6.432  0.2280 -0.0645  0.0375
 1034YOPC   C2B14764  19.274  15.557   6.679  0.1894  0.2553  0.0437
 1034YOPC   D3B14765  19.129  15.726   6.940  0.1990 -0.2567  0.0927
 1034YOPC   C4B14766  19.036  15.961   7.321  0.0600 -0.0435 -0.0913
 1035YOPC   NC314767   8.589   0.699   5.585 -0.3865 -0.0359  0.0022
 1035YOPC   PO414768   8.950   0.701   5.297 -0.2794 -0.4980  0.0941
 1035YOPC   GL114769   9.107   0.439   5.711 -0.1073  0.3950  0.0309
 1035YOPC   GL214770   8.868   0.294   5.774  0.2822  0.1728  0.1410
 1035YOPC   C1A14771   9.212   0.249   6.151 -0.0011  0.4096  0.0305
 1035YOPC   D2A14772   9.308   0.352   6.610  0.1063 -0.4541 -0.1144
 1035YOPC   C3A14773   9.694   0.262   6.834  0.1593 -0.1412  0.0288
 1035YOPC   C4A14774   9.864   0.095   7.175  0.0169 -0.1464 -0.2525
 1035YOPC   C1B14775   9.063  -0.084   5.850 -0.3322  0.1109 -0.2500
 1035YOPC   C2B14776   8.931  -0.426   5.902  0.0664  0.0518 -0.0499
 1035YOPC   D3B14777   9.079  -0.838   5.989 -0.1493  0.2030  0.0329
 1035YOPC   C4B14778   9.048  -1.033   6.361 -0.0910 -0.0838 -0.0225
 1036YOPC   NC314779   6.078   6.663   5.702  0.0023 -0.0007 -0.0236
 1036YOPC   PO414780   6.108   7.068   5.502 -0.0391  0.0379  0.2615
 1036YOPC   GL114781   5.869   7.112   5.927 -0.3514  0.0955 -0.0936
 1036YOPC   GL214782   6.180   7.428   6.035  0.0638  0.1537 -0.3036
 1036YOPC   C1A14783   5.477   7.132   6.098 -0.1201  0.2261 -0.2030
 1036YOPC   D2A14784   5.110   7.081   6.361 -0.0152  0.1569  0.0973
 1036YOPC   C3A14785   5.244   7.080   6.710  0.1477 -0.3023  0.1548
 1036YOPC   C4A14786   5.136   7.098   7.159 -0.5388  0.4096  0.0573
 1036YOPC   C1B14787   6.128   7.238   6.489 -0.0704  0.0120  0.1849
 1036YOPC   C2B14788   5.732   7.047   6.526 -0.2081 -0.0054 -0.1481
 1036YOPC   D3B14789   5.526   6.774   7.031 -0.2281  0.1562 -0.2531
 1036YOPC   C4B14790   5.327   6.695   7.407 -0.2188 -0.0593 -0.0803
 1037YOPC   NC314791   7.885   5.659   5.502 -0.0077  0.1162 -0.2979
 1037YOPC   PO414792   8.025   5.236   5.207  0.1073 -0.1013 -0.0324
 1037YOPC   GL114793   8.112   5.280   5.680 -0.2792 -0.0977  0.2138
 1037YOPC   GL214794   8.389   5.238   5.827 -0.0433 -0.0982 -0.1094
 1037YOPC   C1A14795   7.891   5.022   5.937 -0.2120  0.3093  0.0069
 1037YOPC   D2A14796   7.544   4.834   6.108  0.0699 -0.1346  0.1791
 1037YOPC   C3A14797   7.348   5.206   6.291 -0.1062  0.1253  0.1379
 1037YOPC   C4A14798   7.114   5.637   6.169  0.0923  0.1654 -0.0337
 1037YOPC   C1B14799   8.198   5.375   6.145  0.2309  0.4314 -0.0828
 1037YOPC   C2B14800   7.867   5.182   6.397  0.2856 -0.1785  0.0839
 1037YOPC   D3B14801   7.659   5.176   6.734  0.2465  0.2480 -0.2193
 1037YOPC   C4B14802   7.675   5.220   7.217 -0.0453  0.1025 -0.0467
 1038YOPC   NC314803   3.542   4.651   5.071 -0.2146 -0.0505  0.0499
 1038YOPC   PO414804   3.424   4.409   5.364  0.2332 -0.0181  0.1993
 1038YOPC   GL114805   3.344   4.452   5.808 -0.0496 -0.0513  0.1929
 1038YOPC   GL214806   3.379   4.797   5.890 -0.1130 -0.1243  0.2267
 1038YOPC   C1A14807   3.541   4.285   6.124 -0.1082 -0.0850  0.1038
 1038YOPC   D2A14808   3.619   4.115   6.625 -0.1674  0.2761 -0.1386
 1038YOPC   C3A14809   3.728   4.398   7.058  0.0221  0.0463  0.0653
 1038YOPC   C4A14810   3.750   4.526   7.411 -0.2804 -0.1624  0.1764
 1038YOPC   C1B14811   3.438   4.776   6.351 -0.0230  0.2066 -0.0150
 1038YOPC   C2B14812   3.385   4.705   6.794  0.1833 -0.1781 -0.0017
 1038YOPC   D3B14813   3.206   4.220   6.908 -0.2159 -0.3450 -0.1870
 1038YOPC   C4B14814   3.156   3.797   6.865  0.1327  0.1887  0.0125
 1039YOPC   NC314815  13.450  12.726   5.916 -0.0448 -0.3706  0.0151
 1039YOPC   PO414816  13.332  13.136   6.078 -0.1122 -0.0084  0.4397
 1039YOPC   GL114817  13.068  12.846   6.266 -0.2239 -0.1214 -0.0431
 1039YOPC   GL214818  13.239  12.516   6.405  0.1859 -0.3143 -0.2613
 1039YOPC   C1A14819  12.728  12.609   6.397  0.4060  0.0613 -0.0902
 1039YOPC   D2A14820  12.562  12.271   6.677  0.1427  0.0337 -0.3266
 1039YOPC   C3A14821  12.305  12.348   6.948  0.0234 -0.0539  0.0616
 1039YOPC   C4A14822  12.409  12.420   7.387 -0.2605 -0.0539  0.0215
 1039YOPC   C1B14823  13.087  12.407   6.703 -0.2808  0.2511 -0.1093
 1039YOPC   C2B14824  12.881  12.381   7.054 -0.2025 -0.3365  0.0326
 1039YOPC   D3B14825  12.898  12.390   7.508 -0.1215 -0.1270  0.0424
 1039YOPC   C4B14826  13.020  12.250   7.944 -0.6191  0.1458 -0.1666
 1040YOPC   NC314827   3.425   7.157   5.151 -0.2384 -0.0889 -0.0309
 1040YOPC   PO414828   3.653   7.502   5.352  0.0516  0.2112 -0.1333
 1040YOPC   GL114829   3.601   7.388   5.897 -0.0880 -0.1537  0.0963
 1040YOPC   GL214830   3.207   7.149   6.018 -0.0842 -0.0848  0.0332
 1040YOPC   C1A14831   3.626   7.196   6.314  0.3832 -0.0006 -0.0452
 1040YOPC   D2A14832   3.571   7.045   6.796 -0.1682  0.3977 -0.2431
 1040YOPC   C3A14833   3.826   6.839   7.120 -0.2978 -0.1071  0.0316
 1040YOPC   C4A14834   4.237   6.634   7.182  0.3623  0.0461  0.2345
 1040YOPC   C1B14835   3.182   7.122   6.394  0.3167 -0.1725 -0.0648
 1040YOPC   C2B14836   3.059   7.007   6.811 -0.4754 -0.3422 -0.1571
 1040YOPC   D3B14837   3.318   6.822   7.121 -0.0999 -0.0606 -0.2016
 1040YOPC   C4B14838   3.232   6.437   7.392 -0.0144 -0.1395  0.1501
 1041YOPC   NC314839  10.485  12.541   5.693  0.1751  0.1624  0.2060
 1041YOPC   PO414840  10.712  12.998   5.655  0.0846 -0.2594 -0.1139
 1041YOPC   GL114841  10.613  12.795   6.078 -0.0211  0.0061  0.0983
 1041YOPC   GL214842  10.281  12.598   6.164 -0.0739 -0.0781 -0.1131
 1041YOPC   C1A14843  10.660  12.432   6.430  0.0496  0.2302 -0.1218
 1041YOPC   D2A14844  10.637  12.179   6.819 -0.1090  0.1216 -0.1499
 1041YOPC   C3A14845  10.325  11.783   6.660  0.1917  0.0099  0.3826
 1041YOPC   C4A14846   9.876  11.755   6.612 -0.1304 -0.0868 -0.0736
 1041YOPC   C1B14847  10.294  12.927   6.421  0.1009  0.5820 -0.0646
 1041YOPC   C2B14848  10.511  13.373   6.473 -0.4411  0.1627 -0.2211
 1041YOPC   D3B14849  10.680  13.372   6.896  0.0259  0.1007 -0.1852
 1041YOPC   C4B14850  10.778  13.276   7.249 -0.0111  0.1694  0.3816
 1042YOPC   NC314851  10.904  17.300   5.654 -0.4251 -0.0178  0.0754
 1042YOPC   PO414852  10.466  17.161   5.787 -0.2511 -0.0983  0.2176
 1042YOPC   GL114853  10.113  17.309   5.927 -0.1415  0.1199  0.0998
 1042YOPC   GL214854   9.765  17.319   5.832  0.1619 -0.1382 -0.0741
 1042YOPC   C1A14855  10.100  17.586   6.308 -0.0570 -0.0228  0.0144
 1042YOPC   D2A14856  10.243  17.708   6.664 -0.1253 -0.4192  0.1043
 1042YOPC   C3A14857  10.065  17.655   7.117 -0.4768 -0.0915  0.1909
 1042YOPC   C4A14858  10.168  17.450   7.573  0.1868  0.0345  0.1057
 1042YOPC   C1B14859   9.658  17.203   6.187  0.1144  0.1477  0.2596
 1042YOPC   C2B14860   9.677  17.303   6.499  0.2212 -0.2468  0.0165
 1042YOPC   D3B14861   9.697  17.392   6.952 -0.1517 -0.0797 -0.0164
 1042YOPC   C4B14862   9.680  17.293   7.318 -0.1056 -0.2260  0.1001
 1043YOPC   NC314863   8.909  12.810   5.403  0.0493  0.2442 -0.2311
 1043YOPC   PO414864   9.049  13.222   5.591  0.1746 -0.1712 -0.2012
 1043YOPC   GL114865   9.102  13.368   6.007 -0.0880  0.2078  0.4687
 1043YOPC   GL214866   9.027  13.179   6.135 -0.1088 -0.0777  0.1021
 1043YOPC   C1A14867   9.110  13.576   6.373 -0.1228  0.0951 -0.1006
 1043YOPC   D2A14868   8.842  13.921   6.645 -0.1926  0.0267  0.0864
 1043YOPC   C3A14869   8.523  13.878   6.668  0.2095 -0.1342 -0.2296
 1043YOPC   C4A14870   8.207  13.639   6.832 -0.1936 -0.0003  0.2234
 1043YOPC   C1B14871   8.649  12.924   6.423 -0.1328  0.1411  0.2803
 1043YOPC   C2B14872   8.186  12.889   6.583  0.3245  0.0943 -0.2156
 1043YOPC   D3B14873   7.843  13.147   6.473 -0.0072  0.0733  0.2025
 1043YOPC   C4B14874   7.721  13.537   6.691 -0.3261  0.0959  0.0803
 1044YOPC   NC314875   8.823  10.483   5.595  0.1462  0.4056 -0.2394
 1044YOPC   PO414876   8.955  10.567   6.031 -0.1190  0.0389  0.1156
 1044YOPC   GL114877   8.841  10.803   6.454 -0.4915  0.0534  0.3568
 1044YOPC   GL214878   9.120  11.060   6.572  0.0049 -0.0240 -0.0280
 1044YOPC   C1A14879   8.785  10.827   6.869 -0.1333  0.1316 -0.2023
 1044YOPC   D2A14880   8.799  11.080   7.318 -0.1035  0.0575 -0.1111
 1044YOPC   C3A14881   9.105  11.300   7.640 -0.1459 -0.3621  0.6082
 1044YOPC   C4A14882   9.359  11.323   8.024 -0.0125 -0.0128  0.2651
 1044YOPC   C1B14883   9.221  11.099   7.026 -0.0474  0.3731  0.0209
 1044YOPC   C2B14884   9.412  11.020   7.394 -0.1368  0.1202  0.0821
 1044YOPC   D3B14885   9.265  10.760   7.594  0.2313 -0.0456  0.1088
 1044YOPC   C4B14886   9.384  10.346   7.938 -0.0014 -0.2669 -0.1861
 1045YOPC   NC314887  16.946   5.284   5.512  0.1340 -0.3315  0.2645
 1045YOPC   PO414888  17.331   5.165   5.654  0.0369 -0.0130  0.1431
 1045YOPC   GL114889  17.609   5.084   6.054  0.0898 -0.1629 -0.2752
 1045YOPC   GL214890  17.477   5.367   6.313  0.1665 -0.3015 -0.1043
 1045YOPC   C1A14891  17.924   4.851   6.193  0.1716  0.1049 -0.0526
 1045YOPC   D2A14892  18.240   4.545   6.321 -0.1179  0.1008 -0.0732
 1045YOPC   C3A14893  18.192   4.259   6.644  0.2037 -0.0127  0.0683
 1045YOPC   C4A14894  18.637   4.246   6.601  0.4415 -0.1910  0.0088
 1045YOPC   C1B14895  17.354   5.403   6.685  0.0594  0.3078  0.0853
 1045YOPC   C2B14896  17.268   5.554   7.071  0.0526  0.0585 -0.1571
 1045YOPC   D3B14897  17.183   5.344   7.374  0.1874  0.0956  0.0449
 1045YOPC   C4B14898  16.857   5.411   7.783  0.3448  0.4282 -0.1231
 1046YOPC   NC314899   7.331   5.429   5.069  0.1710  0.0446 -0.0817
 1046YOPC   PO414900   7.424   5.610   5.390  0.0302  0.1088  0.2196
 1046YOPC   GL114901   7.157   5.530   5.704  0.0368  0.1772 -0.3492
 1046YOPC   GL214902   6.779   5.517   5.725 -0.0596  0.1701  0.0839
 1046YOPC   C1A14903   7.082   5.158   5.891 -0.0166 -0.2063  0.2843
 1046YOPC   D2A14904   7.037   4.805   6.182 -0.1469 -0.2298 -0.1326
 1046YOPC   C3A14905   7.290   4.814   6.608 -0.2140  0.2582 -0.1224
 1046YOPC   C4A14906   7.198   5.066   6.935  0.1835 -0.1640  0.0849
 1046YOPC   C1B14907   6.674   5.424   6.137 -0.2008  0.1191  0.1943
 1046YOPC   C2B14908   6.886   5.259   6.454  0.0019  0.0682 -0.1943
 1046YOPC   D3B14909   7.223   5.504   6.727 -0.2747 -0.2350  0.0861
 1046YOPC   C4B14910   7.227   5.507   7.106  0.1173  0.1643  0.2908
 1047YOPC   NC314911   0.013  14.218   5.345 -0.0922 -0.0535 -0.1833
 1047YOPC   PO414912  -0.079  14.435   5.741  0.1087  0.1944 -0.0997
 1047YOPC   GL114913   0.131  14.612   6.104 -0.1234 -0.1036 -0.2349
 1047YOPC   GL214914   0.053  14.746   6.291  0.1515 -0.0038 -0.2283
 1047YOPC   C1A14915   0.457  14.604   6.446 -0.0416  0.1079 -0.2027
 1047YOPC   D2A14916   0.398  14.754   6.908 -0.6034  0.0399 -0.3994
 1047YOPC   C3A14917   0.199  14.608   7.306  0.1893  0.1603 -0.2284
 1047YOPC   C4A14918  -0.122  14.776   7.623 -0.0989 -0.0224 -0.1604
 1047YOPC   C1B14919  -0.160  15.033   6.468 -0.1338 -0.2014 -0.2556
 1047YOPC   C2B14920  -0.371  15.283   6.754  0.0071  0.1707 -0.2619
 1047YOPC   D3B14921  -0.113  15.449   6.965 -0.0622 -0.0824  0.2164
 1047YOPC   C4B14922   0.242  15.220   7.033  0.1183 -0.4942 -0.3365
 1048YOPC   NC314923  17.296  16.055   5.592 -0.0106  0.0174  0.1211
 1048YOPC   PO414924  17.487  15.694   5.498 -0.1376  0.2127 -0.1273
 1048YOPC   GL114925  17.769  15.849   5.831 -0.1125 -0.2344 -0.1932
 1048YOPC   GL214926  17.639  15.914   6.111 -0.0858  0.3825  0.1471
 1048YOPC   C1A14927  18.154  15.801   6.167  0.2368  0.3020  0.0046
 1048YOPC   D2A14928  18.182  15.749   6.571 -0.0225  0.0044  0.4307
 1048YOPC   C3A14929  17.968  16.000   6.770 -0.0468  0.1886  0.0296
 1048YOPC   C4A14930  17.942  16.046   7.184 -0.0040 -0.1464  0.1760
 1048YOPC   C1B14931  17.886  16.170   6.358 -0.0651 -0.1606 -0.0061
 1048YOPC   C2B14932  17.575  16.406   6.754 -0.0656  0.1807  0.2508
 1048YOPC   D3B14933  17.582  16.399   7.200 -0.3776 -0.1296 -0.0868
 1048YOPC   C4B14934  17.546  16.512   7.636 -0.1540  0.0498  0.0032
 1049YOPC   NC314935  18.593  12.164   5.708  0.0196 -0.0773 -0.0218
 1049YOPC   PO414936  18.401  12.437   5.922  0.2173 -0.1565 -0.0540
 1049YOPC   GL114937  18.202  12.493   6.245 -0.2239 -0.0763  0.0432
 1049YOPC   GL214938  17.995  12.178   6.231 -0.1683  0.3162  0.0649
 1049YOPC   C1A14939  17.931  12.681   6.519 -0.1615  0.5775  0.0688
 1049YOPC   D2A14940  18.004  12.977   6.871  0.2544  0.0359  0.1065
 1049YOPC   C3A14941  18.120  12.916   7.232  0.2697  0.1875  0.1823
 1049YOPC   C4A14942  18.410  12.953   7.477  0.1944  0.0566  0.1384
 1049YOPC   C1B14943  18.045  12.062   6.723 -0.1085  0.1073  0.1272
 1049YOPC   C2B14944  18.279  12.012   6.990  0.0145  0.2440 -0.1365
 1049YOPC   D3B14945  18.078  11.873   7.376 -0.2793 -0.0077  0.1481
 1049YOPC   C4B14946  17.989  12.023   7.801  0.0343  0.1862  0.3269
 1050YOPC   NC314947   3.530  10.289   5.451  0.0980  0.0131 -0.1985
 1050YOPC   PO414948   3.954  10.456   5.187 -0.1353 -0.1060 -0.1900
 1050YOPC   GL114949   3.979  10.520   5.615  0.2713 -0.1603  0.2528
 1050YOPC   GL214950   3.816  10.302   5.881 -0.1146  0.2245 -0.4560
 1050YOPC   C1A14951   3.951  10.855   5.847  0.3104 -0.1927 -0.0182
 1050YOPC   D2A14952   3.763  11.060   6.119  0.6425 -0.2023 -0.1473
 1050YOPC   C3A14953   4.004  11.089   6.574  0.0274  0.1694 -0.2678
 1050YOPC   C4A14954   4.406  11.184   6.656 -0.3456  0.2004 -0.0612
 1050YOPC   C1B14955   3.791  10.562   6.245  0.2338 -0.3831 -0.0510
 1050YOPC   C2B14956   3.813  10.607   6.667 -0.2364 -0.1076  0.0762
 1050YOPC   D3B14957   3.917  10.834   7.175 -0.3034 -0.2217 -0.0290
 1050YOPC   C4B14958   4.283  10.795   7.433  0.1302 -0.2280  0.0974
 1051YOPC   NC314959   9.220  15.643   5.256  0.0786  0.0336  0.0717
 1051YOPC   PO414960   9.335  15.569   5.508 -0.0926  0.0305  0.1642
 1051YOPC   GL114961   9.194  15.477   5.950 -0.1095 -0.3496 -0.1364
 1051YOPC   GL214962   9.240  15.719   6.205 -0.0008  0.0272  0.0380
 1051YOPC   C1A14963   8.839  15.430   6.114  0.1625 -0.2876 -0.0772
 1051YOPC   D2A14964   8.847  15.224   6.490 -0.1747  0.1066  0.3634
 1051YOPC   C3A14965   9.068  15.068   6.840  0.2603  0.0782 -0.1097
 1051YOPC   C4A14966   9.184  14.766   7.060  0.3136 -0.0545  0.2360
 1051YOPC   C1B14967   9.155  15.601   6.649 -0.0781 -0.2276 -0.0733
 1051YOPC   C2B14968   9.161  15.493   7.113  0.1994 -0.1204 -0.2512
 1051YOPC   D3B14969   8.840  15.176   7.269  0.3659  0.0458  0.0038
 1051YOPC   C4B14970   8.516  14.911   7.430 -0.0011  0.1979  0.2716
 1052YOPC   NC314971   9.591   8.783   5.975 -0.0672  0.2057 -0.0028
 1052YOPC   PO414972   9.799   8.361   6.004 -0.0644  0.0324  0.1904
 1052YOPC   GL114973  10.026   8.041   6.131  0.2044 -0.0623 -0.1756
 1052YOPC   GL214974   9.775   7.722   6.059 -0.0866 -0.0693 -0.0971
 1052YOPC   C1A14975  10.149   8.024   6.617 -0.1241  0.0570  0.1026
 1052YOPC   D2A14976  10.110   7.855   7.018  0.0374 -0.2723  0.0417
 1052YOPC   C3A14977  10.118   8.050   7.303  0.1124  0.1367  0.0307
 1052YOPC   C4A14978   9.822   8.396   7.404  0.1261 -0.0742  0.3344
 1052YOPC   C1B14979   9.741   7.779   6.377 -0.0953 -0.1516 -0.2626
 1052YOPC   C2B14980   9.816   7.543   6.701  0.0058 -0.1607  0.2582
 1052YOPC   D3B14981   9.878   7.378   7.165  0.0745  0.1991  0.2061
 1052YOPC   C4B14982   9.985   7.618   7.513 -0.1054  0.1266 -0.1540
 1053YOPC   NC314983   5.196  10.594   5.188  0.0473  0.2525 -0.2788
 1053YOPC   PO414984   4.902  11.016   5.197  0.1190 -0.1357  0.2131
 1053YOPC   GL114985   4.780  10.795   5.592 -0.1216 -0.0687 -0.0152
 1053YOPC   GL214986   5.178  10.801   5.712  0.1195 -0.0917  0.1269
 1053YOPC   C1A14987   4.435  10.901   5.849  0.0338 -0.2938  0.0575
 1053YOPC   D2A14988   4.264  11.224   6.124  0.0201 -0.0675  0.0632
 1053YOPC   C3A14989   4.468  11.628   6.052 -0.2753 -0.3062  0.1480
 1053YOPC   C4A14990   4.742  11.786   5.848  0.1261  0.0490  0.0349
 1053YOPC   C1B14991   5.005  10.852   6.032 -0.1100  0.0513 -0.1267
 1053YOPC   C2B14992   4.651  10.928   6.264  0.1142  0.1965  0.0252
 1053YOPC   D3B14993   4.834  10.831   6.664 -0.0524 -0.0776 -0.0179
 1053YOPC   C4B14994   4.951  10.615   7.034 -0.0585 -0.1610 -0.2859
 1054YOPC   NC314995   7.969   9.086   5.560 -0.0276  0.2554  0.4050
 1054YOPC   PO414996   8.318   8.801   5.400  0.1882  0.0744  0.2596
 1054YOPC   GL114997   8.392   8.628   5.826 -0.0258 -0.1148 -0.0843
 1054YOPC   GL214998   8.650   8.667   5.935  0.0589 -0.1154 -0.4240
 1054YOPC   C1A14999   8.386   8.418   6.275 -0.3029  0.1341 -0.0178
 1054YOPC   D2A15000   8.549   8.355   6.680 -0.0020  0.2074  0.1591
 1054YOPC   C3A15001   8.172   8.372   7.030 -0.2480 -0.0766  0.0891
 1054YOPC   C4A15002   8.143   8.493   7.474 -0.1007  0.1246  0.0616
 1054YOPC   C1B15003   8.832   8.671   6.399 -0.1427  0.1164 -0.0174
 1054YOPC   C2B15004   8.733   8.872   6.810 -0.1168  0.0705  0.0972
 1054YOPC   D3B15005   8.968   9.297   6.922  0.2564  0.2119 -0.2818
 1054YOPC   C4B15006   9.288   9.501   6.995 -0.1551 -0.2606 -0.0674
 1055YOPC   NC315007  13.260   2.152   5.432 -0.0569 -0.1476  0.1169
 1055YOPC   PO415008  12.855   2.219   5.543  0.1977 -0.1314 -0.1216
 1055YOPC   GL115009  13.021   2.048   5.874 -0.2862  0.2401  0.1628
 1055YOPC   GL215010  13.186   2.223   6.181  0.0112 -0.1147  0.2191
 1055YOPC   C1A15011  13.006   1.761   6.262  0.0396 -0.0435  0.1884
 1055YOPC   D2A15012  12.899   1.452   6.534 -0.1991  0.3931 -0.0363
 1055YOPC   C3A15013  12.827   0.997   6.334 -0.0714 -0.1611 -0.1506
 1055YOPC   C4A15014  13.008   0.843   5.912  0.1137  0.1472  0.0091
 1055YOPC   C1B15015  13.443   2.336   6.431 -0.1974 -0.0518  0.0803
 1055YOPC   C2B15016  13.800   2.268   6.660  0.1164 -0.0978 -0.1939
 1055YOPC   D3B15017  13.999   2.174   7.109  0.0923  0.3063  0.1382
 1055YOPC   C4B15018  14.472   2.155   7.139  0.1000  0.2698 -0.2029
 1056YOPC   NC315019  15.245   8.043   5.905  0.0560  0.0049  0.0535
 1056YOPC   PO415020  15.390   8.435   6.080 -0.0051  0.1633  0.1030
 1056YOPC   GL115021  15.159   8.302   6.506  0.2161  0.0773  0.0357
 1056YOPC   GL215022  14.868   8.169   6.560  0.0341 -0.1497  0.4073
 1056YOPC   C1A15023  15.369   8.264   6.924  0.0104 -0.0908  0.4133
 1056YOPC   D2A15024  15.380   8.306   7.407  0.0322 -0.1228  0.0281
 1056YOPC   C3A15025  15.367   8.630   7.756  0.0802 -0.0615  0.0619
 1056YOPC   C4A15026  15.580   8.563   8.236 -0.2901  0.1635 -0.0891
 1056YOPC   C1B15027  14.812   8.047   6.951  0.3320 -0.0272 -0.2288
 1056YOPC   C2B15028  14.700   7.883   7.427  0.1281 -0.0150 -0.3298
 1056YOPC   D3B15029  14.919   7.830   7.746  0.0123  0.0077  0.0937
 1056YOPC   C4B15030  15.296   8.015   7.862  0.4483 -0.0941  0.0130
 1057YOPC   NC315031   6.939  17.154   5.323  0.0020 -0.0615 -0.0630
 1057YOPC   PO415032   7.074  16.849   5.490 -0.1315 -0.0219 -0.2073
 1057YOPC   GL115033   7.041  16.945   5.858 -0.1822 -0.3480  0.0008
 1057YOPC   GL215034   6.960  17.284   5.890  0.1281  0.1063 -0.1013
 1057YOPC   C1A15035   7.369  16.929   6.102  0.0001 -0.0456 -0.1331
 1057YOPC   D2A15036   7.303  17.049   6.532  0.0597 -0.1070  0.0717
 1057YOPC   C3A15037   7.050  17.279   6.654 -0.3960 -0.2945  0.0116
 1057YOPC   C4A15038   6.798  17.527   6.770 -0.2974 -0.3072  0.1436
 1057YOPC   C1B15039   6.877  17.602   6.187  0.0518 -0.0446 -0.0202
 1057YOPC   C2B15040   6.974  17.885   6.446 -0.1494 -0.3496  0.0294
 1057YOPC   D3B15041   7.129  17.846   6.921 -0.4896 -0.0986  0.0003
 1057YOPC   C4B15042   7.234  17.666   7.268  0.1485 -0.4123  0.2471
 1058YOPC   NC315043  15.453  13.174   5.991 -0.2667 -0.2509 -0.3660
 1058YOPC   PO415044  15.803  13.010   6.277 -0.0857  0.3568  0.1388
 1058YOPC   GL115045  15.830  12.709   6.676  0.2291  0.0466 -0.0218
 1058YOPC   GL215046  15.622  12.752   6.848  0.1476 -0.2012  0.1456
 1058YOPC   C1A15047  16.139  12.632   7.001 -0.0391  0.0521 -0.0875
 1058YOPC   D2A15048  16.126  12.520   7.480 -0.3190 -0.1972  0.3708
 1058YOPC   C3A15049  16.332  12.139   7.524 -0.1868 -0.2412  0.1200
 1058YOPC   C4A15050  16.422  11.809   7.771  0.2321 -0.1152  0.1432
 1058YOPC   C1B15051  15.670  12.607   7.293  0.4231  0.1478 -0.1746
 1058YOPC   C2B15052  15.702  12.475   7.761 -0.0469 -0.6742 -0.3081
 1058YOPC   D3B15053  15.649  12.822   8.026  0.0983  0.0694 -0.1079
 1058YOPC   C4B15054  15.861  13.218   8.183  0.1918 -0.0779  0.1464
 1059YOPC   NC315055   8.010   4.788   4.970 -0.3089  0.2280 -0.0854
 1059YOPC   PO415056   8.076   4.463   5.082  0.2493 -0.0335  0.1331
 1059YOPC   GL115057   8.028   4.313   5.450  0.0922 -0.1134  0.0964
 1059YOPC   GL215058   8.044   4.536   5.710 -0.1979  0.1267  0.2586
 1059YOPC   C1A15059   7.924   4.042   5.899  0.1450  0.0440  0.0247
 1059YOPC   D2A15060   8.038   3.994   6.218 -0.1893  0.0024  0.0211
 1059YOPC   C3A15061   7.949   4.186   6.545 -0.0928  0.1969  0.0902
 1059YOPC   C4A15062   7.978   4.219   6.930  0.2002 -0.2004 -0.2531
 1059YOPC   C1B15063   7.899   4.547   6.132  0.1494 -0.1556  0.1682
 1059YOPC   C2B15064   7.796   4.705   6.573 -0.1846  0.1675 -0.0001
 1059YOPC   D3B15065   7.647   4.649   6.941  0.2591  0.0635  0.1506
 1059YOPC   C4B15066   7.557   4.449   7.427 -0.2390  0.1274 -0.0061
 1060YOPC   NC315067   1.427  17.763   5.499 -0.1912  0.1487  0.3810
 1060YOPC   PO415068   1.045  17.490   5.492  0.1458  0.0325 -0.2975
 1060YOPC   GL115069   1.216  17.440   5.877  0.0774 -0.0380  0.0400
 1060YOPC   GL215070   1.471  17.400   5.855 -0.1297  0.2817 -0.0158
 1060YOPC   C1A15071   1.218  17.546   6.319  0.1521 -0.0598 -0.1912
 1060YOPC   D2A15072   0.997  17.454   6.735 -0.0019  0.1361 -0.0904
 1060YOPC   C3A15073   0.846  17.726   7.046  0.3237  0.2768  0.1546
 1060YOPC   C4A15074   0.863  17.895   7.427 -0.2381 -0.1957  0.0487
 1060YOPC   C1B15075   1.667  17.394   6.177 -0.0696  0.3811 -0.0267
 1060YOPC   C2B15076   1.614  17.324   6.539  0.0945 -0.2609 -0.4923
 1060YOPC   D3B15077   1.414  17.183   7.038  0.2031  0.2805 -0.0410
 1060YOPC   C4B15078   1.660  17.137   7.488 -0.0724 -0.0663  0.0701
 1061YOPC   NC315079  13.531  13.591   5.912 -0.1664  0.0726  0.2832
 1061YOPC   PO415080  13.977  13.561   5.729  0.1973 -0.0660  0.0660
 1061YOPC   GL115081  14.148  13.637   6.236 -0.0727 -0.0652  0.0507
 1061YOPC   GL215082  13.935  13.776   6.391  0.0966  0.1501  0.1533
 1061YOPC   C1A15083  14.153  13.375   6.628  0.1903  0.2319 -0.1167
 1061YOPC   D2A15084  14.224  13.359   7.040  0.0208  0.1747 -0.3110
 1061YOPC   C3A15085  14.346  13.402   7.374  0.0349 -0.1173 -0.1253
 1061YOPC   C4A15086  14.303  13.296   7.794 -0.1074 -0.2500  0.0155
 1061YOPC   C1B15087  13.670  14.034   6.659 -0.1354 -0.0102  0.2784
 1061YOPC   C2B15088  13.551  14.198   6.998 -0.0114 -0.1945  0.1147
 1061YOPC   D3B15089  13.875  14.367   7.254 -0.2013  0.0936  0.1799
 1061YOPC   C4B15090  13.953  14.302   7.758 -0.1300  0.0542  0.0936
 1062YOPC   NC315091  18.104  13.613   5.602 -0.1401 -0.0030 -0.3451
 1062YOPC   PO415092  17.912  13.920   5.970 -0.1498 -0.4865 -0.2716
 1062YOPC   GL115093  17.859  13.861   6.377 -0.3054  0.4617 -0.1943
 1062YOPC   GL215094  18.053  14.166   6.414 -0.0785  0.0866 -0.1259
 1062YOPC   C1A15095  17.625  13.916   6.706  0.0825 -0.0074  0.1540
 1062YOPC   D2A15096  17.469  13.869   7.054  0.1364  0.0823 -0.0928
 1062YOPC   C3A15097  17.618  13.933   7.414  0.2908 -0.2809 -0.3051
 1062YOPC   C4A15098  17.929  14.002   7.707 -0.1247  0.0153 -0.0794
 1062YOPC   C1B15099  18.300  14.543   6.596 -0.0308  0.1005  0.1987
 1062YOPC   C2B15100  18.677  14.710   6.838 -0.1191  0.0272  0.1914
 1062YOPC   D3B15101  18.545  14.926   7.166 -0.0947  0.0040 -0.0770
 1062YOPC   C4B15102  18.131  15.161   7.440  0.0843 -0.0426 -0.3112
 1063YOPC   NC315103   2.109   1.645   5.045  0.2351 -0.1055 -0.1160
 1063YOPC   PO415104   2.241   1.420   5.439 -0.1762  0.0545  0.0790
 1063YOPC   GL115105   2.116   1.322   5.759  0.1391  0.0126  0.0477
 1063YOPC   GL215106   1.768   1.271   5.806 -0.0190  0.1612 -0.1044
 1063YOPC   C1A15107   2.265   1.316   6.158  0.0027 -0.2963 -0.2635
 1063YOPC   D2A15108   2.372   1.225   6.574  0.0471  0.2452 -0.0831
 1063YOPC   C3A15109   2.166   1.477   6.889  0.3071  0.0294 -0.2198
 1063YOPC   C4A15110   1.760   1.691   6.999  0.2411  0.1455 -0.3478
 1063YOPC   C1B15111   1.905   0.953   6.064 -0.0734 -0.5079  0.0936
 1063YOPC   C2B15112   2.255   0.831   6.335 -0.0987 -0.2271  0.2070
 1063YOPC   D3B15113   2.619   0.941   6.150 -0.0395  0.0436 -0.0175
 1063YOPC   C4B15114   2.993   1.146   6.103  0.1823 -0.2674 -0.1274
 1064YOPC   NC315115   7.979  18.648   5.580 -0.1904  0.2608 -0.0310
 1064YOPC   PO415116   8.403  18.756   5.718 -0.2798  0.1019 -0.0977
 1064YOPC   GL115117   8.505  18.672   6.106  0.2566 -0.2134  0.0497
 1064YOPC   GL215118   8.225  18.534   6.227 -0.1071 -0.0538  0.3514
 1064YOPC   C1A15119   8.859  18.554   6.326 -0.2484 -0.1485 -0.0740
 1064YOPC   D2A15120   9.013  18.722   6.623  0.1292 -0.0430 -0.0743
 1064YOPC   C3A15121   9.422  18.657   6.448 -0.2582 -0.1111  0.0238
 1064YOPC   C4A15122   9.714  18.962   6.337  0.1378 -0.0795 -0.0970
 1064YOPC   C1B15123   8.435  18.629   6.657 -0.1504 -0.1649  0.1455
 1064YOPC   C2B15124   8.300  18.307   7.065 -0.2962  0.3670 -0.0276
 1064YOPC   D3B15125   8.531  18.439   7.449 -0.0093 -0.2497  0.1125
 1064YOPC   C4B15126   8.815  18.704   7.703 -0.1761  0.1726  0.1240
 1065YOPC   NC315127   0.830   2.091   5.832  0.2586 -0.1911  0.1883
 1065YOPC   PO415128   0.653   2.617   5.814  0.1662 -0.3300 -0.2404
 1065YOPC   GL115129   0.859   2.418   6.219  0.1068  0.1069 -0.2386
 1065YOPC   GL215130   0.746   2.119   6.352 -0.0016 -0.2451 -0.2227
 1065YOPC   C1A15131   1.154   2.348   6.588 -0.0380  0.1609  0.0693
 1065YOPC   D2A15132   1.367   2.254   6.984  0.1750  0.1621 -0.3238
 1065YOPC   C3A15133   1.471   1.986   7.364  0.2208  0.1497 -0.1016
 1065YOPC   C4A15134   1.126   1.728   7.575  0.2137 -0.1186  0.1828
 1065YOPC   C1B15135   0.695   2.328   6.763  0.2946  0.2076 -0.0966
 1065YOPC   C2B15136   0.476   2.371   7.099  0.1763 -0.0730 -0.0975
 1065YOPC   D3B15137   0.505   2.749   7.339 -0.3208 -0.3116 -0.1331
 1065YOPC   C4B15138   0.725   3.151   7.380  0.1082 -0.3274 -0.0088
 1066YOPC   NC315139  10.116  17.347   5.461  0.0167 -0.2338  0.1601
 1066YOPC   PO415140  10.000  16.911   5.480  0.3270 -0.3536  0.3335
 1066YOPC   GL115141  10.107  16.816   5.956  0.0559 -0.2770  0.1293
 1066YOPC   GL215142  10.313  16.537   6.050  0.1840  0.1433  0.1052
 1066YOPC   C1A15143  10.110  16.990   6.346  0.2217 -0.1323  0.2203
 1066YOPC   D2A15144  10.125  17.235   6.768 -0.0391  0.0172 -0.1518
 1066YOPC   C3A15145  10.154  17.054   7.209 -0.1081  0.0001  0.1938
 1066YOPC   C4A15146   9.945  16.968   7.579 -0.0989 -0.3315  0.2935
 1066YOPC   C1B15147  10.324  16.426   6.524 -0.1423 -0.2287 -0.0906
 1066YOPC   C2B15148  10.112  16.352   6.996 -0.0690  0.0881 -0.0407
 1066YOPC   D3B15149  10.266  16.620   7.281  0.0404 -0.1377 -0.2791
 1066YOPC   C4B15150  10.446  16.979   7.611 -0.0646  0.0418 -0.4320
 1067YOPC   NC315151   1.695  12.267   5.310 -0.2823 -0.0947 -0.0986
 1067YOPC   PO415152   1.515  11.993   5.573  0.3873 -0.1504 -0.3248
 1067YOPC   GL115153   1.470  11.777   6.005  0.3478  0.2551  0.4080
 1067YOPC   GL215154   1.610  11.463   6.045 -0.1811  0.3123 -0.1051
 1067YOPC   C1A15155   1.766  12.003   6.341  0.1503 -0.1369 -0.0101
 1067YOPC   D2A15156   1.710  12.013   6.802  0.0952  0.0712 -0.0252
 1067YOPC   C3A15157   2.082  11.943   7.115 -0.2491  0.1502  0.0886
 1067YOPC   C4A15158   2.409  11.805   7.362  0.0930 -0.0511  0.1582
 1067YOPC   C1B15159   1.584  11.625   6.475  0.0529  0.1311 -0.1575
 1067YOPC   C2B15160   1.758  11.526   6.747 -0.1232 -0.0552 -0.0313
 1067YOPC   D3B15161   1.500  11.705   7.183  0.2087 -0.2223  0.1373
 1067YOPC   C4B15162   1.373  11.472   7.483 -0.3092  0.1574 -0.0832
 1068YOPC   NC315163   8.483  17.995   5.300 -0.1407 -0.1007  0.0031
 1068YOPC   PO415164   8.010  18.167   5.487 -0.0070 -0.1130 -0.0691
 1068YOPC   GL115165   7.899  18.178   5.844  0.3666 -0.0908 -0.2011
 1068YOPC   GL215166   7.783  18.407   5.995 -0.1336 -0.0153  0.0241
 1068YOPC   C1A15167   7.936  17.957   6.192  0.3230 -0.3230 -0.1577
 1068YOPC   D2A15168   8.244  17.743   6.502 -0.0095 -0.0584  0.0562
 1068YOPC   C3A15169   8.245  17.737   6.883  0.0454 -0.2715 -0.1122
 1068YOPC   C4A15170   7.859  17.712   7.178 -0.1705  0.2179 -0.1210
 1068YOPC   C1B15171   7.807  18.675   6.420 -0.0333 -0.3581 -0.0321
 1068YOPC   C2B15172   7.938  18.696   6.905  0.0427  0.1912  0.1684
 1068YOPC   D3B15173   8.367  18.817   7.107 -0.0626  0.1239  0.0187
 1068YOPC   C4B15174   8.660  19.078   6.877 -0.0549  0.0621 -0.0679
 1069YOPC   NC315175  12.841  15.129   4.971 -0.2398  0.2262 -0.1000
 1069YOPC   PO415176  12.715  15.125   5.354  0.0675 -0.1019  0.0996
 1069YOPC   GL115177  12.947  14.988   5.779  0.0393  0.0347 -0.0911
 1069YOPC   GL215178  12.666  14.932   5.988 -0.1318 -0.1328  0.1582
 1069YOPC   C1A15179  13.211  15.095   6.076  0.3770 -0.0025  0.1837
 1069YOPC   D2A15180  13.351  15.163   6.480  0.0374  0.0604  0.0476
 1069YOPC   C3A15181  13.630  15.521   6.441 -0.2538  0.2155  0.1160
 1069YOPC   C4A15182  13.763  15.957   6.643  0.1722 -0.2443  0.2188
 1069YOPC   C1B15183  12.833  14.979   6.434 -0.1197  0.1830  0.2680
 1069YOPC   C2B15184  12.916  14.913   6.839  0.2053 -0.1501  0.2263
 1069YOPC   D3B15185  12.785  15.068   7.202  0.0268 -0.0039 -0.0197
 1069YOPC   C4B15186  12.789  15.284   7.688 -0.0641 -0.0410  0.2302
 1070YOPC   NC315187  13.026   3.252   5.350 -0.1470 -0.1533  0.0522
 1070YOPC   PO415188  13.345   3.423   5.602 -0.0569  0.0960  0.1462
 1070YOPC   GL115189  13.543   3.705   5.958  0.1036  0.5512  0.1221
 1070YOPC   GL215190  13.821   3.940   5.844 -0.2495 -0.1025 -0.1314
 1070YOPC   C1A15191  13.527   3.707   6.341 -0.1101 -0.1827 -0.1407
 1070YOPC   D2A15192  13.318   3.923   6.618 -0.1048  0.0815  0.2177
 1070YOPC   C3A15193  13.642   3.917   6.990  0.1375 -0.1697 -0.3366
 1070YOPC   C4A15194  13.793   3.575   7.199  0.0525  0.1839  0.1094
 1070YOPC   C1B15195  13.920   4.029   6.214 -0.2544  0.0101  0.3121
 1070YOPC   C2B15196  13.939   3.738   6.625  0.1082  0.2649 -0.0842
 1070YOPC   D3B15197  14.369   3.699   6.859  0.0384 -0.0687 -0.0870
 1070YOPC   C4B15198  14.663   3.714   7.166 -0.1047  0.1475 -0.2301
 1071YOPC   NC315199   6.735   2.974   5.031  0.3125 -0.0542 -0.1466
 1071YOPC   PO415200   6.659   3.396   5.137 -0.0805  0.1053 -0.1521
 1071YOPC   GL115201   6.558   3.612   5.524  0.1727  0.3577 -0.1225
 1071YOPC   GL215202   6.377   3.498   5.588 -0.1355 -0.1217  0.2342
 1071YOPC   C1A15203   6.600   3.858   5.877  0.3608 -0.0373 -0.2263
 1071YOPC   D2A15204   6.841   4.062   6.206 -0.0479 -0.3617 -0.3600
 1071YOPC   C3A15205   6.806   4.392   6.594  0.0609 -0.0722  0.0766
 1071YOPC   C4A15206   6.798   4.764   6.801  0.2543 -0.4147 -0.0467
 1071YOPC   C1B15207   6.301   3.349   5.974 -0.2505  0.0502 -0.2313
 1071YOPC   C2B15208   6.360   2.866   6.044 -0.0974  0.2278  0.0682
 1071YOPC   D3B15209   6.734   2.647   5.856  0.1236 -0.0294 -0.0213
 1071YOPC   C4B15210   6.867   2.157   5.816 -0.1646  0.2476  0.0030
 1072YOPC   NC315211  16.905  13.574   6.190 -0.0011  0.0867  0.2042
 1072YOPC   PO415212  16.810  13.073   6.118 -0.1693 -0.5420  0.1790
 1072YOPC   GL115213  16.846  13.151   6.580 -0.0728  0.0732  0.1597
 1072YOPC   GL215214  16.644  13.430   6.872  0.0984 -0.1419  0.1125
 1072YOPC   C1A15215  17.045  13.037   7.029  0.3416 -0.1701  0.2033
 1072YOPC   D2A15216  17.084  12.995   7.458  0.2219 -0.1055  0.0780
 1072YOPC   C3A15217  17.232  12.775   7.741 -0.1039  0.1270  0.1428
 1072YOPC   C4A15218  17.597  12.404   7.924  0.3068 -0.2000 -0.2473
 1072YOPC   C1B15219  16.637  13.344   7.270 -0.1352 -0.0512 -0.0339
 1072YOPC   C2B15220  16.605  13.185   7.701  0.3700  0.1325 -0.0877
 1072YOPC   D3B15221  16.320  13.471   7.935  0.0488 -0.0386 -0.0694
 1072YOPC   C4B15222  15.915  13.535   7.823 -0.1742 -0.1238 -0.0716
 1073YOPC   NC315223  11.138  18.669   5.317  0.0242 -0.1394 -0.1096
 1073YOPC   PO415224  10.839  18.891   5.330 -0.2511  0.1639 -0.0430
 1073YOPC   GL115225  10.511  18.973   5.586  0.0798  0.1081  0.0431
 1073YOPC   GL215226  10.103  18.772   5.709 -0.2004 -0.2457 -0.4180
 1073YOPC   C1A15227  10.461  19.230   5.992 -0.0438 -0.3383 -0.2354
 1073YOPC   D2A15228  10.506  19.545   6.356  0.0976 -0.1191  0.0984
 1073YOPC   C3A15229  10.907  19.613   6.568 -0.0379  0.0830 -0.0690
 1073YOPC   C4A15230  11.247  19.713   6.326 -0.0698  0.0354  0.2289
 1073YOPC   C1B15231  10.181  18.912   6.204  0.2534 -0.2896 -0.4451
 1073YOPC   C2B15232  10.152  18.836   6.630 -0.0250  0.1120 -0.0423
 1073YOPC   D3B15233  10.379  18.945   7.058 -0.1578  0.0002 -0.0818
 1073YOPC   C4B15234  10.275  19.135   7.321  0.1199  0.1401 -0.1500
 1074YOPC   NC315235   3.729  12.477   4.578  0.1459  0.2309 -0.1689
 1074YOPC   PO415236   3.381  12.354   4.852 -0.1160 -0.1259  0.1679
 1074YOPC   GL115237   3.583  12.429   5.301  0.3100  0.0504  0.1834
 1074YOPC   GL215238   3.379  12.331   5.498 -0.0692  0.1176  0.0981
 1074YOPC   C1A15239   3.813  12.091   5.475  0.5253 -0.0905  0.0399
 1074YOPC   D2A15240   4.147  11.736   5.546 -0.0184  0.0026 -0.1844
 1074YOPC   C3A15241   4.267  11.356   5.668 -0.3109 -0.0585  0.0680
 1074YOPC   C4A15242   4.678  11.292   5.750 -0.3320  0.0265  0.1295
 1074YOPC   C1B15243   3.431  12.085   5.825 -0.0480  0.3881 -0.3349
 1074YOPC   C2B15244   3.345  11.840   6.209 -0.4050  0.0052  0.2699
 1074YOPC   D3B15245   3.571  11.953   6.552 -0.0430  0.0206  0.3791
 1074YOPC   C4B15246   3.779  12.066   6.932 -0.4653  0.0500  0.0928
 1075YOPC   NC315247   3.017  16.154   5.318 -0.4315 -0.0614 -0.2467
 1075YOPC   PO415248   2.836  16.334   5.692 -0.0730  0.3913  0.0471
 1075YOPC   GL115249   2.511  16.338   5.908 -0.0403 -0.0629  0.2922
 1075YOPC   GL215250   2.186  16.093   5.806  0.7761 -0.2053  0.3213
 1075YOPC   C1A15251   2.316  16.357   6.386 -0.0217  0.2055  0.2540
 1075YOPC   D2A15252   2.399  16.553   6.788 -0.0452 -0.0424 -0.0705
 1075YOPC   C3A15253   2.633  16.376   7.195 -0.0769 -0.2735 -0.2325
 1075YOPC   C4A15254   2.558  16.289   7.659  0.0688 -0.1293  0.0295
 1075YOPC   C1B15255   2.295  15.744   5.861  0.2126  0.1514  0.4097
 1075YOPC   C2B15256   2.251  15.554   6.349 -0.1365 -0.2655 -0.1175
 1075YOPC   D3B15257   2.108  15.460   6.771 -0.2750  0.3105 -0.1613
 1075YOPC   C4B15258   2.116  15.715   7.194  0.2274 -0.0092 -0.1622
 1076YOPC   NC315259   7.463  18.148   5.558 -0.1034 -0.0356  0.1671
 1076YOPC   PO415260   7.427  18.615   5.613 -0.0323 -0.1830  0.0180
 1076YOPC   GL115261   7.668  18.919   5.865  0.1948 -0.3151  0.2645
 1076YOPC   GL215262   7.967  18.869   5.987 -0.0546 -0.0500 -0.1487
 1076YOPC   C1A15263   7.882  19.338   5.816 -0.1226  0.3788  0.1640
 1076YOPC   D2A15264   8.226  19.615   5.884  0.0919  0.2175 -0.0513
 1076YOPC   C3A15265   8.604  19.527   6.212  0.1627 -0.0217 -0.2485
 1076YOPC   C4A15266   8.722  19.095   6.301 -0.1125  0.2392  0.0392
 1076YOPC   C1B15267   7.744  19.165   6.314 -0.1665  0.0235  0.2489
 1076YOPC   C2B15268   7.596  19.420   6.586  0.2376 -0.0920 -0.2312
 1076YOPC   D3B15269   7.691  19.263   6.980 -0.0683  0.3929  0.2567
 1076YOPC   C4B15270   7.533  19.470   7.366 -0.0629 -0.0602 -0.2533
 1077YOPC   NC315271  16.872   5.753   5.934 -0.1417 -0.0500 -0.1827
 1077YOPC   PO415272  16.904   5.291   5.973 -0.0795 -0.1416  0.3480
 1077YOPC   GL115273  16.797   5.189   6.410 -0.1068  0.0743  0.2043
 1077YOPC   GL215274  16.658   4.875   6.409  0.1611 -0.0167 -0.3733
 1077YOPC   C1A15275  17.094   4.970   6.678 -0.1389 -0.2175  0.0975
 1077YOPC   D2A15276  17.201   4.914   7.145  0.2519 -0.1243  0.1665
 1077YOPC   C3A15277  17.591   4.675   7.077 -0.0790  0.0904 -0.2538
 1077YOPC   C4A15278  17.993   4.400   7.178  0.1637 -0.0840 -0.1818
 1077YOPC   C1B15279  16.646   4.860   6.878  0.0441 -0.1545  0.0330
 1077YOPC   C2B15280  16.844   4.558   7.060  0.0529 -0.0397 -0.0919
 1077YOPC   D3B15281  16.716   4.596   7.539 -0.0271 -0.0489  0.3404
 1077YOPC   C4B15282  16.760   4.945   7.795 -0.2640  0.0105 -0.2953
 1078YOPC   NC315283  12.399  14.650   5.578 -0.0260 -0.1562 -0.0874
 1078YOPC   PO415284  12.214  14.734   5.899  0.1119 -0.0577 -0.0493
 1078YOPC   GL115285  11.953  14.935   6.161  0.2811  0.0423  0.1888
 1078YOPC   GL215286  11.838  14.755   6.417  0.2003 -0.1550 -0.1217
 1078YOPC   C1A15287  11.869  15.228   6.504 -0.1663 -0.1590 -0.1333
 1078YOPC   D2A15288  11.939  15.315   6.905  0.1895  0.1908  0.2107
 1078YOPC   C3A15289  11.746  15.227   7.327  0.3125 -0.1248  0.0828
 1078YOPC   C4A15290  11.390  15.142   7.459  0.0412  0.3319 -0.1747
 1078YOPC   C1B15291  11.774  14.455   6.736  0.1550  0.5458 -0.2010
 1078YOPC   C2B15292  11.915  14.392   7.165  0.0011 -0.2459 -0.2121
 1078YOPC   D3B15293  11.785  14.225   7.569 -0.0423 -0.2503  0.0750
 1078YOPC   C4B15294  11.570  14.259   8.013 -0.3456  0.1823  0.1447
 1079YOPC   NC315295   1.199  11.423   5.749  0.3568  0.0322  0.1360
 1079YOPC   PO415296   0.813  11.336   5.528  0.2665 -0.2518 -0.1518
 1079YOPC   GL115297   0.687  11.354   5.931  0.0310  0.2982 -0.1639
 1079YOPC   GL215298   0.593  11.728   5.931 -0.0917  0.0249 -0.1314
 1079YOPC   C1A15299   0.518  11.481   6.346 -0.4181 -0.2146 -0.1447
 1079YOPC   D2A15300   0.726  11.451   6.639 -0.3078 -0.0212 -0.0843
 1079YOPC   C3A15301   0.663  11.289   7.074  0.1954 -0.1305 -0.1716
 1079YOPC   C4A15302   0.566  11.182   7.474 -0.0816 -0.0466 -0.1577
 1079YOPC   C1B15303   0.842  11.874   6.243  0.0745  0.3948 -0.0555
 1079YOPC   C2B15304   0.702  12.001   6.701 -0.0147 -0.0179  0.0396
 1079YOPC   D3B15305   0.540  11.779   7.010  0.0916  0.1244  0.3230
 1079YOPC   C4B15306   0.304  11.606   7.322 -0.1321  0.1204  0.0169
 1080YOPC   NC315307   5.015   1.028   5.045  0.0987 -0.0123 -0.1803
 1080YOPC   PO415308   4.492   1.155   4.958  0.1197  0.0935  0.2667
 1080YOPC   GL115309   4.679   1.203   5.379  0.3296  0.3164 -0.1078
 1080YOPC   GL215310   4.874   0.957   5.579 -0.0583 -0.0016 -0.2294
 1080YOPC   C1A15311   4.579   1.408   5.812 -0.3459 -0.1516 -0.0226
 1080YOPC   D2A15312   4.488   1.253   6.232  0.1615  0.1886 -0.2919
 1080YOPC   C3A15313   4.136   1.465   6.405  0.1338 -0.0938  0.2148
 1080YOPC   C4A15314   3.818   1.810   6.630 -0.1347 -0.1195  0.2480
 1080YOPC   C1B15315   5.040   1.166   5.810  0.1050 -0.1524 -0.0413
 1080YOPC   C2B15316   4.954   1.371   6.178  0.3857  0.0243 -0.3585
 1080YOPC   D3B15317   4.921   1.137   6.604  0.1150 -0.0334 -0.2838
 1080YOPC   C4B15318   4.965   0.908   7.007 -0.2443 -0.1894 -0.0559
 1081YOPC   NC315319  10.984  14.738   5.488 -0.6180  0.1795  0.0051
 1081YOPC   PO415320  11.139  14.664   5.790 -0.2768 -0.0108 -0.0787
 1081YOPC   GL115321  11.104  14.793   6.238  0.0534  0.1174  0.0724
 1081YOPC   GL215322  10.811  14.815   6.354 -0.2793  0.0677 -0.0157
 1081YOPC   C1A15323  11.257  14.629   6.655  0.2935  0.1807  0.0484
 1081YOPC   D2A15324  11.328  14.498   7.086  0.0773  0.0795  0.0834
 1081YOPC   C3A15325  11.393  14.533   7.492  0.1594 -0.0262 -0.1518
 1081YOPC   C4A15326  11.482  14.748   7.930  0.0071  0.1670  0.1155
 1081YOPC   C1B15327  11.028  15.095   6.555 -0.0941  0.1346 -0.3487
 1081YOPC   C2B15328  11.053  15.088   7.044  0.1727 -0.2026  0.2262
 1081YOPC   D3B15329  10.788  15.021   7.400  0.3343 -0.0913  0.1759
 1081YOPC   C4B15330  10.482  15.349   7.556 -0.0005 -0.3935  0.3182
 1082YOPC   NC315331  11.764  12.167   5.796  0.1114 -0.2278  0.1292
 1082YOPC   PO415332  12.192  11.960   5.833 -0.0203  0.1364  0.0007
 1082YOPC   GL115333  12.105  12.053   6.222 -0.1748  0.0587  0.0648
 1082YOPC   GL215334  12.489  12.018   6.294  0.0268  0.1702  0.0540
 1082YOPC   C1A15335  12.144  12.394   6.442  0.1081 -0.3240  0.1505
 1082YOPC   D2A15336  12.102  12.734   6.629 -0.2008  0.2343 -0.2344
 1082YOPC   C3A15337  12.507  12.902   6.801  0.3252 -0.2841  0.4289
 1082YOPC   C4A15338  12.926  12.880   6.775 -0.1074  0.0009 -0.1777
 1082YOPC   C1B15339  12.401  11.781   6.655  0.3958 -0.3187  0.1803
 1082YOPC   C2B15340  12.393  11.748   7.014  0.1011 -0.1454 -0.0081
 1082YOPC   D3B15341  12.620  12.016   7.203  0.0563 -0.0217 -0.0729
 1082YOPC   C4B15342  12.896  11.913   7.548  0.1645 -0.1842 -0.3010
 1083YOPC   NC315343  11.279   0.833   5.398  0.2408  0.1371  0.0456
 1083YOPC   PO415344  11.861   0.689   5.375 -0.0046 -0.0588 -0.0186
 1083YOPC   GL115345  11.692   0.703   5.839 -0.3061 -0.0654  0.4034
 1083YOPC   GL215346  11.648   0.362   6.025 -0.1827 -0.3733  0.2347
 1083YOPC   C1A15347  11.763   0.781   6.253  0.0187  0.1385 -0.0519
 1083YOPC   D2A15348  11.793   1.150   6.522  0.2364  0.5370 -0.0353
 1083YOPC   C3A15349  11.994   1.081   6.927 -0.1184 -0.0359 -0.1583
 1083YOPC   C4A15350  12.261   1.090   7.254  0.0432  0.1696  0.0515
 1083YOPC   C1B15351  11.480   0.375   6.332 -0.1986  0.0915  0.0393
 1083YOPC   C2B15352  11.159   0.412   6.640 -0.0861  0.3347  0.1685
 1083YOPC   D3B15353  11.187   0.514   7.057  0.2338 -0.4278 -0.1929
 1083YOPC   C4B15354  11.537   0.718   7.277  0.0275 -0.0216 -0.2423
 1084YOPC   NC315355  16.674   3.916   5.070 -0.3192 -0.2215 -0.0315
 1084YOPC   PO415356  16.350   4.237   5.184 -0.4069  0.1676 -0.0942
 1084YOPC   GL115357  16.623   4.078   5.651  0.0557  0.0348 -0.0250
 1084YOPC   GL215358  16.643   4.345   5.747  0.0864  0.0747 -0.1653
 1084YOPC   C1A15359  16.727   4.056   6.164 -0.1474  0.0170 -0.0609
 1084YOPC   D2A15360  17.153   4.027   6.317 -0.0808 -0.0911 -0.2292
 1084YOPC   C3A15361  17.303   3.785   6.615  0.0158 -0.2329  0.1827
 1084YOPC   C4A15362  17.612   3.658   6.776  0.2389  0.1061 -0.2245
 1084YOPC   C1B15363  16.846   4.553   6.103 -0.0536  0.0189 -0.0046
 1084YOPC   C2B15364  17.041   4.441   6.573 -0.0617  0.0523  0.0798
 1084YOPC   D3B15365  17.022   4.136   6.887  0.1736  0.2174  0.2481
 1084YOPC   C4B15366  17.098   3.779   7.108  0.0948 -0.1456  0.0282
 1085YOPC   NC315367   4.298   9.720   5.505  0.0498  0.2734 -0.1611
 1085YOPC   PO415368   4.007  10.000   5.520  0.0803 -0.0686 -0.1160
 1085YOPC   GL115369   4.319  10.099   5.884 -0.3205 -0.1287  0.2568
 1085YOPC   GL215370   4.285  10.423   6.052  0.0363  0.0395  0.0342
 1085YOPC   C1A15371   4.240  10.062   6.362  0.4491  0.2529  0.1346
 1085YOPC   D2A15372   4.161  10.162   6.758  0.1387 -0.0448 -0.1253
 1085YOPC   C3A15373   3.705  10.186   6.879 -0.0035  0.4594  0.2705
 1085YOPC   C4A15374   3.312  10.380   6.811  0.0417 -0.0180 -0.0136
 1085YOPC   C1B15375   4.267  10.647   6.437 -0.0770 -0.2468  0.0276
 1085YOPC   C2B15376   4.287  10.740   6.898  0.0225  0.1054 -0.0186
 1085YOPC   D3B15377   4.608  11.062   7.074  0.0478  0.0783  0.2361
 1085YOPC   C4B15378   4.685  11.190   7.520 -0.0872  0.0580 -0.0847
 1086YOPC   NC315379   8.723   2.566   5.393  0.1825 -0.1498  0.3531
 1086YOPC   PO415380   8.665   2.921   5.686  0.1588  0.2333 -0.0892
 1086YOPC   GL115381   8.700   2.939   6.136  0.1522 -0.2699 -0.0181
 1086YOPC   GL215382   8.412   2.911   6.118  0.1021 -0.2903  0.1305
 1086YOPC   C1A15383   8.769   3.016   6.517  0.0693 -0.0786  0.0428
 1086YOPC   D2A15384   8.892   2.956   6.865 -0.0837  0.1559  0.1783
 1086YOPC   C3A15385   8.636   2.990   7.308  0.0531  0.1287 -0.0969
 1086YOPC   C4A15386   8.293   3.082   7.570  0.0429  0.0996 -0.0047
 1086YOPC   C1B15387   8.294   3.085   6.554  0.0521 -0.0500 -0.0913
 1086YOPC   C2B15388   8.368   2.806   6.864  0.0537 -0.0316 -0.0291
 1086YOPC   D3B15389   8.027   2.965   7.091 -0.0369  0.1838 -0.0560
 1086YOPC   C4B15390   7.738   2.937   7.521  0.2448  0.2263  0.1114
 1087YOPC   NC315391  18.162   3.355   5.590  0.3031 -0.1106  0.0812
 1087YOPC   PO415392  18.439   3.721   5.655 -0.0015  0.0174  0.0873
 1087YOPC   GL115393  18.689   3.728   6.013 -0.0976  0.0899  0.0339
 1087YOPC   GL215394  18.949   3.909   6.170  0.1432 -0.1522 -0.1476
 1087YOPC   C1A15395  18.492   3.663   6.368  0.3140 -0.1295  0.0205
 1087YOPC   D2A15396  18.128   3.798   6.560 -0.1304  0.1858  0.0084
 1087YOPC   C3A15397  17.942   3.935   6.917 -0.2467  0.1488 -0.3855
 1087YOPC   C4A15398  17.869   3.902   7.369 -0.1044 -0.2134 -0.1099
 1087YOPC   C1B15399  18.863   3.837   6.608 -0.2438 -0.3991  0.1553
 1087YOPC   C2B15400  18.527   3.832   6.841  0.2923  0.0714  0.2886
 1087YOPC   D3B15401  18.352   3.883   7.284  0.2641  0.0480 -0.3394
 1087YOPC   C4B15402  18.411   4.314   7.436 -0.0739  0.0045 -0.4367
 1088YOPC   NC315403  15.175  11.494   6.318  0.0590 -0.1154 -0.0401
 1088YOPC   PO415404  15.523  11.846   6.315 -0.1522  0.0344 -0.0282
 1088YOPC   GL115405  15.404  11.814   6.709 -0.2839 -0.0957  0.1961
 1088YOPC   GL215406  15.420  12.186   6.717  0.1009 -0.0043 -0.0186
 1088YOPC   C1A15407  15.409  11.658   7.174  0.1274  0.3314 -0.1825
 1088YOPC   D2A15408  15.456  11.636   7.668  0.2446 -0.3706 -0.1339
 1088YOPC   C3A15409  15.700  11.473   7.952 -0.0464 -0.1563  0.0709
 1088YOPC   C4A15410  16.108  11.449   8.023 -0.0923 -0.0884  0.1519
 1088YOPC   C1B15411  15.375  12.310   7.066  0.1510 -0.0510 -0.0125
 1088YOPC   C2B15412  15.158  12.772   7.143 -0.0664  0.3593 -0.5903
 1088YOPC   D3B15413  15.257  12.738   7.584 -0.1047 -0.2356  0.0287
 1088YOPC   C4B15414  15.167  12.849   8.001 -0.2646  0.0643 -0.0166
 1089YOPC   NC315415   2.492   7.458   5.560 -0.1355  0.0702  0.1973
 1089YOPC   PO415416   2.785   7.776   5.492  0.0109  0.0872 -0.3004
 1089YOPC   GL115417   2.994   8.005   5.768 -0.1125 -0.2088 -0.2193
 1089YOPC   GL215418   3.274   7.854   5.958 -0.2106 -0.3061  0.0059
 1089YOPC   C1A15419   2.949   8.374   6.168  0.0059 -0.0360  0.1750
 1089YOPC   D2A15420   2.926   8.823   6.018 -0.0752  0.1044 -0.0052
 1089YOPC   C3A15421   2.858   9.013   6.362 -0.0951  0.3395  0.2998
 1089YOPC   C4A15422   2.718   9.176   6.782  0.0859  0.1671  0.3054
 1089YOPC   C1B15423   3.468   7.611   6.369  0.0740 -0.4081  0.0153
 1089YOPC   C2B15424   3.814   7.719   6.322 -0.1056 -0.0766  0.0188
 1089YOPC   D3B15425   3.951   7.955   6.659  0.0950 -0.0274 -0.0473
 1089YOPC   C4B15426   4.017   7.899   7.113 -0.0285  0.4067  0.3540
 1090YOPC   NC315427  14.140   9.349   5.573 -0.1201  0.1503 -0.0513
 1090YOPC   PO415428  13.971   9.053   5.904 -0.1098  0.1379  0.1169
 1090YOPC   GL115429  13.987   9.044   6.356 -0.2486  0.1275 -0.2118
 1090YOPC   GL215430  13.633   9.224   6.452  0.0614  0.2509 -0.2811
 1090YOPC   C1A15431  13.987   9.229   6.781  0.1343 -0.1636 -0.0039
 1090YOPC   D2A15432  14.082   9.433   7.216  0.0574  0.1218 -0.1864
 1090YOPC   C3A15433  14.351   9.297   7.522  0.0101 -0.0798  0.3623
 1090YOPC   C4A15434  14.861   9.240   7.586  0.2656 -0.1813 -0.2196
 1090YOPC   C1B15435  13.545   8.941   6.806  0.2736 -0.1995  0.1938
 1090YOPC   C2B15436  13.531   8.829   7.354  0.0438 -0.1001  0.2503
 1090YOPC   D3B15437  13.197   9.032   7.700  0.0116  0.0033  0.0578
 1090YOPC   C4B15438  13.174   8.924   8.103  0.0806 -0.0965 -0.4829
 1091YOPC   NC315439   0.598   4.049   4.943 -0.0561  0.0180 -0.1201
 1091YOPC   PO415440   0.472   3.870   5.381 -0.3001  0.0530  0.1084
 1091YOPC   GL115441   0.654   3.884   5.790  0.0395  0.2276 -0.2714
 1091YOPC   GL215442   0.916   3.751   5.899  0.0196  0.0044  0.2992
 1091YOPC   C1A15443   0.630   3.736   6.304  0.1671  0.1762 -0.1627
 1091YOPC   D2A15444   0.667   3.789   6.792  0.0728  0.0822  0.2864
 1091YOPC   C3A15445   0.304   3.904   7.030  0.0648 -0.0331 -0.2400
 1091YOPC   C4A15446  -0.010   4.275   7.084 -0.2083  0.1764  0.0486
 1091YOPC   C1B15447   1.233   3.721   6.214 -0.0425 -0.2104 -0.1920
 1091YOPC   C2B15448   1.166   3.608   6.663  0.1260  0.0740  0.3132
 1091YOPC   D3B15449   1.215   3.928   7.016 -0.0977 -0.3631  0.1111
 1091YOPC   C4B15450   0.901   4.161   7.231  0.0456  0.1496  0.0832
 1092YOPC   NC315451   6.286  17.663   5.383  0.2079  0.1545 -0.0746
 1092YOPC   PO415452   6.464  17.247   5.527  0.0127 -0.4710 -0.1655
 1092YOPC   GL115453   6.265  17.195   5.838 -0.0849  0.0230 -0.1024
 1092YOPC   GL215454   5.962  17.255   5.795  0.0475 -0.1342  0.0311
 1092YOPC   C1A15455   6.338  16.900   6.156 -0.1029 -0.0992  0.1707
 1092YOPC   D2A15456   6.361  16.651   6.462  0.0052  0.1004 -0.4476
 1092YOPC   C3A15457   6.389  16.912   6.894 -0.0371 -0.2542 -0.1028
 1092YOPC   C4A15458   6.542  16.887   7.285  0.0323  0.1358 -0.2649
 1092YOPC   C1B15459   6.103  17.447   6.243  0.1720 -0.1787  0.0467
 1092YOPC   C2B15460   6.489  17.277   6.495 -0.2051  0.4639 -0.2117
 1092YOPC   D3B15461   6.830  16.987   6.381 -0.1358  0.0213  0.3307
 1092YOPC   C4B15462   6.823  16.643   6.141 -0.0809  0.1167  0.1543
 1093YOPC   NC315463   6.938  13.240   5.212  0.0616  0.2069  0.1414
 1093YOPC   PO415464   6.453  13.030   5.163 -0.0650  0.0162  0.4595
 1093YOPC   GL115465   6.337  12.959   5.523  0.0979  0.2178 -0.0250
 1093YOPC   GL215466   6.541  13.124   5.623  0.1640  0.1529 -0.1288
 1093YOPC   C1A15467   6.196  12.864   5.974 -0.0992 -0.0328 -0.0473
 1093YOPC   D2A15468   6.182  13.021   6.390 -0.1346  0.2750  0.0100
 1093YOPC   C3A15469   5.844  13.121   6.704  0.1133  0.0818  0.0683
 1093YOPC   C4A15470   5.639  13.366   7.068  0.1961  0.2921 -0.0433
 1093YOPC   C1B15471   6.500  13.289   6.018 -0.0822 -0.1235  0.2371
 1093YOPC   C2B15472   6.659  13.437   6.418  0.0530  0.0773 -0.2044
 1093YOPC   D3B15473   6.669  13.225   6.783 -0.0572 -0.0160  0.0892
 1093YOPC   C4B15474   6.341  12.950   6.829  0.2147 -0.0776  0.2632
 1094YOPC   NC315475  13.184  10.410   5.474  0.1797  0.3051  0.0161
 1094YOPC   PO415476  13.200  10.583   5.868 -0.1972  0.2487 -0.2948
 1094YOPC   GL115477  13.057  10.302   6.285 -0.0262  0.1645 -0.1575
 1094YOPC   GL215478  13.399  10.171   6.393  0.0722  0.0166  0.0364
 1094YOPC   C1A15479  13.094  10.472   6.588 -0.1235  0.4841 -0.1018
 1094YOPC   D2A15480  13.463  10.454   6.884 -0.1424 -0.0921 -0.3656
 1094YOPC   C3A15481  13.348  10.427   7.297 -0.3250 -0.0221  0.1194
 1094YOPC   C4A15482  13.240  10.294   7.711  0.1193  0.2481 -0.1554
 1094YOPC   C1B15483  13.231  10.036   6.830 -0.0259  0.3937  0.2322
 1094YOPC   C2B15484  13.197   9.941   7.241  0.0141 -0.0824 -0.0322
 1094YOPC   D3B15485  13.144   9.669   7.700  0.0836 -0.2763  0.1553
 1094YOPC   C4B15486  13.192   9.507   8.112 -0.1266 -0.0319  0.0310
 1095YOPC   NC315487   3.294  14.566   5.558 -0.0094 -0.1449  0.1419
 1095YOPC   PO415488   3.432  14.226   5.331 -0.0535  0.0361 -0.1253
 1095YOPC   GL115489   3.656  14.211   5.779  0.1930  0.1100  0.3446
 1095YOPC   GL215490   3.812  14.370   5.803 -0.1520  0.2990  0.1426
 1095YOPC   C1A15491   3.511  14.040   6.268  0.1899  0.0759 -0.0410
 1095YOPC   D2A15492   3.367  13.689   6.384  0.3002  0.0920 -0.0734
 1095YOPC   C3A15493   3.378  13.600   6.803  0.0306  0.0761 -0.0849
 1095YOPC   C4A15494   3.164  13.796   7.064  0.0057 -0.1477 -0.0804
 1095YOPC   C1B15495   4.078  14.483   6.237 -0.0885 -0.0871  0.1774
 1095YOPC   C2B15496   4.035  14.477   6.751 -0.1275  0.0048  0.0086
 1095YOPC   D3B15497   4.248  14.425   7.106  0.4617  0.2235  0.1641
 1095YOPC   C4B15498   4.657  14.192   7.293  0.0615  0.1020 -0.3081
 1096YOPC   NC315499  14.623   5.482   6.043  0.0842 -0.1078  0.2141
 1096YOPC   PO415500  14.637   5.904   6.048 -0.1231 -0.2888 -0.0657
 1096YOPC   GL115501  14.590   6.125   6.340  0.0918  0.1818  0.0704
 1096YOPC   GL215502  14.421   6.097   6.568  0.2883  0.0678  0.2267
 1096YOPC   C1A15503  15.031   6.355   6.457 -0.2525 -0.1551  0.0915
 1096YOPC   D2A15504  15.170   6.735   6.666  0.1090 -0.2959  0.0362
 1096YOPC   C3A15505  15.418   6.732   7.020  0.2011  0.0435  0.1174
 1096YOPC   C4A15506  15.753   7.029   7.070  0.0059 -0.0185 -0.2679
 1096YOPC   C1B15507  14.271   5.827   6.969 -0.1484 -0.2330  0.2273
 1096YOPC   C2B15508  14.179   6.015   7.314  0.0274 -0.0966  0.1410
 1096YOPC   D3B15509  14.420   5.880   7.671  0.1451 -0.2118  0.1148
 1096YOPC   C4B15510  14.511   6.038   8.119  0.2928  0.3722 -0.0308
 1097YOPC   NC315511  12.812   5.439   5.751  0.1929  0.1138 -0.2211
 1097YOPC   PO415512  12.357   5.165   5.724 -0.1371  0.2995 -0.1079
 1097YOPC   GL115513  12.100   5.026   6.118 -0.0602 -0.2726 -0.1854
 1097YOPC   GL215514  12.251   4.814   6.333  0.4343  0.0853  0.1372
 1097YOPC   C1A15515  12.053   5.226   6.592 -0.2475 -0.0061 -0.1229
 1097YOPC   D2A15516  12.014   5.143   6.998  0.1548 -0.0662 -0.0756
 1097YOPC   C3A15517  11.807   5.461   7.151 -0.2082 -0.1110 -0.0661
 1097YOPC   C4A15518  11.493   5.476   7.417  0.1335 -0.2875 -0.0802
 1097YOPC   C1B15519  12.302   4.740   6.771  0.3830 -0.2838  0.0587
 1097YOPC   C2B15520  12.143   4.606   7.152 -0.1905  0.2124  0.2408
 1097YOPC   D3B15521  12.213   4.255   7.413 -0.0196 -0.2334  0.1452
 1097YOPC   C4B15522  12.489   4.237   7.789  0.1545 -0.2236 -0.0645
 1098YOPC   NC315523  17.409   7.231   5.728 -0.1129  0.1868 -0.0566
 1098YOPC   PO415524  17.576   6.894   5.932 -0.3098  0.1977 -0.0639
 1098YOPC   GL115525  17.728   7.035   6.348 -0.0271 -0.2311  0.0805
 1098YOPC   GL215526  18.098   6.976   6.263 -0.2228 -0.0872  0.5539
 1098YOPC   C1A15527  17.849   7.139   6.840  0.2481  0.1103  0.0898
 1098YOPC   D2A15528  18.064   7.273   7.227  0.1084 -0.0567  0.1368
 1098YOPC   C3A15529  17.970   7.602   7.571  0.2593  0.0399  0.3265
 1098YOPC   C4A15530  17.657   7.983   7.823  0.1280 -0.2242  0.2545
 1098YOPC   C1B15531  18.403   7.053   6.615  0.1139 -0.0750  0.3093
 1098YOPC   C2B15532  18.559   7.390   6.827  0.2209 -0.1884 -0.2391
 1098YOPC   D3B15533  18.700   7.284   7.275 -0.0421  0.2083  0.1114
 1098YOPC   C4B15534  18.882   7.279   7.699  0.2095  0.1847 -0.2668
 1099YOPC   NC315535   6.697  18.151   4.909  0.4399  0.2087 -0.2441
 1099YOPC   PO415536   6.395  18.142   5.333 -0.1654 -0.0921  0.4780
 1099YOPC   GL115537   6.522  17.997   5.746 -0.1730  0.0957  0.0611
 1099YOPC   GL215538   6.520  17.631   5.852 -0.3613 -0.2116 -0.0850
 1099YOPC   C1A15539   6.891  18.087   6.036 -0.1692 -0.0180 -0.1914
 1099YOPC   D2A15540   7.231  18.410   6.072 -0.0132 -0.3047 -0.1573
 1099YOPC   C3A15541   7.247  18.792   6.307  0.0363 -0.2395 -0.1109
 1099YOPC   C4A15542   7.417  18.922   6.678  0.0397 -0.0914 -0.0594
 1099YOPC   C1B15543   6.457  17.917   6.207  0.3074  0.1543  0.2042
 1099YOPC   C2B15544   6.485  18.235   6.377 -0.1633  0.0603 -0.0088
 1099YOPC   D3B15545   6.059  18.278   6.607  0.0033  0.0585  0.1374
 1099YOPC   C4B15546   6.070  18.368   7.017  0.0715  0.0895 -0.2086
 1100YOPC   NC315547   8.594   7.361   5.700 -0.0987  0.0206  0.3224
 1100YOPC   PO415548   8.628   7.844   5.737 -0.0104 -0.1616  0.0126
 1100YOPC   GL115549   8.788   7.647   6.169 -0.1831 -0.0665  0.1684
 1100YOPC   GL215550   8.830   8.018   6.310 -0.1606 -0.1040  0.0307
 1100YOPC   C1A15551   8.954   7.409   6.517 -0.3026 -0.1796 -0.0517
 1100YOPC   D2A15552   8.938   7.030   6.806  0.1890  0.1276 -0.0901
 1100YOPC   C3A15553   8.859   7.082   7.171  0.0571 -0.1255  0.0865
 1100YOPC   C4A15554   8.683   7.143   7.570  0.0806  0.0809 -0.0307
 1100YOPC   C1B15555   8.779   7.844   6.721  0.1492 -0.1917 -0.1329
 1100YOPC   C2B15556   8.810   7.524   7.068  0.0999  0.1468  0.2052
 1100YOPC   D3B15557   9.008   7.522   7.519 -0.0416  0.0025 -0.0073
 1100YOPC   C4B15558   9.433   7.381   7.623  0.2064  0.1613  0.1718
 1101YOPC   NC315559   8.943   9.392   5.526 -0.0303 -0.3676  0.5420
 1101YOPC   PO415560   8.695   9.622   5.658  0.0327  0.0543 -0.0871
 1101YOPC   GL115561   8.703   9.625   6.060  0.0299  0.0426  0.1983
 1101YOPC   GL215562   8.380   9.449   6.193 -0.3332 -0.0991 -0.0041
 1101YOPC   C1A15563   8.806   9.954   6.393  0.0886 -0.0923  0.0433
 1101YOPC   D2A15564   8.895  10.319   6.706 -0.1061 -0.1687 -0.0737
 1101YOPC   C3A15565   8.562  10.324   6.828  0.1804 -0.1502 -0.1123
 1101YOPC   C4A15566   8.120  10.194   6.600  0.2872 -0.1779  0.1137
 1101YOPC   C1B15567   8.329   9.720   6.572 -0.2942 -0.2117 -0.0300
 1101YOPC   C2B15568   8.297   9.766   6.968  0.0347 -0.1304 -0.1011
 1101YOPC   D3B15569   8.111  10.186   7.090  0.1260 -0.2780 -0.2523
 1101YOPC   C4B15570   8.037  10.622   6.999 -0.0196 -0.1755  0.1099
 1102YOPC   NC315571   5.181   6.731   5.379 -0.0235  0.0635 -0.1921
 1102YOPC   PO415572   5.598   6.655   5.456 -0.3414  0.2182  0.5940
 1102YOPC   GL115573   5.626   6.322   5.812  0.1100 -0.0043  0.0802
 1102YOPC   GL215574   5.468   6.050   5.717  0.0609 -0.0545 -0.0423
 1102YOPC   C1A15575   5.717   6.013   6.157  0.1297 -0.0586  0.0624
 1102YOPC   D2A15576   5.912   6.057   6.535  0.1422 -0.0297 -0.0635
 1102YOPC   C3A15577   5.880   5.982   6.935 -0.3272 -0.1535  0.1823
 1102YOPC   C4A15578   6.113   5.795   7.193 -0.0398  0.1837 -0.3334
 1102YOPC   C1B15579   5.347   5.667   5.912 -0.3285  0.0541 -0.1763
 1102YOPC   C2B15580   5.466   5.318   6.224  0.1184  0.2706 -0.1269
 1102YOPC   D3B15581   5.309   5.318   6.724 -0.0495  0.0286 -0.1474
 1102YOPC   C4B15582   4.887   5.282   6.939  0.1870  0.1792  0.2493
 1103ERGO   ROH15583   0.593  14.239   6.062  0.0927 -0.1055 -0.2589
 1103ERGO    R115584   0.581  14.116   6.317  0.0923 -0.1858 -0.2978
 1103ERGO    R215585   0.751  13.911   6.392  0.4427  0.1371 -0.1839
 1103ERGO    R315586   0.805  14.076   6.601 -0.0917  0.2085 -0.0881
 1103ERGO    R415587   0.928  13.821   6.674  0.2801  0.4061  0.0090
 1103ERGO    R515588   0.787  13.936   6.794 -0.0701  0.1430 -0.1318
 1103ERGO    C115589   1.082  13.923   7.036 -0.3162  0.6297  0.2113
 1103ERGO    C215590   1.268  13.721   7.456 -0.0737  0.1474 -0.0996
 1104ERGO   ROH15591   3.380  10.667   5.850 -0.1062  0.0330  0.1148
 1104ERGO    R115592   3.220  10.762   6.064 -0.0576  0.0803  0.1311
 1104ERGO    R215593   3.264  10.689   6.327 -0.0952  0.0127  0.1226
 1104ERGO    R315594   3.274  10.958   6.366  0.0462  0.0020  0.1629
 1104ERGO    R415595   3.140  10.853   6.605 -0.1827  0.0592  0.0557
 1104ERGO    R515596   3.066  11.010   6.473  0.0069  0.1210  0.0257
 1104ERGO    C115597   3.076  11.201   6.803 -0.1010  0.0761  0.0545
 1104ERGO    C215598   3.183  11.357   6.994 -0.1725  0.1375 -0.4476
 1105ERGO   ROH15599   9.236   3.837   9.484 -0.2627  0.1825 -0.0417
 1105ERGO    R115600   9.359   3.798   9.233 -0.0669  0.3094  0.0321
 1105ERGO    R215601   9.278   3.602   9.056  0.3523  0.1112  0.0500
 1105ERGO    R315602   9.257   3.810   8.883  0.0847  0.0251 -0.0256
 1105ERGO    R415603   9.380   3.595   8.726  0.5761  0.1870  0.1155
 1105ERGO    R515604   9.456   3.798   8.751  0.1984  0.3397  0.1049
 1105ERGO    C115605   9.419   3.786   8.371  0.4552  0.1502  0.0826
 1105ERGO    C215606   9.618   3.767   8.036 -0.0287 -0.0906  0.0687
 1106ERGO   ROH15607   8.270   2.417   5.941  0.1830  0.0952 -0.0809
 1106ERGO    R115608   8.189   2.365   6.206  0.1098 -0.0061 -0.1233
 1106ERGO    R215609   8.190   2.559   6.403  0.1369 -0.1036 -0.0305
 1106ERGO    R315610   7.930   2.486   6.432  0.1046 -0.0272 -0.1166
 1106ERGO    R415611   7.974   2.688   6.640  0.1110 -0.0682 -0.0726
 1106ERGO    R515612   7.894   2.488   6.669  0.0390 -0.0501 -0.1243
 1106ERGO    C115613   7.604   2.696   6.805  0.0656  0.0242 -0.1778
 1106ERGO    C215614   7.269   2.642   7.027 -0.1757  0.0383 -0.0991
 1107ERGO   ROH15615  14.097   6.512   6.360  0.0972 -0.0036  0.0201
 1107ERGO    R115616  13.989   6.545   6.619  0.0249  0.1160 -0.0242
 1107ERGO    R215617  14.058   6.382   6.831 -0.2934 -0.0062 -0.0088
 1107ERGO    R315618  14.118   6.618   6.952 -0.0207 -0.0978  0.0411
 1107ERGO    R415619  13.968   6.467   7.154 -0.1905  0.0293  0.0104
 1107ERGO    R515620  13.924   6.668   7.083  0.0381  0.0967  0.0546
 1107ERGO    C115621  13.973   6.738   7.455  0.1253 -0.0361  0.0685
 1107ERGO    C215622  13.935   6.790   7.741 -0.2750 -0.0847 -0.3547
 1108ERGO   ROH15623  17.580  15.092   6.344 -0.0261 -0.1578  0.0448
 1108ERGO    R115624  17.600  15.295   6.540 -0.0367 -0.2100  0.1017
 1108ERGO    R215625  17.673  15.242   6.801  0.1104 -0.2599  0.0585
 1108ERGO    R315626  17.862  15.431   6.753 -0.0044 -0.1545  0.0234
 1108ERGO    R415627  17.895  15.363   7.036 -0.0102 -0.0106  0.0464
 1108ERGO    R515628  17.867  15.563   6.953 -0.1243 -0.0688 -0.0356
 1108ERGO    C115629  18.202  15.611   7.128 -0.1881  0.2335  0.0066
 1108ERGO    C215630  18.406  15.578   7.400 -0.2622 -0.0811 -0.0575
 1109ERGO   ROH15631  10.586  15.842   7.769 -0.0510  0.0519 -0.1737
 1109ERGO    R115632  10.623  15.638   7.962 -0.0697  0.1388 -0.0770
 1109ERGO    R215633  10.428  15.571   8.147 -0.1286  0.1516 -0.1318
 1109ERGO    R315634  10.464  15.321   8.045 -0.0080  0.1231 -0.0204
 1109ERGO    R415635  10.342  15.277   8.308 -0.2553  0.1928 -0.1236
 1109ERGO    R515636  10.527  15.189   8.234 -0.1764  0.1865  0.0807
 1109ERGO    C115637  10.326  14.872   8.307 -0.2160  0.1900 -0.0142
 1109ERGO    C215638  10.329  14.570   8.518  0.2910 -0.0089 -0.1933
 1110ERGO   ROH15639   7.754   9.821   6.300 -0.2317 -0.2829  0.0234
 1110ERGO    R115640   7.684   9.696   6.544 -0.0480 -0.0917  0.1773
 1110ERGO    R215641   7.709   9.822   6.788 -0.3328  0.2896  0.0160
 1110ERGO    R315642   7.446   9.756   6.813 -0.2227 -0.1724  0.0447
 1110ERGO    R415643   7.548   9.762   7.088 -0.3201  0.6214  0.0941
 1110ERGO    R515644   7.442   9.597   6.993  0.0303  0.1912  0.3947
 1110ERGO    C115645   7.208   9.664   7.286 -0.2093  0.3809  0.1664
 1110ERGO    C215646   6.928   9.771   7.627 -0.3705 -0.3886  0.0351
 1111ERGO   ROH15647  10.686   2.438   9.743  0.0628  0.0471 -0.0497
 1111ERGO    R115648  10.649   2.418   9.463  0.2194  0.0598 -0.0724
 1111ERGO    R215649  10.428   2.523   9.334  0.1324 -0.2068 -0.1530
 1111ERGO    R315650  10.616   2.650   9.184  0.0375  0.0821 -0.0320
 1111ERGO    R415651  10.388   2.618   9.004  0.1878 -0.2246 -0.1643
 1111ERGO    R515652  10.593   2.555   8.966  0.2999  0.0745 -0.0563
 1111ERGO    C115653  10.541   2.792   8.672  0.1308  0.0364 -0.0574
 1111ERGO    C215654  10.636   2.897   8.431 -0.0374 -0.3141  0.1278
 1112ERGO   ROH15655   9.866  13.090   6.152  0.0981  0.1360  0.1297
 1112ERGO    R115656   9.720  12.981   6.369  0.1013  0.0034  0.0666
 1112ERGO    R215657   9.839  12.826   6.565  0.1569  0.1019  0.1116
 1112ERGO    R315658   9.728  13.009   6.732 -0.0738  0.0019  0.0715
 1112ERGO    R415659   9.840  12.806   6.910  0.0893  0.1227  0.1129
 1112ERGO    R515660   9.635  12.879   6.911  0.0110 -0.0838  0.0553
 1112ERGO    C115661   9.737  12.967   7.268 -0.1666  0.0408  0.0762
 1112ERGO    C215662   9.641  13.141   7.542 -0.0327  0.0417 -0.4035
 1113ERGO   ROH15663   7.482   4.194   5.629  0.0049  0.1215  0.0726
 1113ERGO    R115664   7.517   4.321   5.880 -0.1264  0.1147  0.0952
 1113ERGO    R215665   7.314   4.339   6.067 -0.1511 -0.1195  0.0958
 1113ERGO    R315666   7.498   4.223   6.230 -0.0369  0.0346  0.0777
 1113ERGO    R415667   7.298   4.338   6.412 -0.1571 -0.2020  0.0952
 1113ERGO    R515668   7.514   4.373   6.417 -0.1916  0.0148  0.1065
 1113ERGO    C115669   7.462   4.229   6.766 -0.0535 -0.1055  0.0780
 1113ERGO    C215670   7.467   4.024   7.070  0.0426 -0.0956  0.0415
 1114ERGO   ROH15671  10.139  10.867   6.373  0.3383  0.0571 -0.0838
 1114ERGO    R115672  10.246  11.012   6.591  0.2333 -0.1374  0.1011
 1114ERGO    R215673  10.161  11.267   6.656  0.6159  0.0477 -0.0889
 1114ERGO    R315674  10.120  11.155   6.901 -0.0625  0.1425 -0.1417
 1114ERGO    R415675  10.176  11.437   6.956  0.6359  0.0065 -0.0665
 1114ERGO    R515676  10.277  11.265   7.044  0.0407 -0.2886  0.0940
 1114ERGO    C115677  10.145  11.432   7.360  0.0107  0.0715 -0.1030
 1114ERGO    C215678  10.258  11.795   7.533  0.0046 -0.1629 -0.1956
 1115ERGO   ROH15679   3.745  18.608   5.826  0.0252 -0.0216 -0.0294
 1115ERGO    R115680   3.783  18.483   6.077  0.1280 -0.0235 -0.0466
 1115ERGO    R215681   3.952  18.268   6.113  0.2483  0.0713 -0.0908
 1115ERGO    R315682   4.060  18.426   6.306  0.1898  0.1071 -0.0848
 1115ERGO    R415683   3.988  18.178   6.445  0.0036  0.1737 -0.0331
 1115ERGO    R515684   3.929  18.380   6.501  0.0423  0.2264 -0.1468
 1115ERGO    C115685   4.111  18.274   6.819 -0.1938  0.2669  0.0061
 1115ERGO    C215686   4.374  18.109   7.118 -0.0877 -0.0676 -0.1523
 1116ERGO   ROH15687   9.334  13.591   9.631 -0.1299 -0.3174 -0.0833
 1116ERGO    R115688   9.473  13.601   9.384  0.0481 -0.0563  0.0244
 1116ERGO    R215689   9.355  13.535   9.144  0.3460 -0.2432 -0.0724
 1116ERGO    R315690   9.442  13.782   9.070 -0.0198 -0.0804  0.0158
 1116ERGO    R415691   9.402  13.638   8.817  0.5628 -0.2024 -0.0304
 1116ERGO    R515692   9.583  13.741   8.881  0.3033  0.1521  0.1925
 1116ERGO    C115693   9.510  13.930   8.558  0.3457 -0.0259  0.0767
 1116ERGO    C215694   9.531  13.890   8.270 -0.0850  0.2964  0.3271
 1117ERGO   ROH15695   2.052  16.536   5.974  0.0856  0.1224  0.2554
 1117ERGO    R115696   1.858  16.450   6.161  0.0080  0.0567  0.1463
 1117ERGO    R215697   1.634  16.599   6.223  0.0342  0.0837  0.1830
 1117ERGO    R315698   1.502  16.371   6.156 -0.0146  0.1653 -0.0046
 1117ERGO    R415699   1.325  16.507   6.347  0.1616 -0.1082  0.3640
 1117ERGO    R515700   1.398  16.302   6.361  0.1917 -0.1256  0.0072
 1117ERGO    C115701   1.021  16.239   6.357  0.1899 -0.1434  0.2933
 1117ERGO    C215702   0.727  16.254   6.181  0.0892  0.1334  0.0704
 1118ERGO   ROH15703   3.274   1.506   5.628  0.1389 -0.1716  0.0750
 1118ERGO    R115704   3.332   1.380   5.875  0.4676 -0.1042  0.0380
 1118ERGO    R215705   3.542   1.458   6.035  0.2379  0.4574  0.1023
 1118ERGO    R315706   3.348   1.479   6.224  0.1219 -0.1699  0.0737
 1118ERGO    R415707   3.600   1.478   6.376  0.1098  0.6390  0.1144
 1118ERGO    R515708   3.428   1.346   6.407  0.5187  0.0785  0.0832
 1118ERGO    C115709   3.451   1.509   6.751 -0.0737  0.1559  0.0946
 1118ERGO    C215710   3.578   1.530   7.096  0.2352  0.1063  0.2445
 1119ERGO   ROH15711   8.217   9.436   9.651 -0.0750  0.1563  0.0852
 1119ERGO    R115712   8.247   9.389   9.373  0.0383  0.2368  0.0821
 1119ERGO    R215713   8.093   9.205   9.236  0.2569  0.0965  0.0093
 1119ERGO    R315714   8.038   9.418   9.076  0.0724  0.0747  0.0432
 1119ERGO    R415715   8.052   9.189   8.893  0.0141  0.0858  0.0382
 1119ERGO    R515716   8.163   9.376   8.876 -0.0615  0.1173 -0.0459
 1119ERGO    C115717   7.976   9.380   8.544 -0.3004  0.0590  0.0872
 1119ERGO    C215718   7.832   9.233   8.352 -0.0119  0.0314 -0.1424
 1120ERGO   ROH15719   0.090  12.535   6.153 -0.3163 -0.1812  0.0269
 1120ERGO    R115720   0.158  12.489   6.424 -0.2492 -0.0134  0.0398
 1120ERGO    R215721   0.418  12.505   6.517 -0.1894 -0.1976 -0.0880
 1120ERGO    R315722   0.309  12.679   6.695  0.0640  0.0749 -0.1905
 1120ERGO    R415723   0.474  12.499   6.858 -0.2280 -0.0975 -0.0793
 1120ERGO    R515724   0.262  12.545   6.888 -0.1635  0.2500 -0.1188
 1120ERGO    C115725   0.404  12.658   7.224 -0.0126  0.2166 -0.1704
 1120ERGO    C215726   0.567  12.595   7.577  0.2465  0.0396 -0.1660
 1121ERGO   ROH15727   4.000  16.070   5.926  0.1432  0.0428  0.0125
 1121ERGO    R115728   3.918  16.159   6.182  0.0111 -0.0192 -0.0086
 1121ERGO    R215729   3.996  16.034   6.415 -0.0773 -0.0490 -0.0009
 1121ERGO    R315730   4.080  16.284   6.483 -0.1497 -0.0480  0.0930
 1121ERGO    R415731   4.054  16.143   6.738  0.2981 -0.2933  0.0213
 1121ERGO    R515732   3.963  16.334   6.685  0.0915 -0.3010  0.3071
 1121ERGO    C115733   4.167  16.441   6.989  0.4486 -0.4341  0.1223
 1121ERGO    C215734   4.175  16.500   7.388  0.0692 -0.1712  0.1207
 1122ERGO   ROH15735   9.791  16.261   6.017  0.1252 -0.1254 -0.0290
 1122ERGO    R115736   9.889  16.427   6.225  0.1045 -0.1101 -0.0308
 1122ERGO    R215737   9.758  16.656   6.307  0.1249 -0.0708 -0.0987
 1122ERGO    R315738   9.774  16.538   6.552  0.0425 -0.0380 -0.0775
 1122ERGO    R415739   9.735  16.822   6.610  0.1997 -0.0102 -0.1265
 1122ERGO    R515740   9.894  16.695   6.686  0.1215 -0.0856 -0.0956
 1122ERGO    C115741   9.737  16.808   7.015  0.1661  0.0558 -0.1227
 1122ERGO    C215742   9.616  16.757   7.200  0.1525  0.1069  0.0604
 1123ERGO   ROH15743  16.258   1.719   6.187  0.2539  0.0860 -0.0595
 1123ERGO    R115744  16.197   1.650   6.454  0.1112  0.1807 -0.0679
 1123ERGO    R215745  16.310   1.432   6.581 -0.1350  0.0905 -0.0089
 1123ERGO    R315746  16.379   1.617   6.767 -0.0090  0.0467 -0.0093
 1123ERGO    R415747  16.398   1.361   6.908  0.1870 -0.0023 -0.1109
 1123ERGO    R515748  16.284   1.536   6.971  0.1977 -0.0491  0.0544
 1123ERGO    C115749  16.514   1.494   7.273  0.4924 -0.0975 -0.1707
 1123ERGO    C215750  16.622   1.337   7.464 -0.2103 -0.4257 -0.1485
 1124ERGO   ROH15751   9.887   8.738   6.408 -0.1901 -0.4383 -0.2861
 1124ERGO    R115752   9.736   8.573   6.581 -0.1208 -0.3022 -0.0920
 1124ERGO    R215753   9.715   8.300   6.546 -0.1368 -0.3339  0.1330
 1124ERGO    R315754   9.802   8.292   6.803 -0.0306 -0.1275  0.1051
 1124ERGO    R415755   9.608   8.073   6.784  0.0299 -0.2003  0.3388
 1124ERGO    R515756   9.607   8.234   6.930  0.0402 -0.0989  0.2255
 1124ERGO    C115757   9.627   7.934   7.164  0.2268  0.0714  0.4325
 1124ERGO    C215758   9.524   7.736   7.358 -0.1908 -0.1680  0.0552
 1125ERGO   ROH15759   7.054  13.150   5.923 -0.0448  0.0753 -0.1134
 1125ERGO    R115760   7.075  13.240   6.191 -0.0122  0.1841 -0.1529
 1125ERGO    R215761   7.063  13.069   6.407 -0.1602  0.2925 -0.0775
 1125ERGO    R315762   7.300  13.187   6.472 -0.0835  0.1540 -0.1000
 1125ERGO    R415763   7.187  13.100   6.728 -0.1396  0.2601 -0.0818
 1125ERGO    R515764   7.255  13.301   6.678 -0.0126  0.2139 -0.1142
 1125ERGO    C115765   7.481  13.228   6.976 -0.0557  0.1114 -0.1054
 1125ERGO    C215766   7.670  13.183   7.339 -0.1125 -0.2710  0.0691
 1126ERGO   ROH15767   9.872   0.366   9.177  0.0845  0.1396 -0.0901
 1126ERGO    R115768   9.912   0.395   8.898  0.1245  0.0038 -0.0989
 1126ERGO    R215769  10.052   0.210   8.747 -0.0396 -0.1787 -0.0254
 1126ERGO    R315770   9.825   0.209   8.598 -0.0335 -0.0232 -0.0386
 1126ERGO    R415771  10.042   0.198   8.402 -0.0194 -0.2122 -0.0253
 1126ERGO    R515772   9.879   0.342   8.406  0.0854 -0.0832 -0.0519
 1126ERGO    C115773   9.824   0.190   8.061 -0.0019 -0.0858 -0.0376
 1126ERGO    C215774   9.692   0.131   7.688 -0.2278 -0.0845  0.1951
 1127ERGO   ROH15775   0.397   1.352   6.444  0.0072  0.1069 -0.1956
 1127ERGO    R115776   0.583   1.465   6.624 -0.1535  0.0644  0.0008
 1127ERGO    R215777   0.746   1.677   6.556  0.1317 -0.1223  0.0885
 1127ERGO    R315778   0.638   1.790   6.778 -0.0979  0.1222 -0.1389
 1127ERGO    R415779   0.925   1.848   6.797 -0.0390 -0.2445  0.3064
 1127ERGO    R515780   0.802   1.753   6.949 -0.4228 -0.0162  0.1555
 1127ERGO    C115781   0.928   2.054   7.146 -0.3540 -0.0860  0.2197
 1127ERGO    C215782   1.030   2.237   7.502 -0.3090 -0.1583  0.1853
 1128ERGO   ROH15783  11.895   1.439   9.519  0.2278  0.1568 -0.2325
 1128ERGO    R115784  12.009   1.337   9.281  0.1340  0.0282 -0.2238
 1128ERGO    R215785  12.023   1.066   9.227  0.0228  0.0012 -0.1297
 1128ERGO    R315786  11.895   1.138   8.998 -0.0070 -0.0348 -0.1240
 1128ERGO    R415787  12.012   0.876   8.938 -0.0203 -0.0462 -0.0964
 1128ERGO    R515788  12.038   1.059   8.823 -0.0330 -0.0665 -0.1301
 1128ERGO    C115789  11.886   0.833   8.555 -0.0733 -0.1077 -0.0717
 1128ERGO    C215790  11.763   0.749   8.163  0.0458  0.0592  0.2568
 1129ERGO   ROH15791  12.277   8.407   6.682 -0.0272  0.0659 -0.0268
 1129ERGO    R115792  12.157   8.451   6.935  0.0100  0.0657 -0.0095
 1129ERGO    R215793  11.961   8.286   7.037  0.0342  0.0606  0.0229
 1129ERGO    R315794  12.130   8.271   7.250  0.0653  0.0716 -0.0006
 1129ERGO    R415795  11.864   8.227   7.364  0.0813  0.0367  0.0329
 1129ERGO    R515796  12.010   8.375   7.429  0.0750  0.0525  0.0194
 1129ERGO    C115797  11.966   8.178   7.753  0.1379  0.0331  0.0169
 1129ERGO    C215798  11.747   8.077   8.095 -0.2037  0.1589 -0.1596
 1130ERGO   ROH15799  18.381   6.541   6.262 -0.3394 -0.3151 -0.1654
 1130ERGO    R115800  18.452   6.397   6.496 -0.1588 -0.4634 -0.3096
 1130ERGO    R215801  18.402   6.493   6.750  0.4365 -0.4140 -0.2002
 1130ERGO    R315802  18.278   6.253   6.780  0.0983 -0.2251 -0.0229
 1130ERGO    R415803  18.338   6.341   7.054 -0.1651  0.0867 -0.0550
 1130ERGO    R515804  18.392   6.150   6.964 -0.2721 -0.1158  0.2853
 1130ERGO    C115805  18.184   6.027   7.259 -0.8326  0.5555  0.1958
 1130ERGO    C215806  18.164   5.957   7.517  0.2281 -0.2205 -0.2361
 1131ERGO   ROH15807  11.629  12.126   6.264  0.0951  0.0499 -0.0950
 1131ERGO    R115808  11.686  12.040   6.527 -0.0232 -0.0051 -0.0863
 1131ERGO    R215809  11.870  11.842   6.583 -0.1163 -0.0830 -0.0503
 1131ERGO    R315810  11.978  12.031   6.745 -0.0966 -0.1436  0.0074
 1131ERGO    R415811  11.889  11.819   6.927 -0.2710 -0.1144 -0.0434
 1131ERGO    R515812  11.837  12.031   6.939 -0.1781 -0.0914 -0.0517
 1131ERGO    C115813  12.001  11.984   7.280 -0.3426 -0.1896  0.0148
 1131ERGO    C215814  12.319  11.991   7.593 -0.0856 -0.3281 -0.0765
 1132ERGO   ROH15815  14.376  10.185   6.626 -0.1795 -0.1801  0.1031
 1132ERGO    R115816  14.584  10.216   6.815 -0.1427 -0.1793  0.0624
 1132ERGO    R215817  14.584  10.416   7.005 -0.0441 -0.1013 -0.0188
 1132ERGO    R315818  14.616  10.208   7.177 -0.0971 -0.0434  0.0621
 1132ERGO    R415819  14.741  10.436   7.313 -0.0491 -0.0192 -0.0212
 1132ERGO    R515820  14.833  10.242   7.273 -0.0917 -0.0562  0.0554
 1132ERGO    C115821  14.862  10.252   7.653 -0.1016  0.0831  0.0534
 1132ERGO    C215822  14.961  10.283   8.017  0.0536 -0.2530 -0.2038
 1133ERGO   ROH15823   5.379   3.128   5.805 -0.1936  0.0564  0.0687
 1133ERGO    R115824   5.331   3.189   6.077 -0.1106 -0.0774  0.1147
 1133ERGO    R215825   5.467   3.065   6.283  0.0321 -0.1008  0.0090
 1133ERGO    R315826   5.525   3.321   6.356 -0.0562 -0.1034  0.0894
 1133ERGO    R415827   5.571   3.162   6.598  0.0781 -0.1777  0.0175
 1133ERGO    R515828   5.444   3.339   6.580 -0.0020 -0.2237  0.1194
 1133ERGO    C115829   5.686   3.459   6.850  0.0221 -0.2249  0.0978
 1133ERGO    C215830   5.793   3.707   7.145  0.1107 -0.0558 -0.1294
 1134ERGO   ROH15831   5.107   4.300   5.614 -0.0912  0.0637  0.0978
 1134ERGO    R115832   5.104   4.434   5.864  0.3075 -0.0131  0.1498
 1134ERGO    R215833   4.882   4.437   6.028  0.3194  0.5459  0.1669
 1134ERGO    R315834   5.057   4.341   6.212  0.0807 -0.0195  0.1204
 1134ERGO    R415835   4.857   4.487   6.369  0.5303  0.5912  0.1771
 1134ERGO    R515836   5.073   4.515   6.376  0.6428 -0.0650  0.1385
 1134ERGO    C115837   5.007   4.426   6.741  0.4289  0.0868  0.1394
 1134ERGO    C215838   5.076   4.442   7.103  0.0964  0.4045  0.3016
 1135ERGO   ROH15839   1.455  17.943   6.000  0.1768  0.0262 -0.1791
 1135ERGO    R115840   1.586  18.002   6.245  0.0787 -0.0044 -0.1193
 1135ERGO    R215841   1.600  17.821   6.453  0.0550 -0.0546 -0.1648
 1135ERGO    R315842   1.867  17.868   6.433  0.0511  0.0207 -0.0581
 1135ERGO    R415843   1.820  17.825   6.719 -0.0073 -0.2952 -0.1063
 1135ERGO    R515844   1.920  17.996   6.628 -0.0193 -0.1738  0.0951
 1135ERGO    C115845   2.199  17.872   6.855 -0.0473 -0.3645  0.0278
 1135ERGO    C215846   2.356  17.709   6.987  0.0500  0.2643  0.0425
 1136ERGO   ROH15847   8.028  14.138   5.949  0.2330  0.0560 -0.0690
 1136ERGO    R115848   7.960  14.178   6.221  0.2065 -0.0140 -0.0630
 1136ERGO    R215849   7.878  13.971   6.386 -0.0201 -0.0327 -0.1726
 1136ERGO    R315850   8.080  14.061   6.544  0.0355 -0.2855 -0.0984
 1136ERGO    R415851   7.855  14.023   6.727 -0.1251  0.2166 -0.2170
 1136ERGO    R515852   7.973  14.205   6.702  0.1961 -0.0077 -0.2501
 1136ERGO    C115853   8.031  14.138   7.073 -0.1342  0.1243 -0.1733
 1136ERGO    C215854   8.049  14.028   7.437 -0.0126 -0.2671 -0.0305
 1137ERGO   ROH15855   5.702   7.541   5.769  0.2657 -0.2620 -0.1418
 1137ERGO    R115856   5.747   7.642   6.030  0.1575 -0.1538 -0.1646
 1137ERGO    R215857   5.543   7.680   6.212  0.0990 -0.1956 -0.2257
 1137ERGO    R315858   5.698   7.524   6.371  0.1408 -0.0649 -0.1351
 1137ERGO    R415859   5.504   7.648   6.554 -0.1423 -0.2998 -0.2604
 1137ERGO    R515860   5.721   7.650   6.573 -0.1537 -0.0739 -0.0880
 1137ERGO    C115861   5.627   7.482   6.902 -0.2436 -0.2378 -0.1955
 1137ERGO    C215862   5.389   7.499   7.161 -0.1674 -0.0990 -0.0941
 1138ERGO   ROH15863  11.931  17.615   5.944 -0.0283  0.1610 -0.0506
 1138ERGO    R115864  12.152  17.584   6.118 -0.0034  0.1237 -0.0885
 1138ERGO    R215865  12.230  17.780   6.297 -0.0970  0.0110  0.0816
 1138ERGO    R315866  12.207  17.579   6.478  0.0144 -0.1627 -0.0935
 1138ERGO    R415867  12.353  17.790   6.620 -0.3026 -0.1122  0.1652
 1138ERGO    R515868  12.414  17.582   6.597 -0.0598 -0.0283  0.0329
 1138ERGO    C115869  12.402  17.607   6.978 -0.3176 -0.3469  0.0496
 1138ERGO    C215870  12.411  17.791   7.133 -0.1674 -0.1870  0.0935
 1139ERGO   ROH15871  10.557   9.785   6.521 -0.0235  0.1500 -0.0716
 1139ERGO    R115872  10.553   9.839   6.799 -0.0703 -0.1229 -0.0170
 1139ERGO    R215873  10.464  10.079   6.903  0.2773 -0.0722  0.1765
 1139ERGO    R315874  10.301   9.918   7.049 -0.0683  0.0445 -0.0663
 1139ERGO    R415875  10.300  10.174   7.192  0.0587 -0.0087  0.0346
 1139ERGO    R515876  10.346   9.979   7.277 -0.2512 -0.0978  0.0113
 1139ERGO    C115877  10.051  10.079   7.498 -0.3928  0.1379 -0.2760
 1139ERGO    C215878   9.638  10.135   7.503 -0.2314  0.1733  0.2018
 1140ERGO   ROH15879   4.541  15.330   5.812  0.2520  0.2293 -0.2126
 1140ERGO    R115880   4.635  15.352   6.079 -0.0851  0.1778 -0.0845
 1140ERGO    R215881   4.886  15.449   6.141  0.0092 -0.2357  0.2227
 1140ERGO    R315882   4.746  15.620   6.299  0.0754  0.0869 -0.0493
 1140ERGO    R415883   5.022  15.635   6.398 -0.0186 -0.3862  0.3464
 1140ERGO    R515884   4.843  15.592   6.516 -0.2855 -0.0179  0.1107
 1140ERGO    C115885   4.970  15.904   6.697  0.0272 -0.1709  0.1631
 1140ERGO    C215886   5.283  16.007   6.922 -0.2993  0.0020  0.0153
 1141ERGO   ROH15887  11.619   4.983   6.236 -0.2690  0.0185 -0.0153
 1141ERGO    R115888  11.607   5.010   6.517 -0.2223 -0.0758 -0.0028
 1141ERGO    R215889  11.516   5.240   6.641  0.0017 -0.0294  0.0933
 1141ERGO    R315890  11.348   5.067   6.766 -0.1536  0.0762  0.0324
 1141ERGO    R415891  11.394   5.281   6.962  0.0512 -0.0530  0.1143
 1141ERGO    R515892  11.422   5.067   6.994 -0.1471 -0.0882  0.0266
 1141ERGO    C115893  11.166   5.142   7.267 -0.0658  0.0325  0.0693
 1141ERGO    C215894  10.870   5.048   7.473  0.0443 -0.1556  0.2447
 1142ERGO   ROH15895  18.659  10.889   6.230 -0.0148  0.1529  0.0455
 1142ERGO    R115896  18.812  10.701   6.376 -0.0009  0.1527  0.0288
 1142ERGO    R215897  18.951  10.768   6.605 -0.1066  0.1162  0.0998
 1142ERGO    R315898  18.810  10.562   6.713 -0.0692  0.0246 -0.0229
 1142ERGO    R415899  19.005  10.635   6.919 -0.3989  0.2706  0.2206
 1142ERGO    R515900  18.973  10.436   6.835 -0.1105  0.2091  0.2357
 1142ERGO    C115901  18.905  10.364   7.203 -0.5340  0.2743  0.1758
 1142ERGO    C215902  19.115  10.360   7.504 -0.1891  0.2463 -0.1882
 1143ERGO   ROH15903  13.648  13.382   6.623 -0.1888 -0.1414 -0.0396
 1143ERGO    R115904  13.587  13.448   6.891 -0.0241 -0.2531  0.0266
 1143ERGO    R215905  13.778  13.540   7.069  0.0212  0.0041 -0.1530
 1143ERGO    R315906  13.603  13.745   7.100 -0.2473 -0.2446  0.0358
 1143ERGO    R415907  13.703  13.692   7.371  0.1562 -0.0939 -0.0690
 1143ERGO    R515908  13.495  13.700   7.309  0.0604 -0.3998  0.1723
 1143ERGO    C115909  13.496  13.973   7.575 -0.0173 -0.3844  0.1571
 1143ERGO    C215910  13.486  14.012   7.939  0.3188 -0.1983  0.1119
 1144ERGO   ROH15911  17.702  16.903   6.630  0.0391  0.1312  0.0139
 1144ERGO    R115912  17.794  16.949   6.894  0.0215 -0.0069  0.0443
 1144ERGO    R215913  17.700  17.158   7.050  0.0904 -0.0256  0.1068
 1144ERGO    R315914  17.646  16.959   7.227 -0.0208 -0.0672  0.0283
 1144ERGO    R415915  17.737  17.184   7.392 -0.0915 -0.1099  0.1341
 1144ERGO    R515916  17.817  16.981   7.394 -0.1061 -0.1189  0.1263
 1144ERGO    C115917  17.708  17.012   7.758 -0.3016 -0.1978  0.0764
 1144ERGO    C215918  17.573  16.922   8.006 -0.1936  0.0449 -0.3386
 1145ERGO   ROH15919  17.051   9.818   6.228 -0.0441  0.1022  0.0301
 1145ERGO    R115920  17.135   9.987   6.439 -0.1346  0.0633  0.0992
 1145ERGO    R215921  16.963  10.078   6.635 -0.1907 -0.0876  0.1265
 1145ERGO    R315922  17.148   9.970   6.802 -0.1507 -0.0688  0.0930
 1145ERGO    R415923  16.978  10.135   6.975 -0.0332  0.0378  0.0986
 1145ERGO    R515924  17.195  10.145   6.959 -0.0406 -0.0239  0.0066
 1145ERGO    C115925  17.161  10.068   7.331  0.0960  0.1285  0.0509
 1145ERGO    C215926  17.269   9.986   7.689 -0.0731 -0.0514 -0.3056
 1146ERGO   ROH15927   1.170  10.060   6.564 -0.0308  0.0375 -0.0798
 1146ERGO    R115928   1.398  10.034   6.729  0.0835  0.1000 -0.2254
 1146ERGO    R215929   1.557  10.249   6.797 -0.0684  0.1888 -0.1325
 1146ERGO    R315930   1.509  10.164   7.051  0.1391 -0.0704 -0.1753
 1146ERGO    R415931   1.662  10.412   7.083 -0.3160  0.2011 -0.0468
 1146ERGO    R515932   1.709  10.218   7.171  0.0661  0.2266 -0.1829
 1146ERGO    C115933   1.678  10.428   7.488 -0.2654 -0.0352 -0.0370
 1146ERGO    C215934   1.581  10.527   7.794 -0.2051  0.2276 -0.1787
 1147ERGO   ROH15935   6.479  10.779   6.144 -0.0847 -0.1906  0.2560
 1147ERGO    R115936   6.338  10.812   6.388 -0.0479 -0.3292  0.2973
 1147ERGO    R215937   6.422  10.697   6.624  0.2880 -0.0314  0.3317
 1147ERGO    R315938   6.407  10.953   6.716 -0.1787  0.0024  0.1868
 1147ERGO    R415939   6.403  10.786   6.958  0.4585  0.1241  0.3011
 1147ERGO    R515940   6.258  10.940   6.903  0.0476 -0.2232  0.3591
 1147ERGO    C115941   6.378  11.078   7.238  0.1196  0.2464  0.1472
 1147ERGO    C215942   6.427  11.118   7.601  0.1783  0.0416 -0.2569
 1148ERGO   ROH15943  13.302  17.894   6.224  0.2810  0.1153  0.0272
 1148ERGO    R115944  13.439  17.860   6.469  0.1300  0.1008  0.1115
 1148ERGO    R215945  13.518  18.073   6.626  0.1372  0.0981  0.1163
 1148ERGO    R315946  13.379  17.941   6.819 -0.0321  0.1943  0.0625
 1148ERGO    R415947  13.500  18.170   6.958  0.3217 -0.0566  0.1724
 1148ERGO    R515948  13.517  17.959   7.014  0.0224 -0.1140  0.0559
 1148ERGO    C115949  13.360  18.101   7.332  0.2704 -0.0564  0.1545
 1148ERGO    C215950  13.106  18.196   7.705 -0.0930 -0.2637 -0.0145
 1149ERGO   ROH15951   7.965   1.303   5.839  0.0837 -0.0583  0.0905
 1149ERGO    R115952   8.121   1.299   6.075  0.0052 -0.0466  0.1421
 1149ERGO    R215953   8.198   1.530   6.207  0.0843 -0.0356  0.0709
 1149ERGO    R315954   8.082   1.408   6.420 -0.0476  0.1132  0.0876
 1149ERGO    R415955   8.272   1.597   6.538 -0.0045  0.0889  0.0671
 1149ERGO    R515956   8.259   1.383   6.579 -0.1121  0.1099  0.1629
 1149ERGO    C115957   8.206   1.521   6.931 -0.1799  0.3010  0.0805
 1149ERGO    C215958   8.354   1.807   7.202 -0.0797 -0.0843  0.4108
 1150ERGO   ROH15959  10.807  15.668   6.238 -0.4154 -0.0650  0.1729
 1150ERGO    R115960  10.971  15.650   6.468 -0.2293 -0.0379  0.0446
 1150ERGO    R215961  10.937  15.813   6.689 -0.0934 -0.0554  0.0795
 1150ERGO    R315962  10.924  15.576   6.821  0.0646 -0.0647  0.0813
 1150ERGO    R415963  10.928  15.778   7.032 -0.2092 -0.0520  0.0773
 1150ERGO    R515964  11.061  15.607   7.014 -0.0452  0.0669  0.1400
 1150ERGO    C115965  10.910  15.534   7.356 -0.1282 -0.0587  0.0777
 1150ERGO    C215966  10.978  15.368   7.717 -0.2322  0.2015  0.1943
 1151ERGO   ROH15967  18.624  11.429   6.065  0.1043  0.0252 -0.1255
 1151ERGO    R115968  18.828  11.355   6.247  0.0580  0.2691  0.0315
 1151ERGO    R215969  18.849  11.464   6.499 -0.4062  0.1355  0.1399
 1151ERGO    R315970  18.846  11.204   6.577 -0.0157  0.0628 -0.0570
 1151ERGO    R415971  18.904  11.355   6.822 -0.5000 -0.0051  0.1091
 1151ERGO    R515972  19.020  11.189   6.741 -0.1294  0.2546  0.0849
 1151ERGO    C115973  18.932  11.047   7.084 -0.1881 -0.1553 -0.0936
 1151ERGO    C215974  18.962  10.858   7.381  0.1815 -0.2874  0.0668
 1152ERGO   ROH15975   6.934   8.191   6.219  0.2874 -0.0033  0.0369
 1152ERGO    R115976   6.775   8.028   6.387  0.1186  0.0966 -0.0252
 1152ERGO    R215977   6.882   7.827   6.544 -0.0845 -0.0469 -0.0763
 1152ERGO    R315978   6.752   7.959   6.743  0.0182  0.0116 -0.0460
 1152ERGO    R415979   6.828   7.700   6.861 -0.0627 -0.0326 -0.0659
 1152ERGO    R515980   6.628   7.787   6.856 -0.0317  0.0581 -0.0202
 1152ERGO    C115981   6.675   7.750   7.233  0.0466  0.0308 -0.0316
 1152ERGO    C215982   6.798   7.675   7.572  0.4218  0.1687  0.0212
 1153ERGO   ROH15983  18.473  12.924   6.135  0.0890  0.1197 -0.0368
 1153ERGO    R115984  18.470  12.946   6.417  0.0037 -0.0752 -0.0219
 1153ERGO    R215985  18.427  12.729   6.583  0.2161 -0.2363 -0.1809
 1153ERGO    R315986  18.661  12.809   6.695  0.1011 -0.0457 -0.0717
 1153ERGO    R415987  18.506  12.696   6.918  0.1040 -0.2451 -0.1547
 1153ERGO    R515988  18.597  12.894   6.910 -0.0710 -0.1519 -0.0738
 1153ERGO    C115989  18.771  12.753   7.218 -0.0691 -0.0712 -0.0370
 1153ERGO    C215990  18.720  12.471   7.473 -0.0532 -0.1145 -0.0803
 1154ERGO   ROH15991  15.897  17.213   6.015 -0.0068 -0.0903  0.2424
 1154ERGO    R115992  15.937  17.178   6.294 -0.1377 -0.0304  0.2695
 1154ERGO    R215993  16.122  17.325   6.437 -0.0581 -0.1427  0.2853
 1154ERGO    R315994  15.907  17.384   6.592 -0.0653  0.1009  0.1869
 1154ERGO    R415995  16.134  17.385   6.777 -0.1598 -0.2643  0.3111
 1154ERGO    R515996  15.950  17.271   6.799 -0.3292 -0.0233  0.1770
 1154ERGO    C115997  15.939  17.476   7.121 -0.2261 -0.1061  0.2339
 1154ERGO    C215998  15.896  17.699   7.423 -0.1569 -0.3456  0.0105
 1155ERGO   ROH15999  13.786  17.204   9.730 -0.0228  0.2457 -0.0821
 1155ERGO    R116000  13.745  16.953   9.606 -0.0080  0.1760  0.0517
 1155ERGO    R216001  13.519  16.895   9.459  0.0109  0.0961  0.0520
 1155ERGO    R316002  13.700  16.830   9.266  0.0378 -0.0121  0.1128
 1155ERGO    R416003  13.448  16.871   9.121  0.1701  0.4055 -0.0069
 1155ERGO    R516004  13.577  16.695   9.112 -0.0507  0.2448 -0.0458
 1155ERGO    C116005  13.577  16.797   8.744  0.2880  0.4842  0.0159
 1155ERGO    C216006  13.509  16.577   8.406  0.1105 -0.1171  0.3052
 1156ERGO   ROH16007  17.568  11.327   6.389 -0.2774  0.2717  0.0048
 1156ERGO    R116008  17.481  11.328   6.658 -0.1204  0.1435  0.0583
 1156ERGO    R216009  17.445  11.096   6.803 -0.0742  0.0713 -0.0431
 1156ERGO    R316010  17.612  11.219   6.979  0.0497 -0.0511 -0.0749
 1156ERGO    R416011  17.514  10.982   7.122 -0.1706  0.0669 -0.0237
 1156ERGO    R516012  17.507  11.188   7.192  0.0275  0.0899 -0.0642
 1156ERGO    C116013  17.712  11.029   7.472 -0.1104 -0.0507 -0.0422
 1156ERGO    C216014  17.781  11.032   7.846 -0.0180 -0.0061  0.0019
 1157ERGO   ROH16015   4.763   9.896   5.817  0.0265  0.0136 -0.0891
 1157ERGO    R116016   4.719   9.853   6.094 -0.0714  0.0908 -0.0923
 1157ERGO    R216017   4.901   9.723   6.255 -0.1930  0.0048 -0.0229
 1157ERGO    R316018   4.879   9.948   6.406 -0.0906  0.0465 -0.0686
 1157ERGO    R416019   4.866   9.728   6.599 -0.0116  0.0978 -0.0042
 1157ERGO    R516020   4.722   9.890   6.577 -0.0072  0.1068  0.0299
 1157ERGO    C116021   4.825   9.942   6.941  0.1900  0.1913 -0.0362
 1157ERGO    C216022   4.962  10.056   7.211 -0.0832  0.2512  0.2381
 1158ERGO   ROH16023   9.057   2.018   5.973 -0.1919 -0.0730  0.2150
 1158ERGO    R116024   9.219   2.108   6.187 -0.1997  0.1472  0.1313
 1158ERGO    R216025   9.115   2.238   6.408 -0.2773 -0.0659  0.2244
 1158ERGO    R316026   9.246   2.042   6.544  0.1313  0.1110  0.1024
 1158ERGO    R416027   9.152   2.227   6.751 -0.4155 -0.2905  0.2337
 1158ERGO    R516028   9.357   2.157   6.722 -0.2241  0.2213  0.2600
 1158ERGO    C116029   9.296   2.036   7.079 -0.1124 -0.2551  0.1247
 1158ERGO    C216030   9.345   1.892   7.423 -0.0340  0.0931 -0.1530
 1159ERGO   ROH16031   3.654  16.244   9.153 -0.0769  0.2502  0.1076
 1159ERGO    R116032   3.726  16.304   8.886 -0.0419 -0.0150  0.0535
 1159ERGO    R216033   3.605  16.183   8.669 -0.2863  0.0441  0.1484
 1159ERGO    R316034   3.560  16.440   8.592  0.0984  0.0786  0.0182
 1159ERGO    R416035   3.551  16.286   8.343 -0.3144 -0.0616  0.1196
 1159ERGO    R516036   3.674  16.461   8.383  0.0062 -0.2412 -0.0663
 1159ERGO    C116037   3.477  16.587   8.082  0.0305 -0.0909 -0.0193
 1159ERGO    C216038   3.522  16.970   7.956 -0.3265  0.2375 -0.0042
 1160ERGO   ROH16039   4.134   2.125   5.707 -0.0055 -0.3690 -0.0814
 1160ERGO    R116040   4.331   1.986   5.857 -0.0334 -0.3049  0.0154
 1160ERGO    R216041   4.439   2.087   6.090  0.0289 -0.1367 -0.0843
 1160ERGO    R316042   4.358   1.849   6.193 -0.0389 -0.0229  0.1339
 1160ERGO    R416043   4.592   1.924   6.354  0.0730 -0.0125 -0.0322
 1160ERGO    R516044   4.563   1.736   6.248 -0.0675 -0.0799  0.1224
 1160ERGO    C116045   4.606   1.605   6.604  0.0350  0.1667  0.2029
 1160ERGO    C216046   4.584   1.426   6.968  0.1747 -0.0494 -0.2830
 1161ERGO   ROH16047  14.438   7.642   6.445 -0.1643 -0.2196  0.0583
 1161ERGO    R116048  14.567   7.500   6.654  0.0301 -0.0875  0.0299
 1161ERGO    R216049  14.783   7.603   6.793 -0.0136  0.1154 -0.0536
 1161ERGO    R316050  14.627   7.550   7.009  0.1059 -0.0014  0.0058
 1161ERGO    R416051  14.900   7.487   7.096  0.1956  0.2322 -0.0869
 1161ERGO    R516052  14.726   7.356   7.108  0.3067  0.0852 -0.0163
 1161ERGO    C116053  14.822   7.370   7.477  0.4296  0.1906 -0.0507
 1161ERGO    C216054  14.853   7.263   7.794  0.1853 -0.0441  0.2649
 1162ERGO   ROH16055  18.074  18.671   6.345  0.2051  0.1550  0.1140
 1162ERGO    R116056  17.913  18.626   6.574  0.1608  0.0879  0.0697
 1162ERGO    R216057  18.013  18.517   6.807  0.1191  0.0344  0.0621
 1162ERGO    R316058  17.906  18.740   6.919  0.0835 -0.0002  0.0978
 1162ERGO    R416059  17.879  18.532   7.125  0.1451 -0.0303  0.0765
 1162ERGO    R516060  17.720  18.659   7.046  0.1114 -0.0536  0.1057
 1162ERGO    C116061  17.701  18.751   7.416  0.1268 -0.1005  0.1185
 1162ERGO    C216062  17.895  18.802   7.699 -0.0426 -0.0360  0.2721
 1163ERGO   ROH16063  14.095  14.739   6.203 -0.0082  0.1380  0.1353
 1163ERGO    R116064  14.334  14.824   6.328 -0.0472  0.1758  0.1847
 1163ERGO    R216065  14.341  14.917   6.588 -0.0824 -0.0283  0.2626
 1163ERGO    R316066  14.530  14.724   6.618  0.0304  0.0531  0.0903
 1163ERGO    R416067  14.549  14.885   6.862 -0.0287 -0.1295  0.2108
 1163ERGO    R516068  14.712  14.836   6.727 -0.0185  0.0675  0.1532
 1163ERGO    C116069  14.847  14.686   7.050  0.1086 -0.1118  0.0189
 1163ERGO    C216070  14.988  14.450   7.314 -0.1039 -0.1955  0.2788
 1164ERGO   ROH16071   0.353   8.842   6.215  0.3330  0.0246 -0.0058
 1164ERGO    R116072   0.327   8.723   6.471  0.0970 -0.0656 -0.0689
 1164ERGO    R216073   0.206   8.478   6.509  0.3119 -0.2147 -0.3040
 1164ERGO    R316074   0.441   8.418   6.633  0.2072  0.0208  0.0165
 1164ERGO    R416075   0.292   8.165   6.630  0.4908 -0.1468 -0.2542
 1164ERGO    R516076   0.379   8.263   6.804  0.1360 -0.0852 -0.1055
 1164ERGO    C116077   0.562   7.928   6.817  0.4967  0.1138  0.0758
 1164ERGO    C216078   0.808   7.731   6.909 -0.1962 -0.0938 -0.0566
 1165ERGO   ROH16079   1.334   3.419   7.813  0.0024  0.2843 -0.2436
 1165ERGO    R116080   1.528   3.439   7.608  0.2086  0.2361 -0.0589
 1165ERGO    R216081   1.798   3.466   7.660  0.2211 -0.2626  0.2053
 1165ERGO    R316082   1.817   3.248   7.498 -0.0036 -0.0972 -0.0511
 1165ERGO    R416083   2.077   3.381   7.474  0.1240 -0.3227  0.0867
 1165ERGO    R516084   1.945   3.324   7.310  0.0557 -0.0046  0.0278
 1165ERGO    C116085   2.257   3.127   7.213 -0.1435 -0.2023 -0.2229
 1165ERGO    C216086   2.545   3.045   7.190 -0.0022 -0.0091 -0.0414
 1166ERGO   ROH16087  10.967  13.053   6.415  0.0504  0.1583 -0.0250
 1166ERGO    R116088  11.149  12.987   6.621  0.0438  0.1169 -0.0335
 1166ERGO    R216089  11.230  13.170   6.813 -0.0683  0.0385  0.0842
 1166ERGO    R316090  11.145  12.977   6.984 -0.0107 -0.0988 -0.0380
 1166ERGO    R416091  11.406  13.058   7.088 -0.2175  0.2357  0.2646
 1166ERGO    R516092  11.343  12.855   7.040  0.0967  0.1518  0.1606
 1166ERGO    C116093  11.429  12.812   7.409 -0.2505  0.2217  0.2549
 1166ERGO    C216094  11.413  12.741   7.820 -0.3264 -0.3388 -0.0956
 1167ERGO   ROH16095   4.502   7.065   5.927 -0.4100  0.1448  0.2646
 1167ERGO    R116096   4.655   7.079   6.164 -0.2774 -0.1178  0.1992
 1167ERGO    R216097   4.594   7.251   6.371  0.0869 -0.0277  0.2468
 1167ERGO    R316098   4.599   7.023   6.520 -0.2133 -0.0558  0.2177
 1167ERGO    R416099   4.629   7.241   6.715  0.3512 -0.1322  0.2182
 1167ERGO    R516100   4.761   7.068   6.691  0.0127 -0.3756  0.0920
 1167ERGO    C116101   4.654   7.022   7.055  0.2234 -0.2193  0.1743
 1167ERGO    C216102   4.436   7.037   7.381  0.0022 -0.3283  0.1634
 1168ERGO   ROH16103  11.735   9.781   6.539  0.0220 -0.3380 -0.1222
 1168ERGO    R116104  11.804   9.868   6.799  0.0259 -0.1729 -0.1779
 1168ERGO    R216105  11.617   9.964   6.979  0.0347 -0.0117 -0.2514
 1168ERGO    R316106  11.722   9.773   7.141 -0.0112  0.0764 -0.1157
 1168ERGO    R416107  11.541   9.925   7.314 -0.0301  0.1895 -0.2412
 1168ERGO    R516108  11.751   9.883   7.352 -0.0430  0.1966 -0.1753
 1168ERGO    C116109  11.595   9.723   7.661 -0.1109  0.3894 -0.1078
 1168ERGO    C216110  11.496   9.855   7.957  0.1023 -0.0146  0.0032
 1169ERGO   ROH16111  14.862   9.600   9.878  0.0708  0.0827  0.0386
 1169ERGO    R116112  14.859   9.409   9.669 -0.0943  0.1424 -0.0170
 1169ERGO    R216113  14.776   9.471   9.413  0.0439  0.3152 -0.0310
 1169ERGO    R316114  15.019   9.372   9.344 -0.0470  0.0551  0.0189
 1169ERGO    R416115  14.874   9.394   9.090  0.0452  0.2100 -0.0047
 1169ERGO    R516116  14.972   9.216   9.168 -0.1652  0.1091  0.0108
 1169ERGO    C116117  15.160   9.256   8.838 -0.0394 -0.0956  0.0575
 1169ERGO    C216118  15.069   9.340   8.494  0.0138 -0.0836  0.3771
 1170ERGO   ROH16119  17.345   1.419   6.253  0.2576  0.0631  0.1598
 1170ERGO    R116120  17.391   1.654   6.404  0.1266  0.0255  0.2571
 1170ERGO    R216121  17.264   1.893   6.349  0.2023  0.0425  0.1829
 1170ERGO    R316122  17.191   1.879   6.611 -0.0600 -0.0017  0.1119
 1170ERGO    R416123  17.123   2.153   6.528 -0.0259  0.0016  0.0680
 1170ERGO    R516124  17.247   2.095   6.699 -0.1836  0.0023  0.1913
 1170ERGO    C116125  16.972   2.290   6.879 -0.4051 -0.0637 -0.0656
 1170ERGO    C216126  16.805   2.385   7.147 -0.0775  0.2199  0.2217
 1171ERGO   ROH16127  13.674   1.073   6.484  0.0403  0.0790 -0.2019
 1171ERGO    R116128  13.729   1.340   6.562 -0.0445  0.0910 -0.1811
 1171ERGO    R216129  13.880   1.401   6.786 -0.1471  0.1237 -0.1184
 1171ERGO    R316130  14.025   1.546   6.608 -0.1033  0.1493 -0.0613
 1171ERGO    R416131  14.000   1.721   6.842 -0.1772  0.1230 -0.0519
 1171ERGO    R516132  13.948   1.771   6.637 -0.1207  0.1421 -0.0601
 1171ERGO    C116133  14.206   2.043   6.708 -0.1536  0.1467  0.0405
 1171ERGO    C216134  14.494   2.332   6.656 -0.2836 -0.0680  0.1311
 1172ERGO   ROH16135  13.557   9.644   6.710 -0.1101  0.1198 -0.1144
 1172ERGO    R116136  13.441   9.522   6.938  0.0331 -0.0331 -0.1224
 1172ERGO    R216137  13.585   9.358   7.107  0.2305  0.1287 -0.1303
 1172ERGO    R316138  13.494   9.530   7.298  0.0200  0.0116 -0.1213
 1172ERGO    R416139  13.654   9.333   7.445  0.1378  0.1140 -0.1117
 1172ERGO    R516140  13.448   9.390   7.486  0.0738 -0.0698 -0.1679
 1172ERGO    C116141  13.610   9.479   7.820 -0.1137 -0.0046 -0.0925
 1172ERGO    C216142  13.722   9.643   8.123  0.0328 -0.2071  0.1128
 1173ERGO   ROH16143   3.355   6.701   6.094 -0.0627 -0.1051 -0.2224
 1173ERGO    R116144   3.485   6.540   6.288 -0.0287 -0.0658 -0.2134
 1173ERGO    R216145   3.687   6.636   6.450 -0.1811  0.0401 -0.0888
 1173ERGO    R316146   3.527   6.543   6.649 -0.2015 -0.1499 -0.1909
 1173ERGO    R416147   3.801   6.497   6.745 -0.1950  0.2737  0.0299
 1173ERGO    R516148   3.642   6.349   6.730  0.0281  0.0312 -0.0623
 1173ERGO    C116149   3.717   6.328   7.104 -0.2222  0.2315  0.0032
 1173ERGO    C216150   3.716   6.406   7.390  0.0393  0.2367  0.0462
 1174ERGO   ROH16151  18.171   3.055   6.405  0.0685 -0.0493  0.1323
 1174ERGO    R116152  18.208   3.265   6.592  0.0645  0.0435  0.0304
 1174ERGO    R216153  18.010   3.346   6.766  0.0550  0.1374 -0.0178
 1174ERGO    R316154  18.201   3.301   6.954  0.0456  0.2214  0.0118
 1174ERGO    R416155  17.996   3.457   7.094 -0.1257 -0.0360  0.0353
 1174ERGO    R516156  18.208   3.503   7.082 -0.1684  0.1625  0.1149
 1174ERGO    C116157  18.168   3.478   7.460 -0.2399 -0.0581  0.0941
 1174ERGO    C216158  17.962   3.438   7.730  0.0814 -0.3548  0.0770
 1175ERGO   ROH16159   3.612   8.837   5.805 -0.2277  0.1702  0.0925
 1175ERGO    R116160   3.480   8.892   6.048 -0.2158  0.0413  0.1275
 1175ERGO    R216161   3.357   8.695   6.198 -0.0363 -0.0669  0.1276
 1175ERGO    R316162   3.515   8.792   6.397 -0.0684  0.0250  0.1098
 1175ERGO    R416163   3.298   8.651   6.536  0.0872 -0.2095  0.1324
 1175ERGO    R516164   3.360   8.858   6.568 -0.0878 -0.1563  0.1678
 1175ERGO    C116165   3.412   8.717   6.919  0.1290 -0.2063  0.1184
 1175ERGO    C216166   3.624   8.616   7.232  0.0576 -0.1740  0.1516
 1176ERGO   ROH16167   7.662  11.632   6.304  0.0729  0.0304  0.0099
 1176ERGO    R116168   7.593  11.727   6.561  0.0866  0.0977 -0.0104
 1176ERGO    R216169   7.619  11.573   6.789 -0.0809  0.0892  0.0070
 1176ERGO    R316170   7.765  11.784   6.877  0.0610 -0.0154  0.0235
 1176ERGO    R416171   7.648  11.669   7.120 -0.0841  0.0975  0.0043
 1176ERGO    R516172   7.635  11.877   7.056  0.0912  0.1010 -0.0162
 1176ERGO    C116173   7.803  11.923   7.395  0.0472  0.0040  0.0183
 1176ERGO    C216174   8.017  12.294   7.579  0.0681 -0.0803  0.2479
 1177ERGO   ROH16175  12.359  14.883   6.388 -0.1320  0.0645  0.1052
 1177ERGO    R116176  12.259  14.967   6.639 -0.1856 -0.0868  0.1361
 1177ERGO    R216177  12.216  14.791   6.848  0.0774 -0.1688  0.1289
 1177ERGO    R316178  12.376  14.964   6.984 -0.1062  0.0193  0.1100
 1177ERGO    R416179  12.238  14.811   7.193  0.0824 -0.1269  0.1258
 1177ERGO    R516180  12.246  15.028   7.175 -0.1637 -0.1179  0.1160
 1177ERGO    C116181  12.401  14.985   7.521 -0.0869  0.0740  0.1062
 1177ERGO    C216182  12.502  14.937   7.809  0.5794 -0.0071 -0.3857
 1178ERGO   ROH16183  10.326  17.803   9.307 -0.1119  0.0984  0.0167
 1178ERGO    R116184  10.436  17.628   9.112 -0.1720  0.0583  0.0199
 1178ERGO    R216185  10.284  17.518   8.910 -0.1947  0.1614 -0.0145
 1178ERGO    R316186  10.476  17.626   8.751 -0.1071  0.0695  0.0258
 1178ERGO    R416187  10.347  17.422   8.584 -0.0926  0.0407  0.0390
 1178ERGO    R516188  10.561  17.440   8.625 -0.1001  0.0062  0.1176
 1178ERGO    C116189  10.564  17.468   8.244  0.0491 -0.1155  0.1080
 1178ERGO    C216190  10.457  17.348   7.973 -0.0986  0.0319 -0.0813
 1179ERGO   ROH16191   3.878   3.560   6.088 -0.1249  0.0398  0.0334
 1179ERGO    R116192   4.060   3.460   6.281  0.0788  0.0790 -0.1338
 1179ERGO    R216193   4.307   3.574   6.327 -0.1128  0.4523 -0.0110
 1179ERGO    R316194   4.219   3.584   6.584 -0.0982 -0.0669  0.0237
 1179ERGO    R416195   4.511   3.604   6.603 -0.1117  0.5352 -0.0213
 1179ERGO    R516196   4.384   3.460   6.707  0.2020  0.1144 -0.1734
 1179ERGO    C116197   4.549   3.630   7.006 -0.0973  0.0961  0.0051
 1179ERGO    C216198   4.832   3.832   7.146  0.0579  0.1876 -0.3077
 1180ERGO   ROH16199   7.188   8.193   9.643 -0.2008  0.0883  0.1130
 1180ERGO    R116200   7.191   8.321   9.391 -0.1463 -0.0215  0.0573
 1180ERGO    R216201   7.423   8.418   9.276 -0.1395  0.0392  0.1223
 1180ERGO    R316202   7.346   8.263   9.067  0.0321 -0.0912  0.1537
 1180ERGO    R416203   7.539   8.453   8.953 -0.3700  0.2739  0.0609
 1180ERGO    R516204   7.336   8.414   8.881 -0.3437 -0.0929  0.1658
 1180ERGO    C116205   7.534   8.327   8.567 -0.3432  0.2882  0.0547
 1180ERGO    C216206   7.556   8.264   8.182 -0.2496  0.0137 -0.1162
 1181ERGO   ROH16207   2.326  16.827   5.834 -0.0633 -0.3792  0.0696
 1181ERGO    R116208   2.276  16.946   6.086 -0.0878 -0.2337 -0.0024
 1181ERGO    R216209   2.031  16.930   6.212 -0.0646 -0.2711  0.0421
 1181ERGO    R316210   2.179  16.832   6.418  0.0139 -0.0606  0.0882
 1181ERGO    R416211   1.920  16.900   6.538 -0.1500 -0.4888 -0.0056
 1181ERGO    R516212   2.116  16.967   6.606 -0.2796 -0.1803  0.0813
 1181ERGO    C116213   1.994  16.790   6.921 -0.1260 -0.4178  0.0098
 1181ERGO    C216214   1.806  16.712   7.214  0.0297  0.0632 -0.0228
 1182ERGO   ROH16215  17.997   4.531   5.817  0.0641 -0.2258 -0.0582
 1182ERGO    R116216  17.804   4.423   5.993  0.0274 -0.1117 -0.0269
 1182ERGO    R216217  17.860   4.211   6.162 -0.0952 -0.2038 -0.0983
 1182ERGO    R316218  17.769   4.381   6.353  0.1066 -0.1747 -0.0267
 1182ERGO    R416219  17.723   4.114   6.464 -0.1830 -0.1647 -0.1251
 1182ERGO    R516220  17.576   4.273   6.443 -0.0085  0.0076 -0.0542
 1182ERGO    C116221  17.559   4.217   6.820 -0.0444 -0.1146 -0.0734
 1182ERGO    C216222  17.519   4.141   7.153 -0.2835  0.2569 -0.0160
 1183ERGO   ROH16223   0.993  10.982   6.053  0.1665  0.0324 -0.0166
 1183ERGO    R116224   1.083  10.772   6.220  0.1190 -0.0395 -0.0793
 1183ERGO    R216225   1.291  10.803   6.399  0.0970 -0.1268 -0.0319
 1183ERGO    R316226   1.108  10.711   6.578  0.0557 -0.1716 -0.0979
 1183ERGO    R416227   1.360  10.719   6.727 -0.0262 -0.0156  0.0231
 1183ERGO    R516228   1.227  10.548   6.706  0.0687 -0.0820 -0.0001
 1183ERGO    C116229   1.229  10.584   7.085 -0.1367  0.0072 -0.0069
 1183ERGO    C216230   1.436  10.824   7.310 -0.1783 -0.1737 -0.0864
 1184ERGO   ROH16231   2.822   7.534   5.964 -0.0532 -0.2298 -0.0709
 1184ERGO    R116232   2.962   7.513   6.210 -0.0853 -0.1136 -0.0412
 1184ERGO    R216233   2.978   7.722   6.390 -0.1093 -0.0252 -0.1343
 1184ERGO    R316234   2.880   7.537   6.564 -0.1348  0.0548 -0.0643
 1184ERGO    R416235   2.947   7.770   6.731 -0.2076  0.1406 -0.1660
 1184ERGO    R516236   3.015   7.564   6.760 -0.1945  0.1671 -0.0420
 1184ERGO    C116237   2.837   7.624   7.092 -0.2888  0.3123 -0.1186
 1184ERGO    C216238   2.900   7.896   7.346  0.1599  0.0331  0.0527
 1185ERGO   ROH16239  11.487  12.630   9.853 -0.0282 -0.0088  0.0667
 1185ERGO    R116240  11.643  12.781   9.671 -0.0237  0.0059  0.0829
 1185ERGO    R216241  11.821  12.663   9.496 -0.0545  0.0164  0.0458
 1185ERGO    R316242  11.680  12.802   9.309 -0.0507  0.0717  0.0835
 1185ERGO    R416243  11.941  12.753   9.184 -0.0734  0.0377  0.0444
 1185ERGO    R516244  11.842  12.946   9.207 -0.0334  0.0551  0.0853
 1185ERGO    C116245  11.878  12.935   8.827 -0.0810  0.1020  0.0791
 1185ERGO    C216246  11.928  13.157   8.555  0.2188 -0.2919 -0.1950
 1186ERGO   ROH16247   3.521  12.176   7.269 -0.0515 -0.1184 -0.2991
 1186ERGO    R116248   3.739  12.263   7.427 -0.0189 -0.1897 -0.3055
 1186ERGO    R216249   3.706  12.407   7.660  0.0384 -0.0511 -0.3845
 1186ERGO    R316250   3.859  12.208   7.766 -0.1136 -0.1029 -0.2567
 1186ERGO    R416251   3.774  12.369   7.997  0.1030  0.1880 -0.3682
 1186ERGO    R516252   3.979  12.315   7.944  0.0408 -0.0510 -0.3867
 1186ERGO    C116253   3.957  12.160   8.292 -0.0021  0.2787 -0.2387
 1186ERGO    C216254   3.915  12.137   8.566  0.0077 -0.0555 -0.1249
 1187ERGO   ROH16255  15.155  14.047   6.351  0.0639 -0.0383  0.0996
 1187ERGO    R116256  15.282  14.249   6.504  0.0798 -0.1102  0.1842
 1187ERGO    R216257  15.163  14.492   6.558  0.2691  0.0573 -0.0968
 1187ERGO    R316258  15.218  14.425   6.816 -0.1676  0.1028  0.0158
 1187ERGO    R416259  15.238  14.718   6.809  0.3907  0.0648 -0.1404
 1187ERGO    R516260  15.390  14.579   6.881  0.0461 -0.1808  0.1290
 1187ERGO    C116261  15.334  14.787   7.196  0.0517  0.1120 -0.0602
 1187ERGO    C216262  15.161  14.913   7.522 -0.0013 -0.0665  0.0182
 1188ERGO   ROH16263  16.930   0.225   6.143 -0.0885  0.1219 -0.0904
 1188ERGO    R116264  17.020   0.297   6.402 -0.2113 -0.1398  0.0298
 1188ERGO    R216265  17.197   0.504   6.446  0.2597 -0.5625  0.2677
 1188ERGO    R316266  17.003   0.591   6.616  0.2517 -0.1205  0.0451
 1188ERGO    R416267  17.255   0.658   6.750  0.2364 -0.3218  0.1518
 1188ERGO    R516268  17.089   0.544   6.834  0.0238 -0.0088  0.1567
 1188ERGO    C116269  17.106   0.829   7.086  0.2151  0.2333 -0.1247
 1188ERGO    C216270  16.926   0.972   7.408  0.0875  0.1994  0.1357
 1189ERGO   ROH16271   2.597  10.160   5.744 -0.1017 -0.0755  0.0035
 1189ERGO    R116272   2.519  10.183   6.015 -0.2434 -0.2904 -0.0161
 1189ERGO    R216273   2.407   9.973   6.156  0.2309 -0.5959 -0.0680
 1189ERGO    R316274   2.610  10.025   6.330  0.0654 -0.1015 -0.0063
 1189ERGO    R416275   2.421   9.860   6.482  0.3378 -0.4218 -0.0108
 1189ERGO    R516276   2.501  10.054   6.541 -0.0795 -0.2260 -0.0638
 1189ERGO    C116277   2.619   9.842   6.836  0.2446  0.1437  0.0803
 1189ERGO    C216278   2.917   9.620   6.940 -0.1630 -0.3244  0.1210
 1190ERGO   ROH16279  13.697   7.456  10.034 -0.3696  0.0510 -0.0451
 1190ERGO    R116280  13.558   7.332   9.820 -0.2763  0.0785 -0.1224
 1190ERGO    R216281  13.506   7.461   9.582 -0.1803  0.1136 -0.1261
 1190ERGO    R316282  13.628   7.244   9.474 -0.1267  0.1332 -0.1060
 1190ERGO    R416283  13.477   7.362   9.252  0.0293  0.1963 -0.1719
 1190ERGO    R516284  13.466   7.155   9.321 -0.0302  0.1821 -0.2338
 1190ERGO    C116285  13.574   7.100   8.959  0.2017  0.2630 -0.1795
 1190ERGO    C216286  13.608   7.207   8.602 -0.4512 -0.0717 -0.0594
 1191ERGO   ROH16287  18.041  13.731   6.924 -0.4682  0.1096  0.0662
 1191ERGO    R116288  17.945  13.634   7.172 -0.2913  0.0122  0.0967
 1191ERGO    R216289  17.974  13.370   7.250  0.0075  0.0465  0.0904
 1191ERGO    R316290  18.089  13.482   7.470 -0.0431  0.1638  0.0599
 1191ERGO    R416291  17.954  13.241   7.570  0.0766  0.1016  0.1178
 1191ERGO    R516292  17.930  13.445   7.645 -0.0299  0.1173  0.0713
 1191ERGO    C116293  18.050  13.271   7.963  0.0691  0.2437  0.1051
 1191ERGO    C216294  18.161  13.190   8.324 -0.2780  0.1074 -0.0645
 1192ERGO   ROH16295   6.572  13.829   5.787  0.1351  0.0502  0.0752
 1192ERGO    R116296   6.574  13.764   6.063 -0.1071 -0.0412  0.0585
 1192ERGO    R216297   6.662  13.941   6.256 -0.0224 -0.2006  0.1649
 1192ERGO    R316298   6.418  13.892   6.366 -0.1496  0.0419  0.0042
 1192ERGO    R416299   6.558  14.058   6.564  0.0424 -0.3962  0.2624
 1192ERGO    R516300   6.463  13.864   6.599 -0.2766 -0.3053 -0.0029
 1192ERGO    C116301   6.269  14.080   6.846 -0.0393 -0.2824  0.1684
 1192ERGO    C216302   6.079  14.311   7.001  0.0164 -0.0255  0.0354
 1193ERGO   ROH16303  16.146   4.414   5.937  0.1737 -0.0741  0.0227
 1193ERGO    R116304  16.340   4.417   6.143  0.0954 -0.0003  0.0964
 1193ERGO    R216305  16.290   4.524   6.393 -0.0759 -0.1179  0.1143
 1193ERGO    R316306  16.372   4.279   6.478  0.0699 -0.0875  0.0632
 1193ERGO    R416307  16.384   4.449   6.717 -0.1244 -0.1517  0.1204
 1193ERGO    R516308  16.546   4.326   6.637 -0.0122 -0.0138  0.1319
 1193ERGO    C116309  16.516   4.175   6.985 -0.0155 -0.1428  0.0759
 1193ERGO    C216310  16.544   4.005   7.336 -0.1220 -0.5087 -0.3640
 1194ERGO   ROH16311  13.512  14.454   6.416 -0.0970 -0.0145  0.1290
 1194ERGO    R116312  13.531  14.707   6.542  0.0808  0.0121  0.0519
 1194ERGO    R216313  13.366  14.782   6.750  0.0586  0.2332 -0.0415
 1194ERGO    R316314  13.601  14.831   6.877  0.0525  0.0578  0.0406
 1194ERGO    R416315  13.411  15.015   7.002  0.1751  0.2856 -0.1098
 1194ERGO    R516316  13.602  15.068   6.912  0.2635  0.0711 -0.0481
 1194ERGO    C116317  13.658  15.196   7.267  0.2372  0.1517 -0.0725
 1194ERGO    C216318  13.716  15.259   7.490 -0.0218 -0.0364  0.1188
 1195ERGO   ROH16319  16.334  15.605   6.533  0.0402  0.0111 -0.0708
 1195ERGO    R116320  16.485  15.552   6.766  0.0252  0.0515 -0.0514
 1195ERGO    R216321  16.448  15.692   7.002 -0.0579  0.0278 -0.0478
 1195ERGO    R316322  16.415  15.443   7.107  0.0124  0.0103 -0.0675
 1195ERGO    R416323  16.500  15.608   7.333 -0.1819  0.0491 -0.0230
 1195ERGO    R516324  16.591  15.422   7.267 -0.0572  0.0950  0.0202
 1195ERGO    C116325  16.498  15.326   7.625 -0.1882  0.0450 -0.0271
 1195ERGO    C216326  16.528  15.320   7.975  0.0213 -0.0422 -0.1582
 1196ERGO   ROH16327   3.480  12.844   5.525 -0.0078  0.0813 -0.1735
 1196ERGO    R116328   3.502  12.834   5.807 -0.1779 -0.0444 -0.1622
 1196ERGO    R216329   3.429  12.612   5.955 -0.0375 -0.2056 -0.3268
 1196ERGO    R316330   3.683  12.634   6.051 -0.1173  0.0162 -0.1577
 1196ERGO    R416331   3.568  12.405   6.194  0.0245 -0.1552 -0.3193
 1196ERGO    R516332   3.663  12.580   6.283 -0.2092 -0.0920 -0.1913
 1196ERGO    C116333   3.887  12.305   6.424 -0.0143  0.0824 -0.1562
 1196ERGO    C216334   4.181  12.122   6.623 -0.0782 -0.2548  0.0756
 1197ERGO   ROH16335   7.517   6.734   6.582  0.0300  0.2314 -0.1269
 1197ERGO    R116336   7.562   6.771   6.859  0.0468  0.1726 -0.1213
 1197ERGO    R216337   7.435   6.967   7.006 -0.0032  0.0931 -0.0547
 1197ERGO    R316338   7.363   6.758   7.164  0.0817  0.0265 -0.1042
 1197ERGO    R416339   7.388   6.985   7.348  0.1358 -0.0429 -0.0281
 1197ERGO    R516340   7.487   6.791   7.366  0.1613 -0.0400 -0.1424
 1197ERGO    C116341   7.294   6.798   7.695  0.2964 -0.1845 -0.0591
 1197ERGO    C216342   7.247   6.788   7.903  0.2386 -0.2699  0.1617
 1198ERGO   ROH16343  10.912  14.649   9.839 -0.3382  0.1067  0.0113
 1198ERGO    R116344  11.072  14.701   9.611 -0.1580  0.0253  0.1158
 1198ERGO    R216345  10.989  14.868   9.407 -0.0485 -0.1342 -0.0661
 1198ERGO    R316346  11.226  14.993   9.457 -0.1416 -0.0094  0.0681
 1198ERGO    R416347  11.180  15.032   9.170  0.1403 -0.2752 -0.0133
 1198ERGO    R516348  11.359  14.948   9.263  0.0748 -0.1328  0.2432
 1198ERGO    C116349  11.514  15.245   9.080  0.1627 -0.2402  0.1435
 1198ERGO    C216350  11.797  15.524   8.976  0.2070 -0.0798  0.0030
 1199ERGO   ROH16351   0.177  15.550   5.913  0.0400 -0.0627 -0.0090
 1199ERGO    R116352   0.455  15.574   5.956  0.0363 -0.0241 -0.0008
 1199ERGO    R216353   0.580  15.477   6.183  0.0456 -0.0098  0.0046
 1199ERGO    R316354   0.736  15.347   6.002  0.0642  0.0132  0.0054
 1199ERGO    R416355   0.864  15.294   6.260  0.0885  0.0540 -0.0045
 1199ERGO    R516356   0.959  15.377   6.083  0.0607  0.0627 -0.0109
 1199ERGO    C116357   1.175  15.066   6.134  0.1310  0.1127 -0.0090
 1199ERGO    C216358   1.327  14.824   6.137 -0.2054 -0.1934  0.0548
 1200ERGO   ROH16359   8.230  13.220   9.498 -0.3157  0.5704 -0.1588
 1200ERGO    R116360   8.337  13.109   9.260  0.1314  0.4387  0.0896
 1200ERGO    R216361   8.181  13.057   9.037  0.3923 -0.3348  0.0470
 1200ERGO    R316362   8.368  13.210   8.912  0.0905 -0.0438 -0.0587
 1200ERGO    R416363   8.325  12.984   8.731  0.4460 -0.1748  0.0352
 1200ERGO    R516364   8.516  13.052   8.810  0.3457  0.1904 -0.0450
 1200ERGO    C116365   8.584  13.086   8.436  0.1941  0.1916 -0.0709
 1200ERGO    C216366   8.817  12.978   8.209  0.0141 -0.1277  0.1012
 1201ERGO   ROH16367   4.446  13.547   5.630  0.1133 -0.0311 -0.1225
 1201ERGO    R116368   4.424  13.647   5.894  0.2010 -0.0250 -0.1173
 1201ERGO    R216369   4.269  13.524   6.087  0.0295  0.1421 -0.1450
 1201ERGO    R316370   4.501  13.527   6.229  0.0203 -0.1460 -0.1177
 1201ERGO    R416371   4.290  13.534   6.432 -0.0032  0.3549 -0.1476
 1201ERGO    R516372   4.456  13.673   6.413  0.2380  0.0661 -0.2275
 1201ERGO    C116373   4.519  13.542   6.766 -0.0309  0.2083 -0.1234
 1201ERGO    C216374   4.714  13.689   7.138 -0.1861 -0.0906 -0.0533
 1202ERGO   ROH16375   0.332   2.365   6.201  0.0167  0.1818 -0.1671
 1202ERGO    R116376   0.241   2.567   6.378 -0.0284  0.1033 -0.0984
 1202ERGO    R216377   0.262   2.544   6.653 -0.2322 -0.0854 -0.0901
 1202ERGO    R316378   0.389   2.783   6.630 -0.1161 -0.1230  0.1496
 1202ERGO    R416379   0.250   2.797   6.888 -0.3912 -0.1751 -0.0014
 1202ERGO    R516380   0.236   2.941   6.725 -0.1567 -0.1044  0.0444
 1202ERGO    C116381   0.362   3.169   7.004 -0.3748 -0.2624  0.2752
 1202ERGO    C216382   0.426   3.439   7.043 -0.4880  0.1940 -0.2442
 1203ERGO   ROH16383   0.144   8.989   6.815 -0.2357  0.0845 -0.0985
 1203ERGO    R116384  -0.020   9.214   6.863 -0.1898  0.1110 -0.0617
 1203ERGO    R216385  -0.110   9.282   7.115 -0.1923  0.0793 -0.0505
 1203ERGO    R316386   0.003   9.521   7.057 -0.1325  0.0640  0.0046
 1203ERGO    R416387  -0.177   9.578   7.281 -0.1004  0.0582  0.0243
 1203ERGO    R516388  -0.173   9.680   7.089 -0.0840  0.1041  0.0535
 1203ERGO    C116389  -0.109   9.975   7.322  0.0091  0.0315  0.1195
 1203ERGO    C216390  -0.199  10.268   7.532  0.1153 -0.1156  0.1125
 1204ERGO   ROH16391   6.717  12.053   5.828 -0.0798  0.0873 -0.1779
 1204ERGO    R116392   6.674  12.229   6.046  0.0231 -0.0935 -0.0103
 1204ERGO    R216393   6.440  12.371   6.079  0.1116  0.0149  0.1197
 1204ERGO    R316394   6.441  12.253   6.324  0.0350 -0.2146  0.0131
 1204ERGO    R416395   6.240  12.465   6.345  0.2492 -0.0145  0.2358
 1204ERGO    R516396   6.409  12.434   6.478  0.2478 -0.3130  0.1842
 1204ERGO    C116397   6.124  12.409   6.729  0.2574 -0.2472  0.2033
 1204ERGO    C216398   6.033  12.382   7.107  0.1023  0.0698 -0.2181
 1205ERGO   ROH16399   6.764   3.135   5.645 -0.0155 -0.0293 -0.0825
 1205ERGO    R116400   6.903   3.247   5.865 -0.1036  0.0530 -0.0676
 1205ERGO    R216401   6.805   3.462   6.010 -0.2633 -0.0257 -0.0542
 1205ERGO    R316402   6.841   3.294   6.221 -0.1537 -0.0188 -0.0669
 1205ERGO    R416403   6.793   3.556   6.342 -0.2250 -0.0407 -0.0489
 1205ERGO    R516404   6.962   3.424   6.381 -0.1671  0.0214 -0.0900
 1205ERGO    C116405   6.819   3.454   6.733 -0.0998 -0.0428 -0.0576
 1205ERGO    C216406   6.588   3.351   7.090  0.2094  0.2937 -0.0027
 1206ERGO   ROH16407  14.305  12.901   6.772  0.0923 -0.0970  0.1088
 1206ERGO    R116408  14.281  12.759   7.016  0.1270  0.0559  0.2032
 1206ERGO    R216409  14.405  12.842   7.248  0.0923  0.2509  0.1591
 1206ERGO    R316410  14.153  12.827   7.350  0.0909  0.2397  0.1517
 1206ERGO    R416411  14.328  12.842   7.585  0.0932 -0.0327  0.1612
 1206ERGO    R516412  14.176  12.690   7.545  0.0462  0.0550  0.0262
 1206ERGO    C116413  14.047  12.828   7.877  0.0922 -0.2082  0.1554
 1206ERGO    C216414  13.928  12.887   8.191  0.0554  0.3129  0.0707
 1207ERGO   ROH16415   5.926   8.642   5.795 -0.1517 -0.0325 -0.1062
 1207ERGO    R116416   6.012   8.597   6.060 -0.2295 -0.0327 -0.0809
 1207ERGO    R216417   6.190   8.764   6.189 -0.1124 -0.1434 -0.0981
 1207ERGO    R316418   5.995   8.775   6.377 -0.1342  0.0664 -0.1309
 1207ERGO    R416419   6.245   8.754   6.530 -0.1752 -0.1085 -0.0869
 1207ERGO    R516420   6.069   8.625   6.549 -0.2877  0.0432 -0.0833
 1207ERGO    C116421   6.093   8.759   6.906 -0.2321  0.1087 -0.1111
 1207ERGO    C216422   5.939   8.925   7.154 -0.1045 -0.0876  0.0613
 1208ERGO   ROH16423  16.038  12.230   6.637 -0.0853  0.0194  0.1245
 1208ERGO    R116424  15.876  12.249   6.868 -0.1457 -0.2858  0.1132
 1208ERGO    R216425  15.805  12.029   7.019  0.3483 -0.4202  0.1747
 1208ERGO    R316426  15.910  12.176   7.222  0.0183 -0.1117  0.1336
 1208ERGO    R416427  15.803  11.935   7.351  0.5245 -0.2965  0.2115
 1208ERGO    R516428  15.759  12.141   7.405  0.0734 -0.3679  0.1300
 1208ERGO    C116429  15.902  12.017   7.736  0.3172  0.0652  0.1944
 1208ERGO    C216430  15.859  11.963   7.972  0.4607  0.2312 -0.0509
 1209ERGO   ROH16431  12.634  10.797   6.302  0.0822 -0.2049  0.0635
 1209ERGO    R116432  12.630  10.696   6.566  0.1629 -0.1420  0.0890
 1209ERGO    R216433  12.654  10.859   6.788  0.0159 -0.0633  0.0477
 1209ERGO    R316434  12.422  10.739   6.862  0.1168 -0.2472  0.0726
 1209ERGO    R416435  12.587  10.738   7.105  0.0708  0.0712  0.1118
 1209ERGO    R516436  12.490  10.566   7.013  0.2592 -0.0865  0.1989
 1209ERGO    C116437  12.329  10.555   7.358  0.1974 -0.0231  0.1726
 1209ERGO    C216438  12.224  10.559   7.600 -0.0849 -0.2642 -0.1793
 1210ERGO   ROH16439  13.647  16.495   6.479  0.1191 -0.3248 -0.2143
 1210ERGO    R116440  13.801  16.456   6.714  0.1019 -0.3659 -0.2097
 1210ERGO    R216441  14.062  16.369   6.707  0.1696 -0.1704 -0.2167
 1210ERGO    R316442  14.107  16.592   6.856 -0.0249 -0.2323 -0.0617
 1210ERGO    R416443  14.317  16.404   6.938  0.1626 -0.0935 -0.2206
 1210ERGO    R516444  14.177  16.508   7.069  0.0780 -0.3191 -0.1296
 1210ERGO    C116445  14.507  16.634   7.213 -0.0241 -0.1068 -0.0773
 1210ERGO    C216446  14.874  16.666   7.117  0.0538  0.2421 -0.2402
 1211ERGO   ROH16447  16.765   8.608   6.630 -0.4120  0.0244 -0.0655
 1211ERGO    R116448  16.885   8.704   6.868 -0.2676  0.0535 -0.1492
 1211ERGO    R216449  16.866   8.968   6.949 -0.3134  0.0396 -0.1148
 1211ERGO    R316450  16.772   8.857   7.178 -0.0928 -0.0181 -0.0489
 1211ERGO    R416451  16.853   9.129   7.254 -0.1833  0.0216 -0.0988
 1211ERGO    R516452  16.916   8.943   7.349 -0.0170  0.0522 -0.1478
 1211ERGO    C116453  16.757   9.119   7.648  0.0996 -0.0431 -0.0276
 1211ERGO    C216454  16.462   9.390   7.753 -0.1021 -0.3122  0.0839
 1212ERGO   ROH16455   5.015   5.275   5.644 -0.1148 -0.2203  0.3163
 1212ERGO    R116456   4.866   5.419   5.836 -0.0049  0.0009  0.2386
 1212ERGO    R216457   4.821   5.324   6.091 -0.2448  0.0835  0.2295
 1212ERGO    R316458   4.928   5.563   6.165  0.0488 -0.0509  0.2511
 1212ERGO    R416459   4.851   5.434   6.418 -0.5059  0.1916  0.2198
 1212ERGO    R516460   4.794   5.633   6.350 -0.0924  0.2604  0.0379
 1212ERGO    C116461   4.970   5.722   6.677 -0.3822  0.1285  0.2345
 1212ERGO    C216462   5.188   5.715   7.002 -0.1018 -0.0273  0.0432
 1213ERGO   ROH16463  13.674   5.435   7.960  0.0602  0.1164  0.4840
 1213ERGO    R116464  13.439   5.396   8.112 -0.0344  0.2119  0.3632
 1213ERGO    R216465  13.212   5.550   8.077 -0.0639  0.0991  0.0263
 1213ERGO    R316466  13.092   5.309   8.045  0.0408  0.0190  0.2156
 1213ERGO    R416467  12.881   5.484   8.150 -0.0659  0.0432 -0.0309
 1213ERGO    R516468  12.943   5.291   8.232 -0.0206  0.1440  0.1798
 1213ERGO    C116469  12.575   5.219   8.163  0.0313 -0.0646  0.1135
 1213ERGO    C216470  12.305   5.253   8.077 -0.0611  0.0632  0.1368
 1214ERGO   ROH16471  10.632  17.286   6.233 -0.1334  0.0735 -0.1111
 1214ERGO    R116472  10.538  17.275   6.500 -0.1311  0.1995 -0.1046
 1214ERGO    R216473  10.689  17.172   6.707 -0.2402  0.0250 -0.1121
 1214ERGO    R316474  10.637  17.413   6.822  0.0573  0.0960 -0.1160
 1214ERGO    R416475  10.671  17.229   7.048 -0.2897  0.0222 -0.1139
 1214ERGO    R516476  10.500  17.360   7.011 -0.0946  0.2712 -0.1715
 1214ERGO    C116477  10.611  17.488   7.353 -0.0392  0.0871 -0.1186
 1214ERGO    C216478  10.741  17.681   7.686 -0.2028  0.0284  0.1101
 1215ERGO   ROH16479   8.957   4.166   5.830  0.3160 -0.0073 -0.0655
 1215ERGO    R116480   8.922   4.158   6.111  0.2881 -0.0211 -0.0691
 1215ERGO    R216481   8.783   3.956   6.239  0.1094  0.0719 -0.1096
 1215ERGO    R316482   9.013   3.933   6.383  0.0825 -0.1391 -0.0968
 1215ERGO    R416483   8.798   3.900   6.580  0.0418  0.1435 -0.0948
 1215ERGO    R516484   8.964   4.042   6.590  0.1945 -0.0321 -0.1266
 1215ERGO    C116485   9.022   3.847   6.913 -0.0228 -0.0130 -0.0742
 1215ERGO    C216486   9.241   3.774   7.162  0.2592  0.3709 -0.1033
 1216ERGO   ROH16487  12.378  15.533   6.243  0.1269 -0.3139  0.1949
 1216ERGO    R116488  12.308  15.476   6.512  0.0391 -0.0471  0.2301
 1216ERGO    R216489  12.491  15.381   6.696 -0.0753 -0.0804  0.3203
 1216ERGO    R316490  12.408  15.596   6.841  0.1073  0.1068  0.1563
 1216ERGO    R416491  12.600  15.459   7.015 -0.3034 -0.1721  0.4233
 1216ERGO    R516492  12.395  15.515   7.066 -0.2840  0.1836  0.1738
 1216ERGO    C116493  12.585  15.706   7.337 -0.2648 -0.0498  0.3294
 1216ERGO    C216494  12.619  15.991   7.550  0.0507 -0.0713 -0.1011
 1217ERGO   ROH16495  12.288   4.077   6.197  0.1569 -0.2567  0.0239
 1217ERGO    R116496  12.280   4.043   6.478  0.1300  0.0516  0.0630
 1217ERGO    R216497  12.143   4.216   6.646 -0.2251  0.0123 -0.1785
 1217ERGO    R316498  12.025   3.987   6.731  0.1445 -0.1045  0.0444
 1217ERGO    R416499  12.025   4.160   6.965 -0.1357  0.1368 -0.1228
 1217ERGO    R516500  12.103   3.958   6.954  0.1953  0.2438  0.0788
 1217ERGO    C116501  11.846   3.912   7.232  0.2631  0.0996  0.1188
 1217ERGO    C216502  11.633   3.454   7.378 -0.0401  0.0354  0.1396
 1218ERGO   ROH16503   7.840  17.067   6.040  0.3455 -0.1951 -0.1859
 1218ERGO    R116504   7.807  16.894   6.261  0.3065 -0.1739 -0.1741
 1218ERGO    R216505   8.017  16.755   6.374  0.3204 -0.0308 -0.0119
 1218ERGO    R316506   7.931  16.875   6.602  0.1026 -0.0345 -0.0908
 1218ERGO    R416507   7.946  16.590   6.669  0.4109  0.0126  0.0340
 1218ERGO    R516508   7.774  16.720   6.695  0.2506 -0.1777 -0.0799
 1218ERGO    C116509   7.824  16.606   7.055  0.2591  0.0344 -0.0136
 1218ERGO    C216510   7.836  16.404   7.375  0.1739  0.4216  0.0995
 1219ERGO   ROH16511   5.671   5.738   7.360 -0.1093 -0.1230 -0.2238
 1219ERGO    R116512   5.447   5.780   7.527 -0.0017 -0.0381 -0.0976
 1219ERGO    R216513   5.217   5.905   7.439 -0.0188  0.0181  0.0204
 1219ERGO    R316514   5.097   5.678   7.530 -0.0302  0.0623  0.1160
 1219ERGO    R416515   4.877   5.840   7.425  0.0115 -0.1005 -0.2305
 1219ERGO    R516516   4.891   5.753   7.624 -0.1412  0.0830 -0.1385
 1219ERGO    C116517   4.568   5.590   7.503  0.0184 -0.1281 -0.2869
 1219ERGO    C216518   4.162   5.482   7.504 -0.0697 -0.0991  0.0776
 1220ERGO   ROH16519  14.366   4.137   5.922  0.0397 -0.0537  0.0252
 1220ERGO    R116520  14.449   4.165   6.191  0.0968 -0.1466  0.0189
 1220ERGO    R216521  14.319   4.328   6.371  0.2841 -0.0061  0.0402
 1220ERGO    R316522  14.307   4.101   6.519  0.0566 -0.0027  0.0280
 1220ERGO    R416523  14.214   4.312   6.700  0.0862  0.0375 -0.0202
 1220ERGO    R516524  14.374   4.169   6.739 -0.0294 -0.0597  0.0671
 1220ERGO    C116525  14.142   4.089   7.031 -0.2427  0.0661 -0.0670
 1220ERGO    C216526  13.943   4.138   7.365  0.2535 -0.0257 -0.2023
 1221ERGO   ROH16527   8.341   0.415   5.956 -0.0616  0.0877 -0.0052
 1221ERGO    R116528   8.216   0.457   6.206 -0.0770 -0.0230  0.0051
 1221ERGO    R216529   8.218   0.267   6.407  0.1156 -0.0180  0.0046
 1221ERGO    R316530   8.320   0.471   6.555 -0.0585  0.0781 -0.0031
 1221ERGO    R416531   8.161   0.314   6.745  0.2197 -0.1654  0.0445
 1221ERGO    R516532   8.144   0.528   6.707 -0.0610 -0.1707  0.0965
 1221ERGO    C116533   8.223   0.533   7.080  0.1169 -0.1611  0.0606
 1221ERGO    C216534   8.063   0.635   7.346 -0.1356  0.2007  0.2916
 1222ERGO   ROH16535   1.428  15.146   5.688  0.0100  0.1794  0.0030
 1222ERGO    R116536   1.583  15.236   5.907 -0.0863  0.2281  0.0518
 1222ERGO    R216537   1.475  15.384   6.114 -0.2416  0.0245  0.1212
 1222ERGO    R316538   1.584  15.189   6.268 -0.0531  0.0550  0.0294
 1222ERGO    R416539   1.515  15.402   6.457 -0.3423 -0.1317  0.1419
 1222ERGO    R516540   1.710  15.307   6.434 -0.2256  0.1030  0.1284
 1222ERGO    C116541   1.641  15.229   6.801 -0.2241 -0.1938  0.0679
 1222ERGO    C216542   1.804  15.308   7.157 -0.0555 -0.1668 -0.0863
 1223ERGO   ROH16543  10.868   8.966   6.176  0.1800 -0.2751 -0.0300
 1223ERGO    R116544  10.814   8.798   6.397  0.1536 -0.1182  0.0849
 1223ERGO    R216545  11.012   8.708   6.568  0.1255  0.0404  0.1989
 1223ERGO    R316546  10.850   8.816   6.758  0.0643  0.1575  0.0829
 1223ERGO    R416547  11.019   8.626   6.904 -0.0716  0.1386  0.2289
 1223ERGO    R516548  10.801   8.633   6.905 -0.0738  0.2163  0.1153
 1223ERGO    C116549  10.871   8.679   7.278 -0.2439  0.3058  0.1375
 1223ERGO    C216550  10.945   8.693   7.684  0.1506  0.2815 -0.1649
 1224ERGO   ROH16551  10.953   3.942   9.523 -0.0788  0.2286 -0.0283
 1224ERGO    R116552  10.914   3.829   9.267  0.1555  0.0988 -0.0080
 1224ERGO    R216553  10.738   3.935   9.082  0.0072 -0.2373 -0.0633
 1224ERGO    R316554  10.958   3.934   8.922  0.0410  0.0892 -0.0263
 1224ERGO    R416555  10.731   3.923   8.737  0.0827 -0.0775 -0.0722
 1224ERGO    R516556  10.900   3.786   8.743  0.2393  0.1082 -0.1099
 1224ERGO    C116557  10.932   3.915   8.385  0.1586  0.3220 -0.0426
 1224ERGO    C216558  11.040   4.181   8.053  0.0936  0.0430 -0.1498
 1225ERGO   ROH16559   8.707   4.567   5.735 -0.1064 -0.3108  0.0011
 1225ERGO    R116560   8.591   4.756   5.911 -0.2437 -0.2933 -0.1096
 1225ERGO    R216561   8.350   4.711   6.039 -0.1020 -0.4886  0.0746
 1225ERGO    R316562   8.496   4.767   6.262 -0.0413 -0.0784 -0.0560
 1225ERGO    R416563   8.234   4.887   6.313 -0.1831 -0.3397 -0.0518
 1225ERGO    R516564   8.427   4.987   6.325 -0.2843 -0.0831 -0.2577
 1225ERGO    C116565   8.303   5.041   6.682 -0.1732  0.1320 -0.2480
 1225ERGO    C216566   8.052   4.991   7.019 -0.2089  0.4081 -0.1923
 1226ERGO   ROH16567  13.021   7.563   6.644  0.0230 -0.0479  0.1391
 1226ERGO    R116568  12.927   7.585   6.911 -0.2539 -0.0132  0.0426
 1226ERGO    R216569  12.672   7.509   6.986 -0.1773 -0.4704 -0.1216
 1226ERGO    R316570  12.806   7.358   7.168 -0.0168 -0.0556  0.1195
 1226ERGO    R416571  12.568   7.454   7.310 -0.2238 -0.2385 -0.0954
 1226ERGO    R516572  12.776   7.474   7.375 -0.2755  0.1520 -0.0285
 1226ERGO    C116573  12.633   7.279   7.671 -0.1003  0.2859  0.1461
 1226ERGO    C216574  12.595   7.016   7.947 -0.0303 -0.0126  0.3028
 1227ERGO   ROH16575  12.542   6.572   6.315 -0.0347 -0.1224 -0.0400
 1227ERGO    R116576  12.676   6.487   6.549 -0.0190 -0.0913 -0.0379
 1227ERGO    R216577  12.918   6.594   6.630 -0.0028 -0.0973 -0.0814
 1227ERGO    R316578  12.784   6.638   6.862  0.0247 -0.0441 -0.0752
 1227ERGO    R416579  13.056   6.738   6.912  0.0525 -0.0984 -0.1075
 1227ERGO    R516580  12.946   6.594   7.033  0.0294 -0.0628 -0.0835
 1227ERGO    C116581  13.010   6.864   7.295  0.1105 -0.0491 -0.1169
 1227ERGO    C216582  12.987   6.891   7.595  0.2263  0.0959  0.0948
 1228ERGO   ROH16583   9.407   4.890   9.465  0.1195  0.0938  0.1066
 1228ERGO    R116584   9.356   4.843   9.191  0.0888  0.2152  0.0916
 1228ERGO    R216585   9.506   4.958   8.990  0.2601  0.0645  0.1345
 1228ERGO    R316586   9.536   4.701   8.908 -0.0617  0.0385  0.0820
 1228ERGO    R416587   9.594   4.862   8.670  0.3057  0.0332  0.1557
 1228ERGO    R516588   9.449   4.699   8.685  0.0583  0.2292  0.0290
 1228ERGO    C116589   9.673   4.564   8.407  0.0303 -0.0094  0.1188
 1228ERGO    C216590   9.621   4.220   8.160  0.2487 -0.2137 -0.1277
 1229ERGO   ROH16591   0.547   6.113   6.070 -0.0974 -0.0231  0.0239
 1229ERGO    R116592   0.621   5.997   6.318  0.1122 -0.0101 -0.0309
 1229ERGO    R216593   0.874   6.024   6.425  0.0475  0.4681  0.0189
 1229ERGO    R316594   0.738   6.116   6.641 -0.1865  0.0607  0.0549
 1229ERGO    R416595   0.955   5.956   6.754  0.0052  0.2578 -0.0133
 1229ERGO    R516596   0.743   5.935   6.797  0.0088 -0.0941 -0.1227
 1229ERGO    C116597   0.874   6.003   7.148 -0.2391 -0.2472  0.0017
 1229ERGO    C216598   0.931   6.200   7.475 -0.1199 -0.0622 -0.1878
 1230ERGO   ROH16599   6.320   0.215   5.724  0.2937 -0.0908  0.1590
 1230ERGO    R116600   6.261   0.266   5.996  0.1321 -0.1160  0.1293
 1230ERGO    R216601   6.223   0.521   6.095  0.1387 -0.1216  0.1421
 1230ERGO    R316602   5.988   0.416   6.184  0.0513 -0.0700 -0.0227
 1230ERGO    R416603   6.084   0.586   6.405 -0.1134 -0.0132  0.0090
 1230ERGO    R516604   6.027   0.375   6.417 -0.1464 -0.0048  0.0242
 1230ERGO    C116605   5.782   0.526   6.668 -0.3422  0.0983 -0.2233
 1230ERGO    C216606   5.769   0.709   7.037 -0.3383  0.1436  0.0477
 1231ERGO   ROH16607   6.699   2.927   6.857 -0.1239 -0.0791 -0.3079
 1231ERGO    R116608   6.822   2.803   7.079 -0.1269 -0.0639 -0.2979
 1231ERGO    R216609   6.727   2.832   7.337 -0.0708  0.0366 -0.2882
 1231ERGO    R316610   6.727   2.560   7.333 -0.1661  0.0348 -0.2172
 1231ERGO    R416611   6.875   2.631   7.576  0.1067  0.0508 -0.3839
 1231ERGO    R516612   6.943   2.499   7.416 -0.0993 -0.0148 -0.4210
 1231ERGO    C116613   6.961   2.259   7.711  0.1206  0.0574 -0.3731
 1231ERGO    C216614   6.999   2.219   8.085  0.0717 -0.1396  0.1007
 1232ERGO   ROH16615   3.610   1.594   9.442  0.2886  0.3233 -0.0048
 1232ERGO    R116616   3.494   1.613   9.184  0.1983  0.1986  0.0257
 1232ERGO    R216617   3.497   1.846   9.036  0.0079  0.1703 -0.0234
 1232ERGO    R316618   3.610   1.687   8.847  0.0496  0.2026 -0.0257
 1232ERGO    R416619   3.471   1.895   8.695  0.0241  0.1916 -0.0215
 1232ERGO    R516620   3.449   1.680   8.671  0.0626  0.1882 -0.0383
 1232ERGO    C116621   3.562   1.775   8.319  0.0727  0.2343 -0.0226
 1232ERGO    C216622   3.719   1.893   8.019  0.2554  0.0291 -0.0174
 1233ERGO   ROH16623  11.875  13.394   6.146 -0.1685 -0.3724  0.1324
 1233ERGO    R116624  12.013  13.302   6.376  0.1734 -0.1608  0.0207
 1233ERGO    R216625  12.226  13.439   6.487 -0.0272  0.2548 -0.0754
 1233ERGO    R316626  12.076  13.424   6.713  0.1333 -0.1234  0.0130
 1233ERGO    R416627  12.350  13.462   6.808  0.1432  0.1007 -0.1289
 1233ERGO    R516628  12.213  13.304   6.868  0.3652 -0.1084 -0.1823
 1233ERGO    C116629  12.282  13.462   7.208  0.3931 -0.3441 -0.0770
 1233ERGO    C216630  12.439  13.593   7.436  0.0548 -0.0389 -0.1632
 1234ERGO   ROH16631   9.227   7.250  10.002  0.0949  0.0604 -0.0695
 1234ERGO    R116632   9.111   7.167   9.757 -0.1121  0.1050  0.0118
 1234ERGO    R216633   8.978   7.341   9.589  0.0948  0.2205 -0.0314
 1234ERGO    R316634   9.154   7.246   9.404 -0.1069 -0.1429 -0.0458
 1234ERGO    R416635   8.936   7.362   9.246  0.1233  0.3471 -0.0278
 1234ERGO    R516636   9.015   7.160   9.229 -0.3068  0.1674 -0.0503
 1234ERGO    C116637   9.077   7.285   8.874 -0.0495  0.0797 -0.0391
 1234ERGO    C216638   9.105   7.219   8.525  0.0931 -0.4053  0.4108
 1235ERGO   ROH16639  12.707  16.793   6.374  0.0695  0.2056 -0.1154
 1235ERGO    R116640  12.628  16.750   6.643 -0.1073  0.0939 -0.1822
 1235ERGO    R216641  12.613  16.498   6.755  0.1499  0.0629 -0.1995
 1235ERGO    R316642  12.777  16.607   6.942 -0.1593  0.3015 -0.0566
 1235ERGO    R416643  12.670  16.365   7.069  0.3117 -0.0196 -0.2635
 1235ERGO    R516644  12.666  16.567   7.150 -0.1624 -0.0790 -0.1284
 1235ERGO    C116645  12.859  16.389   7.427  0.1156  0.1564 -0.1666
 1235ERGO    C216646  13.062  16.276   7.672 -0.2275 -0.0594  0.2425
 1236ERGO   ROH16647  15.936   6.064   6.643  0.1667 -0.0288 -0.0045
 1236ERGO    R116648  16.000   6.072   6.918  0.0570  0.0616  0.0205
 1236ERGO    R216649  15.811   6.039   7.117  0.0035 -0.0632 -0.0419
 1236ERGO    R316650  15.980   5.844   7.201  0.1300  0.0820  0.0402
 1236ERGO    R416651  15.835   5.926   7.442 -0.1969 -0.1854 -0.0687
 1236ERGO    R516652  16.051   5.917   7.418 -0.1639  0.0595  0.1439
 1236ERGO    C116653  16.008   5.678   7.712 -0.1949 -0.1204 -0.0072
 1236ERGO    C216654  15.765   5.549   7.986  0.2360 -0.0285 -0.1401
 1237ERGO   ROH16655  17.449  14.819   6.649 -0.1522 -0.0558 -0.1001
 1237ERGO    R116656  17.498  14.572   6.778 -0.1398 -0.0547 -0.1015
 1237ERGO    R216657  17.713  14.410   6.715 -0.0460  0.0259  0.0011
 1237ERGO    R316658  17.763  14.428   6.981 -0.2034  0.0138  0.0318
 1237ERGO    R416659  17.925  14.202   6.890  0.0196  0.1525  0.0727
 1237ERGO    R516660  17.781  14.201   7.054 -0.0695  0.0120 -0.0042
 1237ERGO    C116661  18.095  14.096   7.243 -0.0902  0.2149  0.1432
 1237ERGO    C216662  18.301  13.931   7.427  0.2699  0.3917  0.0277
 1238ERGO   ROH16663  15.864  18.719   6.513  0.0736  0.0821 -0.1316
 1238ERGO    R116664  15.724  18.767   6.754  0.0671 -0.0640 -0.1056
 1238ERGO    R216665  15.806  18.663   6.997  0.2012 -0.0072 -0.1228
 1238ERGO    R316666  15.795  18.923   7.075 -0.0242 -0.0216 -0.1074
 1238ERGO    R416667  15.753  18.770   7.321  0.1079 -0.0616 -0.1199
 1238ERGO    R516668  15.625  18.928   7.243 -0.0253 -0.1719 -0.1089
 1238ERGO    C116669  15.712  19.076   7.583 -0.1580 -0.1066 -0.1038
 1238ERGO    C216670  15.559  19.250   7.809  0.0052  0.1516 -0.0493
 1239ERGO   ROH16671  17.806   7.614   6.435 -0.3121  0.3778  0.0608
 1239ERGO    R116672  17.865   7.662   6.708 -0.0787  0.0594  0.0722
 1239ERGO    R216673  18.103   7.584   6.824  0.0661  0.0006 -0.2413
 1239ERGO    R316674  18.117   7.846   6.895  0.0246 -0.0785  0.0671
 1239ERGO    R416675  18.297   7.708   7.082  0.0570 -0.2575 -0.1082
 1239ERGO    R516676  18.132   7.841   7.134  0.0416 -0.3500  0.0594
 1239ERGO    C116677  18.422   8.026   7.300  0.0130 -0.4821  0.2589
 1239ERGO    C216678  18.617   8.080   7.616 -0.2001  0.2341  0.2222
 1240ERGO   ROH16679   2.407  12.241   9.557 -0.2779 -0.1523  0.0225
 1240ERGO    R116680   2.524  12.307   9.308 -0.1401 -0.1597  0.0851
 1240ERGO    R216681   2.461  12.175   9.074 -0.1430 -0.0472  0.0251
 1240ERGO    R316682   2.407  12.425   8.984  0.0631  0.0145  0.0727
 1240ERGO    R416683   2.473  12.272   8.743 -0.0555  0.0029  0.0426
 1240ERGO    R516684   2.564  12.460   8.807  0.0972 -0.0817  0.0819
 1240ERGO    C116685   2.429  12.564   8.466  0.1890  0.0899  0.0976
 1240ERGO    C216686   2.405  12.667   8.168 -0.0291 -0.2077 -0.0647
 1241ERGO   ROH16687   2.084  11.753   5.774  0.1240 -0.0474  0.0170
 1241ERGO    R116688   2.072  11.802   6.052  0.1049 -0.0581  0.0188
 1241ERGO    R216689   2.045  11.600   6.239  0.1107 -0.0693  0.0128
 1241ERGO    R316690   2.268  11.713   6.346  0.0970 -0.0543  0.0239
 1241ERGO    R416691   2.170  11.530   6.553 -0.0310  0.1232  0.1134
 1241ERGO    R516692   2.214  11.742   6.577  0.0152  0.1253 -0.0193
 1241ERGO    C116693   2.452  11.595   6.837 -0.1265  0.2493  0.1823
 1241ERGO    C216694   2.644  11.430   6.909  0.2972  0.1038 -0.0409
 1242ERGO   ROH16695  14.782   5.654   6.454  0.0763  0.1941  0.0049
 1242ERGO    R116696  14.726   5.695   6.728 -0.1529  0.5710 -0.0923
 1242ERGO    R216697  14.885   5.594   6.930 -0.8773 -0.1064  0.1944
 1242ERGO    R316698  14.891   5.854   7.011  0.1935 -0.0437  0.0668
 1242ERGO    R416699  14.911   5.697   7.259 -0.9277 -0.0647  0.1863
 1242ERGO    R516700  14.766   5.854   7.215 -0.1625  0.6242 -0.1265
 1242ERGO    C116701  14.931   6.000   7.527  0.0482  0.0185  0.0619
 1242ERGO    C216702  14.905   5.993   7.868 -0.2076 -0.3870  0.0671
 1243ERGO   ROH16703  12.528   2.649   6.404 -0.0486  0.2053 -0.0454
 1243ERGO    R116704  12.485   2.777   6.653 -0.0432  0.1358 -0.0084
 1243ERGO    R216705  12.517   2.647   6.895  0.0769  0.0995 -0.0405
 1243ERGO    R316706  12.685   2.854   6.948 -0.0020  0.1639 -0.0448
 1243ERGO    R416707  12.709   2.679   7.181  0.1762  0.1137 -0.1082
 1243ERGO    R516708  12.662   2.892   7.183  0.0757  0.0868 -0.0275
 1243ERGO    C116709  12.978   2.893   7.396  0.1601  0.1824 -0.1516
 1243ERGO    C216710  13.165   3.062   7.609 -0.2514 -0.2448 -0.1145
 1244ERGO   ROH16711   4.321  12.203   5.400 -0.1174  0.1184  0.1236
 1244ERGO    R116712   4.468  12.211   5.641 -0.1260  0.1307  0.1283
 1244ERGO    R216713   4.694  12.368   5.673 -0.0441  0.0229  0.0808
 1244ERGO    R316714   4.558  12.463   5.888 -0.0050  0.1768  0.0385
 1244ERGO    R416715   4.840  12.517   5.948  0.0289 -0.0194  0.0652
 1244ERGO    R516716   4.698  12.410   6.075 -0.0703  0.1162  0.0713
 1244ERGO    C116717   4.797  12.693   6.311  0.1081  0.1004  0.0166
 1244ERGO    C216718   4.888  12.772   6.624 -0.2635  0.0218 -0.0011
 1245ERGO   ROH16719   7.596   5.413   5.900  0.1461  0.2158 -0.1619
 1245ERGO    R116720   7.703   5.541   6.129  0.0967  0.1506 -0.0997
 1245ERGO    R216721   7.565   5.737   6.268  0.0169  0.0370 -0.0014
 1245ERGO    R316722   7.612   5.574   6.480  0.0796 -0.0531 -0.0864
 1245ERGO    R416723   7.561   5.836   6.599  0.2897 -0.0782  0.0374
 1245ERGO    R516724   7.735   5.709   6.635  0.2469 -0.1709 -0.1210
 1245ERGO    C116725   7.603   5.739   6.991  0.5075 -0.2299 -0.0198
 1245ERGO    C216726   7.599   5.713   7.352 -0.0180 -0.0926 -0.0804
 1246ERGO   ROH16727  16.841   5.726   6.458  0.0845 -0.2875  0.0049
 1246ERGO    R116728  17.053   5.806   6.628  0.0578 -0.0585 -0.0669
 1246ERGO    R216729  17.129   6.070   6.657 -0.1978  0.0207 -0.1168
 1246ERGO    R316730  17.091   6.018   6.921 -0.0633  0.0092 -0.0986
 1246ERGO    R416731  17.303   6.220   6.916 -0.3166  0.2853 -0.1862
 1246ERGO    R516732  17.311   6.027   7.016 -0.0438  0.3042 -0.1578
 1246ERGO    C116733  17.369   6.257   7.314 -0.2594  0.4287 -0.2095
 1246ERGO    C216734  17.390   6.488   7.460  0.0117 -0.1983  0.1211
 1247ERGO   ROH16735   0.574  14.471   9.515 -0.1745 -0.1966 -0.0098
 1247ERGO    R116736   0.665  14.514   9.251 -0.1958 -0.0323  0.0085
 1247ERGO    R216737   0.818  14.329   9.114  0.0015  0.1564 -0.0309
 1247ERGO    R316738   0.622  14.353   8.927 -0.0097  0.0120 -0.0393
 1247ERGO    R416739   0.786  14.128   8.835  0.0766  0.0416  0.0421
 1247ERGO    R516740   0.732  14.305   8.720  0.0070 -0.0211 -0.0228
 1247ERGO    C116741   0.585  14.033   8.496  0.1098 -0.1609  0.0766
 1247ERGO    C216742   0.402  13.949   8.264 -0.0687 -0.1687  0.1919
 1248ERGO   ROH16743   1.979   8.289   5.684  0.0028  0.1295  0.0369
 1248ERGO    R116744   2.028   8.456   5.907 -0.0110  0.0981  0.0634
 1248ERGO    R216745   1.856   8.472   6.123 -0.0172  0.0576  0.0604
 1248ERGO    R316746   2.080   8.412   6.265 -0.0185  0.0470  0.0584
 1248ERGO    R416747   1.890   8.514   6.464 -0.0771 -0.1132  0.0885
 1248ERGO    R516748   2.094   8.585   6.430 -0.0920 -0.0350  0.1528
 1248ERGO    C116749   2.120   8.482   6.796 -0.1132 -0.2224  0.1029
 1248ERGO    C216750   2.098   8.429   7.239 -0.1056 -0.0404  0.1019
 1249ERGO   ROH16751   8.477  18.214   5.768  0.2479  0.0514  0.0524
 1249ERGO    R116752   8.420  18.125   6.030  0.2007 -0.0034  0.0237
 1249ERGO    R216753   8.611  18.010   6.194  0.2076  0.0963  0.0857
 1249ERGO    R316754   8.533  18.204   6.367  0.0271  0.0373  0.0739
 1249ERGO    R416755   8.744  18.058   6.509  0.1024  0.1837  0.1174
 1249ERGO    R516756   8.543  18.100   6.582  0.0538  0.0371  0.0734
 1249ERGO    C116757   8.748  18.269   6.855 -0.1281  0.1791  0.1247
 1249ERGO    C216758   9.129  18.408   7.058  0.1073  0.0108  0.4914
 1250ERGO   ROH16759  16.510   3.210   5.597  0.0274 -0.0008  0.0029
 1250ERGO    R116760  16.531   3.128   5.867  0.1317 -0.2316 -0.0705
 1250ERGO    R216761  16.745   2.980   5.962  0.3533 -0.0215 -0.2048
 1250ERGO    R316762  16.761   3.183   6.143  0.0474 -0.1522 -0.0156
 1250ERGO    R416763  16.895   2.957   6.273  0.2194 -0.1264 -0.1486
 1250ERGO    R516764  16.732   3.076   6.355  0.0490 -0.3667 -0.1217
 1250ERGO    C116765  16.998   3.133   6.623 -0.1456 -0.3103  0.0617
 1250ERGO    C216766  17.197   3.329   6.902  0.1259  0.0003 -0.1255
 1251ERGO   ROH16767  10.422   6.542   6.149  0.1853  0.1705  0.0000
 1251ERGO    R116768  10.326   6.414   6.382  0.1835  0.0849 -0.0465
 1251ERGO    R216769  10.456   6.431   6.625  0.2001 -0.0284 -0.0412
 1251ERGO    R316770  10.213   6.516   6.712  0.2135 -0.0346 -0.0004
 1251ERGO    R416771  10.368   6.473   6.957  0.2159 -0.1117 -0.0270
 1251ERGO    R516772  10.172   6.388   6.911  0.2119 -0.0814 -0.0361
 1251ERGO    C116773  10.089   6.576   7.232  0.2376 -0.1660  0.0197
 1251ERGO    C216774   9.966   6.537   7.575 -0.0870 -0.0795  0.2434
 1252ERGO   ROH16775  16.150   7.698   6.350  0.2488  0.1578 -0.0177
 1252ERGO    R116776  16.065   7.565   6.584  0.2158  0.0212 -0.1062
 1252ERGO    R216777  16.241   7.458   6.768  0.1917  0.0547 -0.0659
 1252ERGO    R316778  16.101   7.612   6.943  0.0227 -0.0910 -0.0697
 1252ERGO    R416779  16.296   7.468   7.109  0.0683 -0.0072 -0.0437
 1252ERGO    R516780  16.080   7.475   7.139  0.0499 -0.1652 -0.1163
 1252ERGO    C116781  16.196   7.618   7.473 -0.1624 -0.1799 -0.0343
 1252ERGO    C216782  16.229   7.680   7.920  0.3699 -0.0093  0.1985
 1253ERGO   ROH16783   5.143  11.296   5.662 -0.1125 -0.1807  0.0256
 1253ERGO    R116784   5.155  11.309   5.944 -0.0593  0.1245  0.0132
 1253ERGO    R216785   5.082  11.534   6.086 -0.5200  0.1166 -0.1903
 1253ERGO    R316786   4.919  11.360   6.217 -0.1057 -0.1252  0.0210
 1253ERGO    R416787   5.016  11.544   6.425 -0.4328  0.2781 -0.1773
 1253ERGO    R516788   5.028  11.326   6.428  0.0408  0.2988  0.0207
 1253ERGO    C116789   4.825  11.386   6.745  0.0069  0.1450  0.0286
 1253ERGO    C216790   4.679  11.565   7.089  0.0433 -0.4710 -0.0670
 1254ERGO   ROH16791   6.891  11.117   6.163 -0.1193 -0.1348  0.0255
 1254ERGO    R116792   6.768  11.111   6.418 -0.0335 -0.0585  0.0690
 1254ERGO    R216793   6.858  10.948   6.623  0.0887  0.0673  0.1154
 1254ERGO    R316794   6.868  11.182   6.761  0.0545  0.1343  0.0055
 1254ERGO    R416795   6.825  10.977   6.966  0.2072  0.2045  0.1160
 1254ERGO    R516796   6.705  11.155   6.934  0.1274  0.1483  0.0793
 1254ERGO    C116797   6.816  11.213   7.295  0.2440  0.3473  0.0132
 1254ERGO    C216798   6.984  11.327   7.667 -0.1621  0.1236  0.0529
 1255ERGO   ROH16799   2.181   3.919   6.056 -0.2179  0.2974  0.0850
 1255ERGO    R116800   2.240   4.023   6.313 -0.1683  0.2189  0.1067
 1255ERGO    R216801   2.044   4.113   6.486 -0.1358  0.1855  0.1669
 1255ERGO    R316802   2.161   3.938   6.657 -0.1209  0.1238  0.0931
 1255ERGO    R416803   2.070   4.158   6.827  0.2466  0.2435  0.1345
 1255ERGO    R516804   2.271   4.076   6.818  0.1645  0.0623 -0.0471
 1255ERGO    C116805   2.194   4.019   7.187  0.4832  0.2195  0.0464
 1255ERGO    C216806   2.268   3.811   7.438  0.1361 -0.3547 -0.0127
 1256ERGO   ROH16807   1.121  11.411   6.237  0.1587 -0.0133 -0.0879
 1256ERGO    R116808   1.156  11.224   6.446  0.1490  0.0030 -0.0726
 1256ERGO    R216809   1.320  11.272   6.664 -0.0621  0.1260  0.0580
 1256ERGO    R316810   1.095  11.213   6.804 -0.1251 -0.0700 -0.1182
 1256ERGO    R416811   1.306  11.224   7.006 -0.2720  0.0419  0.0395
 1256ERGO    R516812   1.167  11.060   6.973 -0.1320 -0.0564 -0.0991
 1256ERGO    C116813   1.086  11.141   7.337 -0.4534 -0.1912 -0.1365
 1256ERGO    C216814   1.120  11.069   7.730  0.1711 -0.0048 -0.2131
 1257ERGO   ROH16815   6.082  15.953   5.969  0.0653 -0.0161  0.1302
 1257ERGO    R116816   6.168  15.912   6.236  0.0747 -0.1893  0.1002
 1257ERGO    R216817   6.056  16.045   6.451  0.2294 -0.1708  0.1626
 1257ERGO    R316818   6.019  15.793   6.546  0.0255 -0.1736  0.0852
 1257ERGO    R416819   5.924  15.968   6.761  0.3726 -0.1379  0.2334
 1257ERGO    R516820   6.072  15.809   6.779  0.2213 -0.3150  0.0589
 1257ERGO    C116821   5.813  15.686   7.031  0.2647 -0.1216  0.2019
 1257ERGO    C216822   5.782  15.451   7.221 -0.2230  0.2042 -0.5077
 1258ERGO   ROH16823   8.609  12.045   6.103 -0.1412 -0.1028  0.0320
 1258ERGO    R116824   8.558  12.027   6.380 -0.2038  0.0207  0.0285
 1258ERGO    R216825   8.715  11.878   6.551 -0.3390 -0.0344  0.1014
 1258ERGO    R316826   8.733  12.112   6.688 -0.2002 -0.0036  0.0342
 1258ERGO    R416827   8.890  11.921   6.846 -0.1224  0.0004 -0.0289
 1258ERGO    R516828   8.726  12.047   6.918 -0.0522  0.0493  0.0567
 1258ERGO    C116829   9.008  12.167   7.147  0.1340  0.0496 -0.1678
 1258ERGO    C216830   9.063  12.360   7.378  0.0098 -0.0672 -0.0853
 1259ERGO   ROH16831   9.271   3.030   5.682 -0.0429  0.0426  0.1135
 1259ERGO    R116832   9.299   3.058   5.963  0.1141  0.1957  0.0850
 1259ERGO    R216833   9.345   3.303   6.084 -0.2463  0.3361 -0.0394
 1259ERGO    R316834   9.125   3.235   6.229 -0.0236 -0.0252  0.1428
 1259ERGO    R416835   9.260   3.441   6.389 -0.2402  0.2067  0.0210
 1259ERGO    R516836   9.200   3.243   6.456  0.1441  0.1083  0.0820
 1259ERGO    C116837   9.004   3.458   6.703 -0.0276 -0.2079  0.2271
 1259ERGO    C216838   8.915   3.383   7.084 -0.3527 -0.0462  0.0886
 1260ERGO   ROH16839  12.902  11.699   6.356 -0.0060 -0.1338 -0.1091
 1260ERGO    R116840  12.941  11.882   6.568 -0.1010 -0.1168 -0.1056
 1260ERGO    R216841  12.887  11.819   6.831  0.0124 -0.1797 -0.0968
 1260ERGO    R316842  13.145  11.898   6.870 -0.0399  0.0230 -0.1533
 1260ERGO    R416843  13.073  11.757   7.117  0.1746 -0.1737 -0.1995
 1260ERGO    R516844  13.154  11.959   7.101 -0.0057 -0.0927 -0.1238
 1260ERGO    C116845  13.422  11.796   7.319  0.2200  0.0202 -0.3123
 1260ERGO    C216846  13.702  11.837   7.533  0.1080 -0.1039 -0.2781
 1261ERGO   ROH16847   8.703   7.180   6.156 -0.0168 -0.0744  0.0417
 1261ERGO    R116848   8.508   7.238   6.353  0.0320  0.0473  0.0550
 1261ERGO    R216849   8.456   7.069   6.565 -0.0889  0.0579  0.0342
 1261ERGO    R316850   8.503   7.292   6.712  0.0841  0.0040  0.0626
 1261ERGO    R416851   8.384   7.103   6.901  0.1054  0.0083  0.0823
 1261ERGO    R516852   8.316   7.307   6.861  0.1684  0.0471  0.1666
 1261ERGO    C116853   8.386   7.333   7.235  0.3810 -0.0711  0.1370
 1261ERGO    C216854   8.527   7.622   7.553  0.2345  0.2436 -0.1125
 1262ERGO   ROH16855  12.387   1.569   6.163  0.1864 -0.0139  0.0058
 1262ERGO    R116856  12.263   1.701   6.381  0.3267  0.0579  0.0432
 1262ERGO    R216857  12.034   1.606   6.502  0.1184  0.3608 -0.0991
 1262ERGO    R316858  12.185   1.622   6.728  0.0712 -0.0326 -0.0328
 1262ERGO    R416859  11.909   1.592   6.824 -0.0610  0.6321 -0.1550
 1262ERGO    R516860  12.050   1.749   6.880  0.3093  0.2892 -0.0799
 1262ERGO    C116861  11.977   1.600   7.223 -0.2099  0.4207 -0.1253
 1262ERGO    C216862  11.870   1.515   7.600 -0.4204  0.1233 -0.4000
 1263ERGO   ROH16863  16.112  10.176   6.438 -0.0436  0.0177 -0.0153
 1263ERGO    R116864  16.096  10.252   6.710  0.0902 -0.0341  0.0070
 1263ERGO    R216865  15.857  10.274   6.846  0.1392  0.1636  0.0632
 1263ERGO    R316866  15.977  10.104   7.021  0.0154  0.0031 -0.0038
 1263ERGO    R416867  15.743  10.205   7.165  0.0668  0.0823  0.0212
 1263ERGO    R516868  15.950  10.209   7.234  0.0627 -0.0812  0.0439
 1263ERGO    C116869  15.791  10.006   7.515 -0.0917 -0.1158 -0.0661
 1263ERGO    C216870  15.627   9.783   7.859 -0.3284 -0.0542 -0.1320
 1264ERGO   ROH16871  14.828  15.636   6.206  0.1995 -0.1636  0.0391
 1264ERGO    R116872  14.861  15.566   6.478 -0.1595 -0.0917  0.1065
 1264ERGO    R216873  15.062  15.671   6.636 -0.0072 -0.4773  0.1815
 1264ERGO    R316874  14.855  15.738   6.799  0.0251  0.1159  0.0002
 1264ERGO    R416875  15.090  15.741   6.974 -0.0833 -0.3561  0.1630
 1264ERGO    R516876  14.905  15.631   7.007 -0.3820  0.1031  0.0981
 1264ERGO    C116877  14.911  15.846   7.322 -0.0972  0.2713 -0.0179
 1264ERGO    C216878  14.816  15.769   7.673  0.1646 -0.3156  0.1621
 1265ERGO   ROH16879   1.446   9.480   5.946 -0.1180 -0.3908 -0.0447
 1265ERGO    R116880   1.583   9.273   6.082 -0.0180 -0.2514  0.0696
 1265ERGO    R216881   1.713   9.314   6.321 -0.0844 -0.0701  0.0725
 1265ERGO    R316882   1.558   9.108   6.406  0.0273 -0.1285  0.1385
 1265ERGO    R416883   1.785   9.114   6.594  0.1166 -0.0392  0.0441
 1265ERGO    R516884   1.716   8.942   6.478  0.1288 -0.0689  0.0700
 1265ERGO    C116885   1.680   8.804   6.832  0.3385 -0.0761  0.0896
 1265ERGO    C216886   1.752   8.727   7.074 -0.3016  0.0538 -0.0180
 1266ERGO   ROH16887   4.744  17.422   5.535 -0.0310  0.1116 -0.0746
 1266ERGO    R116888   4.774  17.375   5.813  0.0012  0.0560 -0.0870
 1266ERGO    R216889   4.998  17.455   5.953  0.0421 -0.0212 -0.1069
 1266ERGO    R316890   4.815  17.579   6.112  0.0954 -0.0055 -0.0575
 1266ERGO    R416891   5.074  17.648   6.230  0.1147 -0.5245  0.2380
 1266ERGO    R516892   4.904  17.559   6.333 -0.0834 -0.4538 -0.0152
 1266ERGO    C116893   4.946  17.877   6.539  0.2069 -0.8031  0.4853
 1266ERGO    C216894   5.085  17.920   6.768 -0.0660 -0.0106 -0.1138
 1267ERGO   ROH16895   0.592  11.009   9.530 -0.2772 -0.1659  0.0224
 1267ERGO    R116896   0.612  11.111   9.267 -0.1659 -0.1131  0.0502
 1267ERGO    R216897   0.791  11.011   9.081 -0.1619 -0.1492  0.0716
 1267ERGO    R316898   0.567  10.982   8.929 -0.1376 -0.0163  0.0094
 1267ERGO    R416899   0.787  10.994   8.736 -0.0827 -0.0963  0.0681
 1267ERGO    R516900   0.608  11.118   8.737 -0.0213 -0.0082  0.0397
 1267ERGO    C116901   0.574  10.957   8.393 -0.0137  0.0593  0.0077
 1267ERGO    C216902   0.542  10.925   8.064  0.0586  0.1312  0.1454
 1268ERGO   ROH16903  16.162  11.191   6.552 -0.0544 -0.2036 -0.0698
 1268ERGO    R116904  16.266  11.133   6.809  0.0541 -0.0318 -0.0734
 1268ERGO    R216905  16.399  11.321   6.963 -0.2136  0.1802 -0.0988
 1268ERGO    R316906  16.213  11.252   7.149 -0.0992 -0.0850 -0.0767
 1268ERGO    R416907  16.468  11.241   7.292 -0.0585  0.3291 -0.0938
 1268ERGO    R516908  16.319  11.083   7.280  0.1797  0.0908 -0.0628
 1268ERGO    C116909  16.334  11.131   7.658  0.1391  0.1669 -0.0702
 1268ERGO    C216910  16.353  11.039   8.078  0.2140  0.0907 -0.1835
 1269ERGO   ROH16911   3.910   9.490   5.678 -0.2210 -0.3975  0.0499
 1269ERGO    R116912   3.774   9.347   5.881 -0.0534 -0.3639  0.1900
 1269ERGO    R216913   3.906   9.212   6.083  0.1114 -0.1922  0.2018
 1269ERGO    R316914   3.747   9.363   6.244  0.1098 -0.1890  0.1961
 1269ERGO    R416915   3.844   9.147   6.416 -0.2952 -0.4814  0.0777
 1269ERGO    R516916   3.636   9.204   6.384 -0.2064 -0.2241 -0.0794
 1269ERGO    C116917   3.659   9.251   6.762 -0.5335 -0.6469  0.0000
 1269ERGO    C216918   3.721   9.089   7.061 -0.1973 -0.1474 -0.0758
 1270ERGO   ROH16919   5.736  16.811   6.012  0.2169  0.0439 -0.0991
 1270ERGO    R116920   5.876  16.971   6.199  0.2409 -0.1400  0.0402
 1270ERGO    R216921   5.748  17.123   6.391  0.2518 -0.0324 -0.0506
 1270ERGO    R316922   5.910  16.987   6.561 -0.0355 -0.2301  0.0747
 1270ERGO    R416923   5.817  17.219   6.715  0.3767  0.0913 -0.1114
 1270ERGO    R516924   6.024  17.158   6.684  0.2810 -0.3424 -0.0394
 1270ERGO    C116925   6.010  17.147   7.065  0.1797 -0.0222 -0.0293
 1270ERGO    C216926   5.994  17.232   7.346 -0.1987  0.1730  0.2809
 1271ERGO   ROH16927   0.721  18.661   6.268 -0.0033 -0.1044 -0.0036
 1271ERGO    R116928   0.908  18.740   6.465  0.0256 -0.0606 -0.0473
 1271ERGO    R216929   0.846  18.747   6.735  0.0430  0.0635 -0.0414
 1271ERGO    R316930   1.066  18.589   6.756  0.0099  0.0247  0.0045
 1271ERGO    R416931   1.057  18.736   7.008  0.0552  0.1056 -0.0499
 1271ERGO    R516932   1.226  18.723   6.872  0.0437  0.0238 -0.0486
 1271ERGO    C116933   1.386  18.581   7.187  0.0313  0.0938 -0.0117
 1271ERGO    C216934   1.535  18.572   7.514  0.1364  0.0053  0.0585
 1272ERGO   ROH16935  14.793   9.248   6.375 -0.3073 -0.0669  0.0385
 1272ERGO    R116936  14.853   9.293   6.648 -0.1681  0.0325 -0.0071
 1272ERGO    R216937  14.945   9.093   6.815 -0.2542  0.0479  0.0633
 1272ERGO    R316938  15.147   9.269   6.862 -0.1015 -0.0771 -0.1108
 1272ERGO    R416939  15.125   9.115   7.110 -0.2486  0.2050  0.0489
 1272ERGO    R516940  15.119   9.332   7.091 -0.0575  0.1902 -0.1781
 1272ERGO    C116941  15.418   9.293   7.325 -0.1021  0.1793 -0.1230
 1272ERGO    C216942  15.423   9.221   7.659 -0.0639  0.1315  0.1209
 1273ERGO   ROH16943   5.426   0.167   9.184  0.0076 -0.1502  0.1468
 1273ERGO    R116944   5.293   0.124   8.938  0.0275 -0.1212  0.1305
 1273ERGO    R216945   5.017   0.107   8.918  0.0257 -0.0884  0.1009
 1273ERGO    R316946   5.051   0.303   8.732  0.0693 -0.0813  0.1168
 1273ERGO    R416947   4.840   0.132   8.622  0.0178 -0.0100  0.1124
 1273ERGO    R516948   5.025   0.191   8.522  0.0270 -0.0525  0.1084
 1273ERGO    C116949   4.769   0.330   8.276  0.0542  0.0423  0.1341
 1273ERGO    C216950   4.737   0.258   8.003 -0.1943 -0.1822  0.1329
 1274ERGO   ROH16951  11.381  18.213   6.112  0.3104  0.1318  0.0107
 1274ERGO    R116952  11.318  18.222   6.388  0.0185 -0.0696 -0.0431
 1274ERGO    R216953  11.309  17.997   6.547  0.3576 -0.1404 -0.1126
 1274ERGO    R316954  11.485  18.136   6.700 -0.0842  0.2153  0.0937
 1274ERGO    R416955  11.336  17.969   6.890  0.2943 -0.4010 -0.1270
 1274ERGO    R516956  11.363  18.185   6.901 -0.3141 -0.3194  0.0995
 1274ERGO    C116957  11.517  18.083   7.234 -0.1572 -0.2190  0.0582
 1274ERGO    C216958  11.763  18.084   7.550  0.1534  0.2473 -0.0331
 1275ERGO   ROH16959   1.402   3.723   9.283 -0.0662  0.0342  0.1059
 1275ERGO    R116960   1.310   3.723   9.015 -0.2622  0.2396  0.1698
 1275ERGO    R216961   1.245   3.955   8.880  0.1951  0.4004  0.2106
 1275ERGO    R316962   1.422   3.859   8.697 -0.1530 -0.0396  0.0845
 1275ERGO    R416963   1.237   4.026   8.542  0.3643  0.7855  0.2828
 1275ERGO    R516964   1.289   3.818   8.502 -0.3576  0.6154  0.0588
 1275ERGO    C116965   1.399   3.978   8.173  0.1359  0.5966  0.2067
 1275ERGO    C216966   1.464   3.939   7.869  0.1637  0.1833 -0.0790
 1276ERGO   ROH16967   2.029   5.175   6.433  0.0172  0.0386 -0.1398
 1276ERGO    R116968   2.148   5.399   6.558 -0.0324  0.0410 -0.0970
 1276ERGO    R216969   2.001   5.613   6.653 -0.0817 -0.0240 -0.0306
 1276ERGO    R316970   2.132   5.559   6.884 -0.0436 -0.0421 -0.0558
 1276ERGO    R416971   2.105   5.850   6.881  0.1194 -0.0231 -0.1206
 1276ERGO    R516972   2.289   5.738   6.907  0.0657 -0.1230 -0.1477
 1276ERGO    C116973   2.289   5.938   7.232  0.2721 -0.0396 -0.1967
 1276ERGO    C216974   2.238   6.059   7.555  0.0123 -0.0672  0.4260
 1277ERGO   ROH16975  14.119   5.464   6.305  0.1047 -0.1327  0.0090
 1277ERGO    R116976  14.077   5.509   6.581  0.2110 -0.1647  0.0293
 1277ERGO    R216977  13.826   5.541   6.690  0.2736  0.1504  0.0752
 1277ERGO    R316978  13.906   5.339   6.854  0.0159 -0.0168  0.0032
 1277ERGO    R416979  13.672   5.455   6.988  0.0958  0.1796 -0.0054
 1277ERGO    R516980  13.870   5.424   7.075  0.0474 -0.0745  0.0352
 1277ERGO    C116981  13.659   5.216   7.315 -0.2494  0.0396 -0.1199
 1277ERGO    C216982  13.347   5.249   7.642 -0.0193 -0.3480 -0.0688
 1278ERGO   ROH16983   5.835  13.094   5.441 -0.1014 -0.0817 -0.1091
 1278ERGO    R116984   5.867  13.138   5.719 -0.0843 -0.1832 -0.0947
 1278ERGO    R216985   5.683  13.279   5.870  0.0014 -0.1054 -0.0631
 1278ERGO    R316986   5.685  13.055   6.023 -0.1531 -0.1522 -0.1271
 1278ERGO    R416987   5.513  13.243   6.168  0.1228 -0.0063  0.0198
 1278ERGO    R516988   5.685  13.137   6.248  0.0567 -0.2134 -0.1032
 1278ERGO    C116989   5.415  13.010   6.486  0.0485  0.0074  0.0080
 1278ERGO    C216990   5.334  12.957   6.860 -0.0870  0.4452  0.3985
 1279ERGO   ROH16991  18.531   5.495   6.286 -0.1014 -0.1325  0.0482
 1279ERGO    R116992  18.608   5.450   6.555 -0.1320 -0.0471  0.0718
 1279ERGO    R216993  18.442   5.327   6.738 -0.0271 -0.2962  0.0021
 1279ERGO    R316994  18.655   5.161   6.771  0.1969 -0.0036  0.0649
 1279ERGO    R416995  18.535   5.185   7.039 -0.0690 -0.3435 -0.0076
 1279ERGO    R516996  18.744   5.222   6.986 -0.0701  0.0027  0.1815
 1279ERGO    C116997  18.790   4.947   7.246  0.1170 -0.0963  0.0458
 1279ERGO    C216998  18.938   4.705   7.390 -0.0182  0.0665 -0.1094
 1280ERGO   ROH16999   2.175  17.654   9.539 -0.0997 -0.1477  0.0264
 1280ERGO    R117000   2.150  17.504   9.301  0.0435 -0.0079 -0.0785
 1280ERGO    R217001   1.917  17.374   9.231  0.1663 -0.1797 -0.1675
 1280ERGO    R317002   1.944  17.516   9.001  0.0335  0.0050 -0.0719
 1280ERGO    R417003   1.706  17.350   8.958  0.0849 -0.0653 -0.1157
 1280ERGO    R517004   1.881  17.363   8.828  0.0408  0.1038 -0.1659
 1280ERGO    C117005   1.609  17.470   8.583 -0.0872  0.1747  0.0042
 1280ERGO    C217006   1.251  17.471   8.339 -0.0110 -0.0102 -0.1850
 1281ERGO   ROH17007   3.495   0.154   5.979  0.0518 -0.0569  0.1395
 1281ERGO    R117008   3.358  -0.023   6.152  0.0617 -0.0302  0.1751
 1281ERGO    R217009   3.423  -0.051   6.419 -0.0045  0.1055  0.2071
 1281ERGO    R317010   3.159   0.006   6.456 -0.0350  0.0337  0.1067
 1281ERGO    R417011   3.250  -0.098   6.714 -0.1289 -0.0348  0.1127
 1281ERGO    R517012   3.080  -0.170   6.598 -0.0606 -0.0334  0.0104
 1281ERGO    C117013   2.902  -0.073   6.921 -0.2299 -0.1841 -0.0365
 1281ERGO    C217014   2.788   0.073   7.249  0.0609 -0.0947 -0.0833
 1282ERGO   ROH17015   2.677   3.757   5.816  0.2141 -0.0583  0.0399
 1282ERGO    R117016   2.598   3.721   6.086  0.2403 -0.0912  0.0433
 1282ERGO    R217017   2.775   3.648   6.284  0.3255  0.2058  0.0792
 1282ERGO    R317018   2.679   3.870   6.408  0.0110  0.1117  0.0105
 1282ERGO    R417019   2.774   3.699   6.626  0.3867  0.3585  0.0571
 1282ERGO    R517020   2.575   3.787   6.607  0.2267  0.0284  0.0931
 1282ERGO    C117021   2.683   3.937   6.941  0.1270  0.3592 -0.0202
 1282ERGO    C217022   2.840   3.961   7.289  0.1707 -0.3314 -0.2023
 1283ERGO   ROH17023  16.007  13.284   6.612 -0.0329  0.0093 -0.0530
 1283ERGO    R117024  16.097  13.154   6.847 -0.1362 -0.1376 -0.0936
 1283ERGO    R217025  16.152  13.291   7.081  0.1481 -0.2297 -0.1017
 1283ERGO    R317026  15.977  13.113   7.189 -0.0767  0.0163 -0.0542
 1283ERGO    R417027  16.165  13.172   7.406  0.0700 -0.2566 -0.1086
 1283ERGO    R517028  16.111  12.975   7.330 -0.2337 -0.1806 -0.0964
 1283ERGO    C117029  16.007  12.937   7.695 -0.1863 -0.0415 -0.0680
 1283ERGO    C217030  16.165  12.872   7.962 -0.0903  0.0001  0.0274
 1284ERGO   ROH17031  14.932   0.034   6.272 -0.0070 -0.0119  0.1949
 1284ERGO    R117032  14.768   0.158   6.467 -0.0165  0.1088  0.1120
 1284ERGO    R217033  14.620   0.014   6.649 -0.1412  0.2170  0.1037
 1284ERGO    R317034  14.751   0.169   6.830 -0.1265  0.2041  0.1030
 1284ERGO    R417035  14.498   0.101   6.961 -0.0071  0.0085  0.2162
 1284ERGO    R517036  14.579   0.301   6.932 -0.1363  0.0628  0.2649
 1284ERGO    C117037  14.551   0.296   7.312  0.0847 -0.1251  0.2812
 1284ERGO    C217038  14.370   0.384   7.713 -0.1028  0.3700  0.2338
 1285ERGO   ROH17039   6.462   1.605   9.167  0.3370  0.0527  0.0452
 1285ERGO    R117040   6.490   1.502   8.904  0.1059 -0.0384  0.0546
 1285ERGO    R217041   6.288   1.362   8.778 -0.2070  0.3667  0.0820
 1285ERGO    R317042   6.324   1.549   8.584  0.1778  0.2780  0.0600
 1285ERGO    R417043   6.387   1.294   8.454 -0.2410  0.1375  0.1181
 1285ERGO    R517044   6.514   1.471   8.461  0.0768 -0.0823  0.1209
 1285ERGO    C117045   6.479   1.429   8.083  0.1005 -0.0794  0.1186
 1285ERGO    C217046   6.370   1.235   7.874  0.2248  0.1203  0.0139
 1286ERGO   ROH17047   3.630  11.620   5.619 -0.1554 -0.0208 -0.0439
 1286ERGO    R117048   3.780  11.541   5.846 -0.3202 -0.2914 -0.0259
 1286ERGO    R217049   3.925  11.720   5.998  0.2123 -0.5802 -0.1749
 1286ERGO    R317050   3.779  11.615   6.202 -0.0465 -0.0520 -0.0708
 1286ERGO    R417051   4.015  11.732   6.332  0.2805 -0.5304 -0.1942
 1286ERGO    R517052   3.943  11.528   6.354 -0.2414 -0.3484 -0.0196
 1286ERGO    C117053   3.929  11.641   6.718  0.0774 -0.0055 -0.1077
 1286ERGO    C217054   3.766  11.615   7.147  0.0783 -0.0951  0.2524
 1287ERGO   ROH17055  16.148  13.784   6.793  0.0490  0.1324 -0.0882
 1287ERGO    R117056  16.284  13.933   6.991  0.0005  0.0340  0.0196
 1287ERGO    R217057  16.244  14.205   7.027  0.1588  0.0589 -0.0088
 1287ERGO    R317058  16.193  14.130   7.283 -0.0888  0.0911 -0.0448
 1287ERGO    R417059  16.349  14.377   7.308  0.0681 -0.0113  0.0695
 1287ERGO    R517060  16.393  14.186   7.402 -0.1348 -0.0466  0.1058
 1287ERGO    C117061  16.362  14.406   7.712 -0.2170 -0.0220  0.0814
 1287ERGO    C217062  16.380  14.454   8.053 -0.0320  0.0160  0.0395
 1288ERGO   ROH17063  11.822   6.287   6.542  0.1347 -0.1526 -0.1218
 1288ERGO    R117064  11.793   6.217   6.815  0.0996 -0.0148 -0.0894
 1288ERGO    R217065  11.973   6.053   6.946  0.0169 -0.0484 -0.0163
 1288ERGO    R317066  11.985   6.262   7.121  0.1240  0.0258 -0.1109
 1288ERGO    R417067  12.117   6.040   7.260 -0.1572 -0.0334  0.0652
 1288ERGO    R517068  11.952   6.162   7.336 -0.0825  0.1603 -0.0777
 1288ERGO    C117069  12.212   6.228   7.607 -0.1580  0.0450  0.0239
 1288ERGO    C217070  12.440   6.195   7.950  0.3006  0.1391 -0.0526
 1289ERGO   ROH17071  15.519   1.731   9.242 -0.0282 -0.0405 -0.2038
 1289ERGO    R117072  15.435   1.779   8.976  0.1264  0.2189 -0.2096
 1289ERGO    R217073  15.603   1.882   8.784  0.3761 -0.0190 -0.1274
 1289ERGO    R317074  15.527   1.661   8.645 -0.0045  0.1666 -0.2280
 1289ERGO    R417075  15.741   1.782   8.483  0.2112 -0.1270 -0.1677
 1289ERGO    R517076  15.540   1.729   8.415  0.1156  0.2470 -0.1978
 1289ERGO    C117077  15.750   1.516   8.177 -0.2421 -0.0157 -0.2858
 1289ERGO    C217078  15.928   1.411   7.816  0.0189  0.0665 -0.0459
 1290ERGO   ROH17079   1.826   1.986   6.098 -0.0107 -0.1515 -0.0204
 1290ERGO    R117080   1.693   1.757   6.196  0.0203 -0.1621 -0.0032
 1290ERGO    R217081   1.821   1.516   6.237  0.0318 -0.1676 -0.0759
 1290ERGO    R317082   1.719   1.541   6.488  0.1159 -0.1985 -0.0379
 1290ERGO    R417083   1.824   1.268   6.477  0.1679 -0.1794 -0.0890
 1290ERGO    R517084   1.622   1.326   6.534  0.1746 -0.2212 -0.0141
 1290ERGO    C117085   1.730   1.146   6.852  0.3261 -0.2154 -0.0610
 1290ERGO    C217086   1.945   0.982   7.165  0.1824  0.3050 -0.0439
 1291ERGO   ROH17087   5.297  18.718   5.748 -0.2285 -0.0618  0.0321
 1291ERGO    R117088   5.365  18.852   5.988 -0.0652  0.0208 -0.0589
 1291ERGO    R217089   5.482  19.102   5.991 -0.1968  0.0839 -0.2223
 1291ERGO    R317090   5.273  19.162   6.154 -0.0715  0.0027 -0.0270
 1291ERGO    R417091   5.509  19.265   6.294  0.0072  0.2899 -0.3480
 1291ERGO    R517092   5.359  19.129   6.375  0.2065  0.2064 -0.0971
 1291ERGO    C117093   5.328  19.417   6.624  0.2435  0.3336 -0.2378
 1291ERGO    C217094   5.410  19.728   6.683 -0.1395  0.3421  0.2554
 1292ERGO   ROH17095  11.063   6.972   6.564  0.0016 -0.1442 -0.1082
 1292ERGO    R117096  11.224   6.948   6.796  0.0167  0.1246 -0.0863
 1292ERGO    R217097  11.192   7.112   7.016 -0.2449  0.1192 -0.1107
 1292ERGO    R317098  11.170   6.875   7.149  0.0818  0.1000 -0.0828
 1292ERGO    R417099  11.239   7.071   7.356 -0.0398  0.1822 -0.1303
 1292ERGO    R517100  11.343   6.884   7.314  0.1487  0.2979 -0.1650
 1292ERGO    C117101  11.245   6.825   7.678  0.3863  0.2010 -0.1157
 1292ERGO    C217102  11.155   6.956   7.998  0.0828  0.0916 -0.3230
 1293ERGO   ROH17103   9.523   0.648   6.045  0.0375  0.0240  0.0222
 1293ERGO    R117104   9.612   0.715   6.305 -0.0446  0.0059  0.0539
 1293ERGO    R217105   9.560   0.959   6.422 -0.0179  0.0198  0.0222
 1293ERGO    R317106   9.458   0.805   6.622 -0.1384  0.0611 -0.0047
 1293ERGO    R417107   9.552   1.048   6.756  0.0781 -0.0319  0.0396
 1293ERGO    R517108   9.606   0.843   6.807 -0.0888 -0.0950 -0.0040
 1293ERGO    C117109   9.453   0.956   7.138  0.0209 -0.0233  0.0244
 1293ERGO    C217110   9.390   0.859   7.469 -0.0879 -0.0033  0.0958
 1294ERGO   ROH17111   0.137  16.609   5.851 -0.1550 -0.2119  0.0471
 1294ERGO    R117112   0.067  16.600   6.125 -0.2484  0.1498  0.0391
 1294ERGO    R217113   0.238  16.502   6.319 -0.5067 -0.0737  0.1452
 1294ERGO    R317114   0.193  16.743   6.435 -0.0156  0.1227 -0.0366
 1294ERGO    R417115   0.337  16.589   6.639 -0.3484 -0.0601  0.0952
 1294ERGO    R517116   0.146  16.691   6.664 -0.1561  0.3713  0.0041
 1294ERGO    C117117   0.352  16.866   6.934  0.2048  0.1325 -0.1045
 1294ERGO    C217118   0.301  17.017   7.205 -0.3081 -0.0471 -0.1479
 1295ERGO   ROH17119   6.562   9.701   6.086 -0.0339  0.0540  0.2723
 1295ERGO    R117120   6.563   9.769   6.361 -0.0940  0.0466  0.2742
 1295ERGO    R217121   6.366   9.685   6.536  0.0243 -0.2062  0.2888
 1295ERGO    R317122   6.577   9.590   6.678  0.1583  0.0517  0.2675
 1295ERGO    R417123   6.384   9.676   6.881  0.0243 -0.2793  0.2873
 1295ERGO    R517124   6.593   9.737   6.866 -0.0570  0.0233  0.3104
 1295ERGO    C117125   6.593   9.583   7.215  0.1502 -0.0796  0.2667
 1295ERGO    C217126   6.448   9.565   7.493 -0.0447  0.0706  0.0810
 1296ERGO   ROH17127   8.632  16.798   6.091 -0.1287 -0.0740  0.0128
 1296ERGO    R117128   8.798  16.786   6.320 -0.0553 -0.1577 -0.0440
 1296ERGO    R217129   8.821  16.995   6.499  0.2065 -0.1213 -0.1151
 1296ERGO    R317130   8.753  16.805   6.680  0.0934 -0.0027 -0.0326
 1296ERGO    R417131   8.798  17.047   6.839  0.4442 -0.0103 -0.1141
 1296ERGO    R517132   8.891  16.852   6.871  0.2478 -0.1058 -0.1172
 1296ERGO    C117133   8.720  16.899   7.209  0.4763  0.1656 -0.0360
 1296ERGO    C217134   8.597  16.891   7.583 -0.3070 -0.0786  0.1191
 1297ERGO   ROH17135  18.699  14.087   6.199  0.1659 -0.0328 -0.0589
 1297ERGO    R117136  18.895  14.221   6.353  0.0326  0.0243  0.0636
 1297ERGO    R217137  18.848  14.307   6.611 -0.0665 -0.2317  0.1353
 1297ERGO    R317138  19.071  14.161   6.666  0.0666 -0.0732  0.0259
 1297ERGO    R417139  18.993  14.278   6.924 -0.2097 -0.5651  0.1752
 1297ERGO    R517140  19.189  14.292   6.828 -0.1686 -0.1946  0.3015
 1297ERGO    C117141  19.287  14.124   7.157 -0.1681 -0.6105  0.0956
 1297ERGO    C217142  19.457  14.135   7.286 -0.0598 -0.0558  0.0089
 1298ERGO   ROH17143   9.832  17.804   5.832 -0.1220  0.0704 -0.0690
 1298ERGO    R117144   9.699  17.912   6.057 -0.1517 -0.0439 -0.0313
 1298ERGO    R217145   9.588  17.753   6.255  0.0049 -0.1396 -0.0207
 1298ERGO    R317146   9.743  17.906   6.418 -0.0700 -0.0416 -0.0405
 1298ERGO    R417147   9.549  17.779   6.597 -0.1023 -0.0026 -0.0422
 1298ERGO    R517148   9.590  17.992   6.581 -0.1361  0.0003 -0.1216
 1298ERGO    C117149   9.671  17.937   6.950 -0.2352  0.1691 -0.0733
 1298ERGO    C217150   9.496  18.021   7.223  0.4758  0.0199  0.0965
 1299ERGO   ROH17151  17.357  12.401   6.519  0.0096  0.1326 -0.0169
 1299ERGO    R117152  17.529  12.278   6.706 -0.0808  0.1168  0.0567
 1299ERGO    R217153  17.456  12.232   6.969 -0.2506 -0.0095 -0.0123
 1299ERGO    R317154  17.526  11.976   6.910 -0.1244  0.0356 -0.0620
 1299ERGO    R417155  17.525  11.987   7.202 -0.1062 -0.0114 -0.0560
 1299ERGO    R517156  17.689  11.919   7.076 -0.0796  0.0928 -0.0830
 1299ERGO    C117157  17.631  11.604   7.282  0.0965  0.0297 -0.1280
 1299ERGO    C217158  17.683  11.498   7.621  0.0985 -0.1040  0.0570
 1300ERGO   ROH17159   6.856   3.007   9.241  0.0521  0.2615 -0.0738
 1300ERGO    R117160   6.933   3.124   8.995 -0.0465  0.2303 -0.1198
 1300ERGO    R217161   6.869   3.012   8.751  0.0643  0.0688 -0.0746
 1300ERGO    R317162   6.764   3.257   8.702 -0.1603 -0.0457 -0.1836
 1300ERGO    R417163   6.808   3.141   8.436  0.1837 -0.0326 -0.1409
 1300ERGO    R517164   6.880   3.334   8.507 -0.0784  0.0563 -0.0976
 1300ERGO    C117165   6.673   3.448   8.207  0.0424 -0.1993 -0.2817
 1300ERGO    C217166   6.380   3.581   8.009 -0.1972 -0.0114  0.1308
 1301ERGO   ROH17167   3.760  15.160   5.904  0.2633  0.0954 -0.2315
 1301ERGO    R117168   3.668  15.142   6.171  0.1268  0.0437 -0.2793
 1301ERGO    R217169   3.745  14.939   6.342  0.0837  0.0364 -0.2567
 1301ERGO    R317170   3.817  15.146   6.503 -0.0439  0.0369 -0.2033
 1301ERGO    R417171   3.674  14.960   6.679 -0.1950  0.0559 -0.3165
 1301ERGO    R517172   3.631  15.172   6.652 -0.1627  0.0512 -0.3587
 1301ERGO    C117173   3.699  15.167   7.027 -0.4771  0.0679 -0.3013
 1301ERGO    C217174   3.878  15.257   7.267 -0.2370 -0.1810 -0.1800
 1302ERGO   ROH17175   9.073   5.826   6.283 -0.2201 -0.1386  0.0117
 1302ERGO    R117176   9.042   5.614   6.468 -0.0264 -0.1266  0.0596
 1302ERGO    R217177   9.222   5.404   6.485  0.1359  0.0136  0.0706
 1302ERGO    R317178   9.231   5.477   6.747  0.1272  0.0708  0.0555
 1302ERGO    R417179   9.302   5.192   6.746  0.3387  0.1179  0.0950
 1302ERGO    R517180   9.145   5.286   6.864  0.2866  0.0256  0.1048
 1302ERGO    C117181   9.358   5.137   7.143  0.4485  0.2322  0.0952
 1302ERGO    C217182   9.339   4.968   7.473 -0.0831  0.0098 -0.1762
 1303ERGO   ROH17183  15.009   2.649   6.058  0.0313 -0.1881  0.1060
 1303ERGO    R117184  14.798   2.665   6.246 -0.0287 -0.1548  0.0369
 1303ERGO    R217185  14.830   2.597   6.511 -0.1169 -0.1224  0.0567
 1303ERGO    R317186  14.732   2.846   6.555 -0.1196 -0.1127 -0.0070
 1303ERGO    R417187  14.781   2.738   6.823 -0.3101 -0.1209  0.0268
 1303ERGO    R517188  14.594   2.823   6.750 -0.2527 -0.1003 -0.0982
 1303ERGO    C117189  14.661   3.054   7.045 -0.4251 -0.1110 -0.0504
 1303ERGO    C217190  14.792   3.130   7.387  0.0395  0.0150  0.0818
 1304ERGO   ROH17191   7.407  17.937   6.017 -0.0151 -0.0588  0.0458
 1304ERGO    R117192   7.451  17.974   6.294  0.0786  0.1096  0.0098
 1304ERGO    R217193   7.552  18.209   6.398 -0.1983  0.2995 -0.1344
 1304ERGO    R317194   7.328  18.198   6.553 -0.1081  0.0383 -0.0159
 1304ERGO    R417195   7.496  18.403   6.679 -0.3108  0.2799 -0.1419
 1304ERGO    R517196   7.409  18.228   6.777 -0.0340  0.1842 -0.0634
 1304ERGO    C117197   7.255  18.506   6.988 -0.2916  0.0233 -0.0350
 1304ERGO    C217198   7.219  18.583   7.372  0.2309 -0.1743  0.3055
 1305W        W17199  18.417   2.254   3.737  0.0319 -0.2593  0.0396
 1306W        W17200   7.776  15.705  13.336 -0.0243 -0.1302  0.1543
 1307W        W17201  16.879  15.194   0.551  0.1290 -0.0065  0.2490
 1308W        W17202  16.441  17.757  13.528  0.1918 -0.1652  0.2380
 1309W        W17203  10.697  13.806  11.062 -0.0855  0.1766 -0.1778
 1310W        W17204   4.361   3.527   4.406  0.0384 -0.0900 -0.0254
 1311W        W17205   7.957   8.913  11.248  0.0753  0.1008 -0.0345
 1312W        W17206   2.293   4.650   1.275 -0.1426 -0.0970  0.0072
 1313W        W17207  12.721  17.802   4.533 -0.1371 -0.0153 -0.2211
 1314W        W17208   6.122   1.303   3.571  0.1019 -0.1572  0.0722
 1315W        W17209   6.923   6.847  14.759 -0.0212 -0.1267  0.0636
 1316W        W17210  10.495   5.402   0.442 -0.0307  0.0187 -0.1681
 1317W        W17211   8.339   3.286   5.750 -0.0655  0.1244 -0.5896
 1318W        W17212  10.903  13.528   1.517  0.2356  0.0525 -0.2965
 1319W        W17213   0.392   4.580   1.895 -0.0689 -0.7186 -0.2375
 1320W        W17214  12.932   2.389  11.544  0.0930 -0.2315 -0.0782
 1321W        W17215   7.797   4.658  14.805  0.0277 -0.0305  0.2484
 1322W        W17216  16.709   3.269   1.352  0.3905 -0.1868  0.0669
 1323W        W17217  14.322  11.275   4.632  0.1181 -0.4076  0.1514
 1324W        W17218   3.796  13.648   1.514  0.2861  0.3861  0.1130
 1325W        W17219  13.695   3.999   1.753  0.2582  0.2070  0.0571
 1326W        W17220   7.092   1.601  12.089  0.1291  0.1865 -0.0211
 1327W        W17221   3.180  11.935   0.058  0.0528  0.0263 -0.1438
 1328W        W17222  14.984   5.067  11.441 -0.0489 -0.0576 -0.1639
 1329W        W17223   6.327  11.654   4.692 -0.1688  0.3530 -0.1557
 1330W        W17224  11.651   9.678   4.028  0.1937 -0.0488  0.1820
 1331W        W17225   2.976   1.984  14.491 -0.0662  0.0559 -0.0502
 1332W        W17226  10.833   0.026  14.067  0.0718  0.3922 -0.1019
 1333W        W17227   8.971  10.616   2.507 -0.0503 -0.1474  0.3842
 1334W        W17228   4.859   9.203  12.928 -0.2582 -0.1944  0.3585
 1335W        W17229   2.831   3.449   1.194  0.2785  0.1161 -0.4287
 1336W        W17230   6.569  11.666  14.834 -0.0427 -0.0299  0.2162
 1337W        W17231   4.116  14.616   0.339 -0.1299  0.1807 -0.1268
 1338W        W17232   1.168   2.426   1.320  0.0062  0.4175  0.0962
 1339W        W17233   6.060  14.307  14.961  0.2444 -0.1892  0.3276
 1340W        W17234  10.789  17.796  12.809  0.2396  0.1019  0.1131
 1341W        W17235  13.901  17.014  13.970 -0.0961  0.1688 -0.1169
 1342W        W17236   7.502  15.721   2.782 -0.1297  0.0178 -0.1754
 1343W        W17237  17.271  11.431   2.759  0.0707 -0.0761  0.0520
 1344W        W17238  10.910  13.567   5.533  0.1542  0.0776  0.1029
 1345W        W17239  15.675  17.093  11.776 -0.1722  0.0862 -0.1271
 1346W        W17240  16.412   1.877  11.423  0.2167 -0.0863 -0.0321
 1347W        W17241   5.055  16.817   4.483  0.1391  0.3626  0.0480
 1348W        W17242   4.190   6.424  12.574 -0.0496 -0.0232  0.0230
 1349W        W17243  10.075  18.404   3.367  0.3282 -0.2699 -0.0279
 1350W        W17244  18.246   1.332  10.488  0.0544 -0.0568  0.0625
 1351W        W17245  13.492   9.596  15.601 -0.1291  0.2649 -0.0078
 1352W        W17246   4.006   5.491   4.488  0.0719 -0.0458  0.0399
 1353W        W17247   7.657  13.654  14.499  0.0629 -0.0983  0.0799
 1354W        W17248   1.952   2.196   1.199  0.2216 -0.2044 -0.0978
 1355W        W17249  16.811   4.136  11.911 -0.3038 -0.0006  0.0943
 1356W        W17250   0.425  18.102  15.165  0.4649  0.1962 -0.1720
 1357W        W17251   4.208   1.224  12.169 -0.0127  0.1497  0.2276
 1358W        W17252  12.518   7.810  14.128  0.0296  0.1855  0.1267
 1359W        W17253  14.892  13.238   2.479  0.1161 -0.0036  0.3158
 1360W        W17254  10.142   0.689  12.595  0.0208 -0.0526 -0.2466
 1361W        W17255   0.141  13.368   2.899  0.3090  0.1663 -0.0823
 1362W        W17256   6.856  13.484  10.764 -0.1283  0.2099  0.0715
 1363W        W17257   3.361   2.644  11.119  0.1187 -0.0376  0.0989
 1364W        W17258  14.593  17.558   4.905  0.2702 -0.1720  0.3093
 1365W        W17259   3.636  11.044  12.107  0.1190 -0.0842  0.0538
 1366W        W17260   1.831   5.897  14.137 -0.2063 -0.1992 -0.1517
 1367W        W17261  12.205   8.726  14.519  0.0171 -0.0136  0.0734
 1368W        W17262   5.753  12.025  15.286 -0.0045 -0.1276 -0.2696
 1369W        W17263   6.273   3.302  12.004 -0.0607  0.1939 -0.1689
 1370W        W17264   0.495   4.058   0.660  0.5518  0.1121 -0.1452
 1371W        W17265  16.388   7.360   4.248  0.1206 -0.0721  0.2410
 1372W        W17266  10.111  17.959  11.576  0.1547 -0.0565  0.1272
 1373W        W17267  14.049  12.669  12.040 -0.1357 -0.1574  0.0170
 1374W        W17268   6.181  16.389   1.047 -0.2403 -0.2204  0.0740
 1375W        W17269   9.931   1.113  12.419 -0.0053  0.0877 -0.0096
 1376W        W17270  17.862  12.703   4.519 -0.0198  0.3865  0.1122
 1377W        W17271  18.075  15.642   1.562 -0.3152  0.1463  0.0875
 1378W        W17272   5.834   2.379   1.414 -0.1720 -0.1540  0.0512
 1379W        W17273  10.265   1.718   3.733  0.2592 -0.1670 -0.2927
 1380W        W17274  16.423  14.147   2.194 -0.3484 -0.1211 -0.0454
 1381W        W17275   4.152  14.509  15.449 -0.0647 -0.1675 -0.0512
 1382W        W17276   8.770  17.468  11.747  0.0687  0.1351  0.0386
 1383W        W17277   1.838   5.981  11.200 -0.2987  0.0719  0.0666
 1384W        W17278  10.521  13.997   0.691 -0.0750  0.0102 -0.2196
 1385W        W17279  10.405   3.791   5.717  0.0454 -0.0454 -0.3391
 1386W        W17280  12.537   0.623  12.255  0.0741  0.1945 -0.2052
 1387W        W17281  16.073   9.103   1.251  0.1691  0.1215  0.4974
 1388W        W17282  15.069   9.829   4.658  0.1251 -0.2656 -0.3759
 1389W        W17283  14.946   6.805  14.350  0.1422 -0.2658  0.3394
 1390W        W17284  10.290   0.046  12.008  0.1951  0.4149  0.0140
 1391W        W17285  11.945  16.009   2.183  0.1981  0.0566  0.0255
 1392W        W17286   0.055   8.886   3.815 -0.2318  0.0048  0.0406
 1393W        W17287  14.723  11.754  10.931 -0.2485  0.2280 -0.0770
 1394W        W17288  12.311   0.253  12.573  0.4798  0.1113  0.0584
 1395W        W17289   3.711   6.792   9.549 -0.1193 -0.1510  0.2125
 1396W        W17290  15.332  10.952  15.305 -0.1411  0.2198  0.0391
 1397W        W17291   6.710   7.962  13.019  0.1018 -0.1699 -0.1218
 1398W        W17292   4.870   2.058   3.973  0.0909 -0.1461  0.2135
 1399W        W17293   6.555  11.136   2.343  0.1953  0.0285  0.0289
 1400W        W17294   2.763   9.551  11.692 -0.0085  0.2455 -0.2278
 1401W        W17295   9.688   6.392   1.985 -0.0120  0.1170 -0.0096
 1402W        W17296   8.486   4.633  10.227  0.0783  0.1454 -0.0067
 1403W        W17297  10.986  13.902  14.589  0.1476  0.1641 -0.1976
 1404W        W17298  11.639   7.234  12.298  0.2739  0.0610  0.1691
 1405W        W17299   2.697  10.166   1.810  0.0079 -0.0979 -0.1553
 1406W        W17300  16.766  14.213   2.640 -0.0267 -0.0186  0.0841
 1407W        W17301   8.819   7.298  13.233  0.2934 -0.0943  0.3389
 1408W        W17302  13.216   5.400  13.054 -0.3973  0.1869  0.2764
 1409W        W17303  16.188  12.665   3.706  0.1289 -0.3470 -0.0957
 1410W        W17304   1.827  12.163   1.282  0.0444 -0.0722  0.3124
 1411W        W17305   2.036   1.511  13.914 -0.0861  0.3195 -0.0724
 1412W        W17306  14.229   0.709  11.643  0.0399  0.0290  0.2359
 1413W        W17307   7.599  10.716   4.817 -0.0730  0.2225  0.0951
 1414W        W17308  14.333   5.746   5.237 -0.0505 -0.1441 -0.2716
 1415W        W17309   7.758   2.743  15.203 -0.0170 -0.1209  0.1443
 1416W        W17310  17.876   4.381   3.979  0.1956  0.0130  0.0354
 1417W        W17311  12.867   3.264  14.137 -0.2119 -0.2216 -0.1872
 1418W        W17312  10.904  12.119   1.336 -0.2104  0.2659 -0.1688
 1419W        W17313  15.589  17.289  11.188  0.3890  0.1324  0.2723
 1420W        W17314   3.558   2.760   2.376 -0.1014 -0.0418  0.1571
 1421W        W17315   4.347   5.695   0.444  0.0685  0.1943  0.1776
 1422W        W17316  11.113   7.030  14.683  0.1178 -0.3746 -0.2032
 1423W        W17317  16.804   9.541  15.380 -0.0170  0.2078  0.1845
 1424W        W17318   3.627   9.316  12.326 -0.3456  0.1372 -0.0762
 1425W        W17319  14.236   7.204   1.710  0.4256 -0.0693 -0.2002
 1426W        W17320  15.923  13.090   0.782 -0.0065  0.3615  0.0149
 1427W        W17321   9.698   8.622   3.988  0.3640 -0.5663 -0.1556
 1428W        W17322  18.197   4.169   5.517  0.1584 -0.3179  0.0452
 1429W        W17323   0.574  18.667  10.549 -0.1730 -0.0546  0.1708
 1430W        W17324   7.746  17.981   1.522  0.1192  0.1442  0.1996
 1431W        W17325  16.715  15.736   4.914 -0.1552  0.0485 -0.2468
 1432W        W17326  11.564   1.743  15.474  0.0499 -0.2410  0.3667
 1433W        W17327   8.492  17.623   0.708  0.1003  0.1217  0.0477
 1434W        W17328   1.084  11.264   2.426 -0.1813  0.1962  0.1418
 1435W        W17329  13.515  15.921  14.414  0.0224  0.2473  0.3003
 1436W        W17330   4.695  13.409   3.827 -0.0525 -0.0423  0.0823
 1437W        W17331   7.439  13.401   4.120 -0.2423 -0.0891  0.2948
 1438W        W17332  14.663  16.427  13.817 -0.0697  0.1484  0.1995
 1439W        W17333  16.171   2.537   0.231 -0.2010 -0.1547  0.0425
 1440W        W17334  17.859   9.282   1.189 -0.0067  0.1475 -0.1186
 1441W        W17335   8.312   4.698   3.895 -0.0683 -0.0958  0.3371
 1442W        W17336  14.121   1.605  11.572 -0.2410 -0.0155 -0.0499
 1443W        W17337  14.447  12.144  12.273 -0.2844  0.0596  0.1798
 1444W        W17338  14.080   5.095  12.600  0.1602 -0.0569  0.1897
 1445W        W17339   9.156  10.496  10.947  0.0035 -0.1330  0.0867
 1446W        W17340   6.303   3.134   1.558  0.1058 -0.2356 -0.1889
 1447W        W17341  16.419   4.495   4.386  0.0539 -0.0390  0.1760
 1448W        W17342  18.572  17.898   5.964  0.1983 -0.0673 -0.1181
 1449W        W17343   7.424   1.187  12.140 -0.1560  0.5021 -0.1030
 1450W        W17344   0.141  12.376  13.279 -0.2680  0.2663  0.0980
 1451W        W17345  17.158  11.835   3.107  0.2566  0.0442 -0.3314
 1452W        W17346   7.816  17.851  13.543  0.2171 -0.2163  0.2164
 1453W        W17347   8.258   5.125   0.573 -0.0168 -0.0306  0.3860
 1454W        W17348  12.237  10.678   0.245 -0.0057 -0.2815 -0.1191
 1455W        W17349  13.081  13.340   4.315  0.0884 -0.0662 -0.1131
 1456W        W17350   9.805  18.438   4.466 -0.1385  0.0686  0.0980
 1457W        W17351   7.307  18.185   1.166  0.0360 -0.0564 -0.0006
 1458W        W17352   0.817  17.598   4.858 -0.0962  0.0431 -0.3099
 1459W        W17353   7.222  14.441   2.196 -0.0451 -0.0667 -0.1538
 1460W        W17354   5.912  15.356   4.135  0.2700  0.0679 -0.3140
 1461W        W17355  17.250   3.401   5.078  0.0084  0.2275  0.1233
 1462W        W17356   9.959  11.315   0.595 -0.2206 -0.1165 -0.1390
 1463W        W17357  10.458   0.427  12.275 -0.1067  0.0975 -0.0277
 1464W        W17358  18.119  10.884  15.612 -0.0634 -0.2309  0.1691
 1465W        W17359  18.385   0.062  13.617  0.1464  0.1102 -0.2935
 1466W        W17360  14.561   4.938  12.546 -0.0550  0.0137  0.0127
 1467W        W17361  18.278  16.755   1.874 -0.0358 -0.0860 -0.1721
 1468W        W17362   3.421   5.415   2.320  0.2067  0.1079 -0.2196
 1469W        W17363  13.029   0.091  15.127  0.2917  0.2661 -0.0568
 1470W        W17364   5.922  11.106   5.148 -0.1610 -0.0567  0.2158
 1471W        W17365  17.418   9.243  11.644 -0.1107  0.1714 -0.4817
 1472W        W17366   6.104   3.876  14.082 -0.1622 -0.3248 -0.2060
 1473W        W17367   7.205   1.346   3.179 -0.3295  0.1782  0.0395
 1474W        W17368  18.272   0.852  13.234 -0.5201 -0.1475 -0.0008
 1475W        W17369   8.560   8.168   9.829  0.1281 -0.0666  0.1798
 1476W        W17370  14.917   9.381   0.559 -0.1775  0.3111 -0.4121
 1477W        W17371   2.220   8.990  13.494  0.1330 -0.1926  0.0933
 1478W        W17372   5.639   5.961   4.768  0.0284  0.2541  0.1818
 1479W        W17373   6.640  14.953  14.654 -0.2094 -0.1124 -0.2812
 1480W        W17374  16.840  10.037   4.158 -0.2008 -0.0150  0.1355
 1481W        W17375  13.530  11.901  14.043 -0.1386  0.2588 -0.1367
 1482W        W17376  11.269  13.085  13.969 -0.1366  0.1701 -0.0625
 1483W        W17377  18.541  13.739   3.281  0.2503  0.4448  0.0755
 1484W        W17378   3.117   0.204  11.571  0.0162  0.0911 -0.0806
 1485W        W17379   7.977   0.982   5.418  0.0294  0.2461  0.2450
 1486W        W17380   2.432  11.713   4.720 -0.0409  0.2762  0.2228
 1487W        W17381   1.338  15.776   1.817  0.3413  0.2082  0.0236
 1488W        W17382   7.889  11.813   3.662  0.0231 -0.2185  0.3971
 1489W        W17383   5.073  14.549   5.006 -0.0150 -0.0950  0.0028
 1490W        W17384  15.590  18.120   1.988 -0.0934  0.1212 -0.1003
 1491W        W17385  10.623   0.023   3.151  0.1468  0.0220 -0.0444
 1492W        W17386  16.521   3.206  13.308  0.2933  0.1427 -0.0357
 1493W        W17387  17.769   6.449   5.110  0.1216 -0.1132 -0.3558
 1494W        W17388   7.481   0.039   4.763 -0.0894 -0.0293 -0.0736
 1495W        W17389  14.693   6.840  11.675 -0.1684 -0.0563 -0.3383
 1496W        W17390   2.385  14.412   3.390  0.0187  0.3046 -0.1514
 1497W        W17391   1.620   3.845  14.434 -0.0626  0.3798  0.0934
 1498W        W17392   9.098   9.446  11.884 -0.2343  0.2158 -0.1489
 1499W        W17393   5.667   1.128   0.324  0.0843 -0.2469 -0.2280
 1500W        W17394   2.229  16.880   1.954  0.2316  0.0592 -0.0912
 1501W        W17395  11.983  13.970   0.219 -0.1784  0.0804 -0.2681
 1502W        W17396  12.920  15.117  12.903  0.0920 -0.1323  0.0146
 1503W        W17397   0.385   6.252   0.944  0.3237  0.5595 -0.0793
 1504W        W17398  16.319   6.464   2.594 -0.0879 -0.0109 -0.1269
 1505W        W17399   8.623  18.117   0.937 -0.1928 -0.2181 -0.3378
 1506W        W17400   3.119  15.942  15.516  0.1673 -0.2363  0.2514
 1507W        W17401  13.234  11.021   3.988  0.2515  0.0039 -0.0650
 1508W        W17402   5.193  18.124   1.114  0.0798 -0.0950 -0.1676
 1509W        W17403   4.160   4.345  11.517  0.0796  0.1438  0.1291
 1510W        W17404  14.981  10.732  14.270 -0.0494 -0.0194  0.3257
 1511W        W17405   3.867  18.111  14.637 -0.0837 -0.0440 -0.1400
 1512W        W17406  15.377   1.697   0.326 -0.1383  0.0808 -0.1255
 1513W        W17407  14.899   4.156  13.898 -0.3956  0.0694  0.0922
 1514W        W17408   0.457  14.644  12.021 -0.0390  0.0669  0.0974
 1515W        W17409   8.919   2.968   3.437 -0.0393 -0.3584  0.1590
 1516W        W17410   5.737  16.085  13.599 -0.0009 -0.3185  0.0858
 1517W        W17411   2.942   6.574   1.840  0.1023 -0.0675  0.0921
 1518W        W17412  10.923  18.333   1.934 -0.0857 -0.0776  0.0437
 1519W        W17413  13.376   9.316   0.847 -0.2198 -0.1237 -0.2138
 1520W        W17414   7.435   6.695   0.745 -0.0674  0.1585  0.0213
 1521W        W17415   9.506   2.716   4.984 -0.1483 -0.0405 -0.0162
 1522W        W17416  10.760  10.881   4.766 -0.1102  0.0700 -0.1080
 1523W        W17417   1.478   3.348   1.048  0.0998 -0.2582  0.0785
 1524W        W17418  17.178  16.726  11.386  0.0007  0.1519  0.2553
 1525W        W17419   3.002   1.313   3.482  0.1549 -0.3226  0.2175
 1526W        W17420   7.274   8.475   0.061  0.1173 -0.0158 -0.0069
 1527W        W17421   7.893  11.419  10.464  0.1372 -0.0449  0.1412
 1528W        W17422  17.864   1.326   1.979 -0.0401  0.0900  0.3334
 1529W        W17423  17.408   9.506   1.041  0.2621  0.1804 -0.0424
 1530W        W17424  15.064   1.930   2.930 -0.2999 -0.0723  0.0717
 1531W        W17425  14.637  12.605  14.844  0.1156 -0.1631  0.1309
 1532W        W17426   6.379   0.457  12.683  0.2729  0.1445  0.0412
 1533W        W17427  14.829   7.251   0.789 -0.0958  0.2320 -0.1650
 1534W        W17428  17.386   6.463   4.680 -0.0863  0.1280  0.2676
 1535W        W17429  16.165  17.044  11.718 -0.1305  0.2088 -0.0833
 1536W        W17430  14.099   1.680  12.162  0.0784 -0.4575  0.0319
 1537W        W17431   2.330   7.154   2.478 -0.1231 -0.0246 -0.0360
 1538W        W17432  16.180   8.694   1.481  0.0673 -0.0232  0.2794
 1539W        W17433  16.816   1.781  12.953 -0.1631  0.0797  0.0278
 1540W        W17434  14.531  17.138   4.322  0.0112 -0.2081 -0.3227
 1541W        W17435  11.734  16.459  12.865  0.1539  0.0166 -0.2698
 1542W        W17436   8.610   4.402  14.179 -0.0456 -0.1797 -0.2768
 1543W        W17437  12.875   9.414  14.966  0.0301 -0.1146  0.1773
 1544W        W17438   8.674   1.587  14.007  0.3435  0.1346  0.0729
 1545W        W17439   7.814   6.626   4.237  0.2229  0.1529  0.0492
 1546W        W17440  11.539  15.828  11.681  0.0633  0.0836 -0.0260
 1547W        W17441  16.559   7.646   5.642  0.2035  0.1933  0.0690
 1548W        W17442  18.596   3.411   2.671 -0.2217  0.1107 -0.0021
 1549W        W17443   8.766   8.291   2.060 -0.1357 -0.2409 -0.1389
 1550W        W17444  13.516   3.488   1.830 -0.0310  0.0961  0.2281
 1551W        W17445   7.616  14.878  11.755  0.1027 -0.0467 -0.2836
 1552W        W17446  15.844   7.277  14.997  0.3245  0.0070 -0.2469
 1553W        W17447   4.244   3.289   1.135  0.2236  0.0312  0.2540
 1554W        W17448   2.073   0.239  11.773 -0.3556  0.0810 -0.1192
 1555W        W17449  10.356   6.453  14.213  0.0725  0.1029 -0.2387
 1556W        W17450   7.298  15.793   3.292  0.0967 -0.0957  0.2026
 1557W        W17451   2.426  10.162  15.205 -0.2897  0.1032 -0.1702
 1558W        W17452  13.493   2.077  13.539 -0.1509 -0.0156 -0.0143
 1559W        W17453   5.988  17.190  10.150  0.1576 -0.0098 -0.0557
 1560W        W17454  11.031  18.007  11.816 -0.0376  0.0424 -0.1800
 1561W        W17455   6.251  18.354  12.711 -0.2384  0.0666 -0.0274
 1562W        W17456  18.725   3.242   3.347  0.0462  0.0374 -0.2625
 1563W        W17457   9.423  10.362   5.135 -0.2045 -0.1858  0.3381
 1564W        W17458   4.781   8.201  13.084 -0.2631  0.2118 -0.1046
 1565W        W17459   1.779   5.581   1.986  0.0057  0.4120  0.0589
 1566W        W17460  11.323   2.938   4.238 -0.2349  0.6376 -0.0260
 1567W        W17461   6.008   0.727  14.265 -0.2589 -0.2352  0.1925
 1568W        W17462   3.460  13.713  13.157 -0.3207  0.1451  0.1517
 1569W        W17463  10.664   6.554  11.922  0.1942  0.1710  0.1988
 1570W        W17464  12.317   3.998   2.956 -0.6467 -0.1209 -0.0999
 1571W        W17465   9.278   1.461   5.001 -0.2716  0.2079  0.0021
 1572W        W17466  12.880  16.724  14.711 -0.1485 -0.0679  0.1926
 1573W        W17467   3.332   0.955   1.498  0.2212  0.0355  0.0102
 1574W        W17468  11.538  17.179  11.794  0.1468 -0.2261 -0.0989
 1575W        W17469   7.682  16.981   0.398  0.1473  0.0712  0.2516
 1576W        W17470  11.875  14.760   3.796  0.0817 -0.3320  0.0229
 1577W        W17471  16.638  14.042   3.058  0.1475  0.0446 -0.2094
 1578W        W17472   0.350  10.447   3.464 -0.0830 -0.1185 -0.3364
 1579W        W17473  14.452   3.571  11.875  0.1165 -0.0376 -0.0770
 1580W        W17474  10.375   6.007  12.025  0.0453 -0.1755 -0.3165
 1581W        W17475   7.523   5.093   5.460 -0.1786 -0.1902 -0.1003
 1582W        W17476  12.195  11.644   5.457  0.0742  0.0416 -0.0187
 1583W        W17477  17.104  10.781   2.013 -0.0869  0.0284 -0.1120
 1584W        W17478  17.415   4.196  10.515 -0.0031  0.1450 -0.1090
 1585W        W17479  10.498  11.394  13.968 -0.0377  0.0733  0.4357
 1586W        W17480  17.482  10.681   3.499 -0.2960  0.1649  0.1312
 1587W        W17481   8.537   1.054  14.040 -0.1140 -0.0915 -0.2648
 1588W        W17482  18.177   1.038   3.068 -0.2253  0.0023 -0.2072
 1589W        W17483  11.465  12.748  12.780  0.0236 -0.0612 -0.0023
 1590W        W17484   0.067   9.932  12.128 -0.1583  0.0716  0.3677
 1591W        W17485  15.855   0.382  13.088 -0.3549 -0.0663 -0.1888
 1592W        W17486  12.891   7.176   2.883  0.0164 -0.0682  0.0769
 1593W        W17487  10.657  11.829  12.319 -0.1708 -0.0627  0.4065
 1594W        W17488  14.477  15.425   2.817 -0.3027 -0.0464 -0.2696
 1595W        W17489   9.509  13.407  13.451  0.2824  0.2555 -0.2171
 1596W        W17490   8.624  13.040   5.824  0.1333  0.2023  0.2322
 1597W        W17491   2.704   4.935  12.003  0.0407  0.2040 -0.2363
 1598W        W17492  14.473  17.420  15.109 -0.1530  0.1935 -0.2398
 1599W        W17493   8.089   3.007  15.443 -0.2622 -0.0286  0.0580
 1600W        W17494   3.502   5.055  11.807  0.0865  0.1262  0.3419
 1601W        W17495  15.355   7.920  12.176  0.0474  0.0962  0.1631
 1602W        W17496   1.878  17.632   0.772 -0.0959  0.1022 -0.1092
 1603W        W17497  14.110  17.935   0.569  0.1361  0.3064 -0.1262
 1604W        W17498  13.158  16.632   3.682 -0.1498 -0.4544 -0.1849
 1605W        W17499  13.820   3.949   4.258 -0.1519 -0.0072 -0.2282
 1606W        W17500   8.361   7.008  13.313 -0.3406  0.1457 -0.1478
 1607W        W17501  11.266  15.961  11.313 -0.3210  0.0205  0.0344
 1608W        W17502  12.755  15.001   0.841 -0.1988  0.2901 -0.0206
 1609W        W17503  12.214  15.380   0.992  0.0295 -0.0388  0.2551
 1610W        W17504  10.626  11.892   0.253  0.0219  0.3900  0.2299
 1611W        W17505  10.398  14.303  13.905  0.3315 -0.0602 -0.0147
 1612W        W17506  17.144   5.641   5.199 -0.0394  0.4208  0.2860
 1613W        W17507  13.528  11.834  10.533  0.0681 -0.1860  0.1311
 1614W        W17508   7.538   5.960   4.964  0.0714  0.2323  0.0815
 1615W        W17509  12.493   2.893  15.229  0.0284 -0.1758 -0.0362
 1616W        W17510   6.534  13.518   3.861 -0.2320  0.0245 -0.0458
 1617W        W17511   9.767  13.479  11.639  0.1042 -0.2166 -0.1031
 1618W        W17512  15.611   7.093  11.559  0.1746 -0.1594 -0.0078
 1619W        W17513   7.944  16.789   2.099 -0.0803  0.2239  0.2311
 1620W        W17514  15.881   1.765  12.212  0.1157  0.0418 -0.2843
 1621W        W17515  10.217  10.394   1.946  0.0372  0.1392 -0.1647
 1622W        W17516   2.976  18.268   4.054 -0.0724  0.1699  0.2759
 1623W        W17517   8.208   2.194   2.702 -0.1887 -0.1085  0.1438
 1624W        W17518   8.330   0.472   0.565  0.0406 -0.0833 -0.0629
 1625W        W17519   8.315   8.677  10.666  0.1516 -0.1533 -0.2541
 1626W        W17520  18.455  10.463   4.657  0.1505 -0.1453 -0.1342
 1627W        W17521  16.036  10.785   1.073 -0.0490 -0.0300 -0.0112
 1628W        W17522   6.913  11.146  14.763 -0.0043 -0.2155 -0.2683
 1629W        W17523   3.885   5.271  12.692 -0.0141  0.0191  0.1132
 1630W        W17524  12.418   5.796   5.764  0.0433 -0.0212  0.1085
 1631W        W17525  12.182  14.181   0.940 -0.0027  0.0833  0.0197
 1632W        W17526   6.340  12.700   2.216  0.0930  0.1957  0.2806
 1633W        W17527   4.827  18.612   4.062 -0.1102 -0.6322  0.2712
 1634W        W17528  18.351  15.746  15.117 -0.1228  0.1119  0.2345
 1635W        W17529   6.181   4.407   4.611  0.2417  0.0123  0.1707
 1636W        W17530  17.777  12.159  15.288  0.1004 -0.1187  0.3101
 1637W        W17531   0.578  12.148   2.418 -0.1108  0.3027  0.0926
 1638W        W17532  16.109   5.583  14.538  0.1955 -0.1788 -0.0395
 1639W        W17533  18.620   9.339  13.553  0.1340 -0.1937 -0.1101
 1640W        W17534  11.869   6.210   4.169 -0.0032 -0.1070  0.0974
 1641W        W17535   8.201  17.473   0.099  0.1645 -0.1118 -0.0885
 1642W        W17536   5.670  13.952  14.943 -0.0375 -0.1047 -0.1003
 1643W        W17537   4.376   5.985  15.221  0.3937  0.1035  0.0758
 1644W        W17538   7.988  12.956   1.173 -0.1099  0.0564  0.2588
 1645W        W17539  14.366   2.467  15.265 -0.0240  0.4840  0.1357
 1646W        W17540  15.391  18.113  11.978  0.0580  0.1034  0.1775
 1647W        W17541  10.949   7.011   4.331  0.4929 -0.0209  0.2229
 1648W        W17542   5.666   2.353  12.787  0.1274  0.0221 -0.0459
 1649W        W17543  13.069   3.013   3.555 -0.0750 -0.1061 -0.0781
 1650W        W17544   2.510   1.356   1.380 -0.1665  0.1223  0.1532
 1651W        W17545   8.647   3.113  11.100 -0.0850 -0.0724  0.0872
 1652W        W17546   6.470   5.262  13.901  0.1001  0.2302  0.0779
 1653W        W17547   7.428  16.686   0.940 -0.0774 -0.0562 -0.1530
 1654W        W17548  13.208  10.486   1.998 -0.0698 -0.0237 -0.1598
 1655W        W17549   6.211  13.607   0.791  0.1104 -0.2339  0.0278
 1656W        W17550   6.317   6.415  13.341  0.2992 -0.0044  0.0219
 1657W        W17551   8.546   3.583   4.117 -0.0226  0.1194  0.2891
 1658W        W17552  14.787   6.095  14.075  0.0302  0.0839  0.0452
 1659W        W17553  11.084  13.854  11.379 -0.1232 -0.2323 -0.2481
 1660W        W17554  16.418   5.134   0.098  0.0058  0.1284 -0.1407
 1661W        W17555  10.898  10.248   0.545  0.2629  0.2417  0.2262
 1662W        W17556   1.654  18.530  13.324  0.1883 -0.0496 -0.0095
 1663W        W17557  12.705   5.451  13.433  0.2900 -0.2183 -0.4811
 1664W        W17558  16.684   0.581   1.536  0.1187  0.0029 -0.3906
 1665W        W17559  12.201   9.731  14.000 -0.1408  0.0718  0.1486
 1666W        W17560   6.213  14.075  12.236  0.1730 -0.0369 -0.0750
 1667W        W17561   3.432   7.269   1.690 -0.2316 -0.1841 -0.2140
 1668W        W17562  10.383  14.002  11.454  0.0592  0.0710 -0.1529
 1669W        W17563  12.378   1.676   0.913  0.2444  0.0403 -0.0529
 1670W        W17564   2.965   5.824   4.961 -0.1179  0.2722 -0.2979
 1671W        W17565   3.834  18.646   1.197  0.3116 -0.0388 -0.6362
 1672W        W17566  12.003   1.915  10.894  0.2392 -0.0564 -0.3507
 1673W        W17567   9.530   1.843  12.000 -0.2147 -0.0584 -0.1307
 1674W        W17568  14.814   8.102  11.624  0.2322  0.5043 -0.0595
 1675W        W17569   5.526   5.009  13.293 -0.1128  0.3312 -0.0878
 1676W        W17570  13.838   6.128   3.459  0.1199 -0.3033  0.0797
 1677W        W17571  16.511  16.692  15.391  0.0468 -0.0342  0.2454
 1678W        W17572  11.413   3.812   1.359  0.1453 -0.0191  0.0061
 1679W        W17573   3.355  17.985   3.895 -0.5417 -0.0856 -0.0577
 1680W        W17574   3.789   4.933   1.512  0.2620  0.0060 -0.2289
 1681W        W17575   4.863   3.942  12.808 -0.0716  0.0258 -0.0050
 1682W        W17576  11.339   9.704   4.788  0.1287  0.0871 -0.1544
 1683W        W17577   5.852  15.129  10.155  0.3539 -0.1542  0.1240
 1684W        W17578   4.444   5.296  14.462  0.2617  0.3207 -0.1802
 1685W        W17579  11.646  18.724   3.572 -0.0659  0.2828  0.0947
 1686W        W17580  14.462   4.035  12.533 -0.0653 -0.1493  0.1601
 1687W        W17581  14.668  18.138  15.421 -0.0540 -0.1067 -0.0390
 1688W        W17582   4.769   1.550   1.498 -0.0271 -0.0083  0.2656
 1689W        W17583  10.771  16.016  12.532 -0.3037  0.0468  0.1779
 1690W        W17584  12.689  15.873  15.259  0.1357  0.1981 -0.0507
 1691W        W17585  12.829   4.140   5.468 -0.1117  0.0576  0.2502
 1692W        W17586  12.623   4.733  12.203  0.2343 -0.1152  0.0326
 1693W        W17587   5.156   9.862   3.932  0.0807  0.1313 -0.0014
 1694W        W17588  12.896   2.673   0.414  0.4366 -0.1910 -0.0142
 1695W        W17589  11.583   3.901  11.215 -0.1549  0.0648 -0.1477
 1696W        W17590   6.778   5.751  12.508  0.0322  0.1019 -0.3838
 1697W        W17591  17.301   6.378  13.071  0.1314 -0.0898  0.1329
 1698W        W17592  11.249   2.566   0.326 -0.1432  0.0692 -0.0831
 1699W        W17593   8.558  15.912   2.839 -0.1186 -0.0913  0.2054
 1700W        W17594   8.995  18.719   1.165  0.0133  0.1655  0.1368
 1701W        W17595  16.384   0.383  15.347  0.1776  0.3454  0.3304
 1702W        W17596  18.290   3.385   4.939 -0.3117 -0.0656  0.1215
 1703W        W17597  14.907   3.483  13.192 -0.3424 -0.1041 -0.1419
 1704W        W17598   8.983   1.261  15.529 -0.2461 -0.1895 -0.0928
 1705W        W17599   2.621  10.836  12.131 -0.1318  0.1218 -0.1470
 1706W        W17600   9.151  12.302   2.146 -0.3244 -0.4660 -0.1563
 1707W        W17601   6.852   0.863   0.346  0.0177 -0.0911 -0.0138
 1708W        W17602   9.839   7.143  13.257  0.0731 -0.0023  0.0829
 1709W        W17603   2.933   4.570   1.127 -0.1835 -0.1213 -0.0991
 1710W        W17604   8.159   3.879  13.183  0.5564 -0.1421 -0.0382
 1711W        W17605   4.657  15.341   1.115  0.0754 -0.2836 -0.0438
 1712W        W17606   4.686   8.813  10.936 -0.3764  0.1032  0.1326
 1713W        W17607  16.361   2.724  10.554  0.0774 -0.0165  0.0019
 1714W        W17608   5.339  11.444  10.247 -0.2732 -0.4221  0.0774
 1715W        W17609   2.466   2.465   9.510  0.3023 -0.1776  0.0292
 1716W        W17610   1.851  14.632   2.545  0.3852 -0.3342  0.1663
 1717W        W17611   9.444  11.160  12.316  0.2326  0.1506  0.1664
 1718W        W17612  15.037  10.943  12.877 -0.3388  0.1464  0.1408
 1719W        W17613   1.347   9.384   3.049  0.0754  0.0324  0.1740
 1720W        W17614  11.528   7.928  12.436 -0.0351  0.0371 -0.2256
 1721W        W17615  16.045  18.502   5.674  0.2205 -0.0309  0.4037
 1722W        W17616  15.078   3.071   4.274  0.1824 -0.0478 -0.1297
 1723W        W17617   8.909   7.622  13.967  0.0011 -0.0743 -0.0961
 1724W        W17618  13.143   6.365  12.586  0.1224  0.3038  0.0949
 1725W        W17619   6.429   2.084  10.896 -0.0983  0.1147  0.1187
 1726W        W17620   5.115  15.481  13.474 -0.2100 -0.2747  0.0930
 1727W        W17621  16.222  17.429   3.404  0.1950 -0.0669  0.0383
 1728W        W17622   5.200  18.541   4.441  0.4481 -0.1146  0.2323
 1729W        W17623   8.847  14.094  12.505 -0.1725  0.1146  0.1683
 1730W        W17624  12.042   1.696   1.292  0.4801  0.2329  0.1859
 1731W        W17625   2.691  17.882  12.588 -0.1262 -0.1337  0.0485
 1732W        W17626  10.886   5.621   5.163  0.2464  0.0942  0.4048
 1733W        W17627   4.873   1.827   1.960  0.1331  0.0470  0.2095
 1734W        W17628   1.641  11.554  13.456  0.3353  0.0295 -0.3998
 1735W        W17629   5.134   7.712  10.523  0.1778 -0.1274  0.0627
 1736W        W17630   2.953  13.579  15.464 -0.0261  0.1477 -0.0695
 1737W        W17631  15.711   2.672   0.346 -0.2089 -0.0538 -0.0593
 1738W        W17632   9.448  16.552   1.806 -0.3707  0.1216 -0.0196
 1739W        W17633  13.092   3.518   2.108 -0.0336  0.1697  0.2590
 1740W        W17634  15.165   0.643   0.409 -0.1315 -0.0205  0.2137
 1741W        W17635   4.723  10.698  12.316 -0.0918  0.2983 -0.3309
 1742W        W17636  12.255  17.664  14.406  0.1732 -0.1317  0.0992
 1743W        W17637  13.028   6.873   1.219 -0.1817  0.0577  0.1183
 1744W        W17638   5.901   4.423  13.366 -0.2259 -0.0981 -0.2543
 1745W        W17639   4.121  15.550   2.782  0.0557  0.1778 -0.0548
 1746W        W17640  10.623  15.425   1.948 -0.4551 -0.0291  0.1868
 1747W        W17641   5.940   1.719  14.097 -0.1970 -0.1390  0.1289
 1748W        W17642  16.888   5.330   3.470  0.2878 -0.0396 -0.0432
 1749W        W17643   2.370  17.762   3.115  0.2496 -0.1884 -0.2455
 1750W        W17644   8.136  16.975   1.698 -0.0084 -0.1396  0.2893
 1751W        W17645  16.655   4.556   4.904 -0.1147 -0.0371 -0.2611
 1752W        W17646  10.090   6.479   2.925  0.0155  0.0379 -0.1434
 1753W        W17647   2.957   4.267   0.653 -0.0661 -0.0991  0.2030
 1754W        W17648   3.294  18.518  13.740 -0.0262  0.0709 -0.0113
 1755W        W17649  18.764  15.176   4.006  0.1353  0.0223 -0.0151
 1756W        W17650  14.759   9.839   2.824 -0.0328 -0.0319  0.0950
 1757W        W17651  13.165  16.901  14.312  0.2808  0.0486  0.0918
 1758W        W17652  15.788   9.774  12.828  0.3090 -0.1041 -0.0625
 1759W        W17653  15.676  13.311  11.361 -0.1447  0.0226  0.0452
 1760W        W17654   8.318   5.297   3.798  0.0609  0.2225 -0.3009
 1761W        W17655  12.857  18.282  15.282  0.1915  0.0986 -0.2322
 1762W        W17656  10.502   2.742   0.779 -0.0505 -0.1522 -0.0619
 1763W        W17657   0.966  10.387   4.124 -0.1093  0.2617 -0.1643
 1764W        W17658   8.333  17.085  14.354 -0.1441 -0.1361  0.2549
 1765W        W17659   1.860  14.112   9.889 -0.4392  0.3677 -0.0096
 1766W        W17660   4.661  11.482  15.060  0.2252 -0.1081 -0.3092
 1767W        W17661   2.162   5.782  10.186 -0.0447  0.0858 -0.0002
 1768W        W17662   8.333   5.628   1.890 -0.2006  0.1957  0.0645
 1769W        W17663  12.485  10.465   2.552 -0.1821  0.1451 -0.0571
 1770W        W17664   6.737   0.807  12.664 -0.0329 -0.0396 -0.1019
 1771W        W17665   4.919  11.541   1.811  0.0785  0.2680 -0.2003
 1772W        W17666   0.753   6.506  13.855 -0.2165 -0.0350  0.0223
 1773W        W17667  16.306  18.384  11.627  0.0758  0.2897  0.1460
 1774W        W17668  17.681   2.954   2.778 -0.0890  0.0173  0.3552
 1775W        W17669  14.002   1.570  13.172 -0.1146 -0.0642  0.3738
 1776W        W17670  14.272  10.945   2.915 -0.1476  0.1341  0.1037
 1777W        W17671   4.807   8.795   2.887 -0.1873  0.0719  0.0327
 1778W        W17672  13.427   9.477   4.539 -0.0178  0.2223 -0.1565
 1779W        W17673   2.270   1.664   2.471 -0.1245  0.2913 -0.1075
 1780W        W17674  13.739  10.361   3.898  0.1233 -0.0125  0.1289
 1781W        W17675  10.261  15.363   4.509  0.1238  0.0912  0.2241
 1782W        W17676  10.250   0.437  14.757 -0.1180 -0.3738 -0.0903
 1783W        W17677  14.300   2.442  11.153  0.2894  0.0065 -0.0345
 1784W        W17678   4.991   4.610  14.046 -0.0127  0.1370 -0.0475
 1785W        W17679  16.743   4.444   9.794  0.0203  0.4118 -0.0523
 1786W        W17680  13.147  17.684   4.299 -0.1239 -0.1040 -0.2676
 1787W        W17681   4.960   7.689  13.075 -0.1125 -0.2179 -0.0371
 1788W        W17682   9.368   5.363  10.852  0.0970  0.0426 -0.4866
 1789W        W17683  16.713   9.093   2.843  0.1387 -0.0091 -0.0455
 1790W        W17684  16.328  11.640  13.026  0.2107 -0.4047 -0.0320
 1791W        W17685   7.843   3.721   1.555  0.2226 -0.0006 -0.0907
 1792W        W17686  17.610   2.746  10.431  0.2251  0.0692  0.1147
 1793W        W17687   7.730  18.020   5.090  0.1606  0.1595  0.0654
 1794W        W17688  17.529   1.668   3.431  0.2634 -0.1466 -0.3932
 1795W        W17689  10.355   3.343   2.428 -0.0179 -0.1155 -0.0993
 1796W        W17690  17.294   3.375   3.291  0.1840 -0.4028 -0.0731
 1797W        W17691   4.014   7.898  15.253 -0.0208 -0.0717  0.1569
 1798W        W17692   2.106   8.216  15.090  0.4494 -0.0655  0.0021
 1799W        W17693  10.176   6.274  11.576  0.2535 -0.1640  0.1023
 1800W        W17694   6.798   6.300  12.473  0.2396 -0.0571  0.2246
 1801W        W17695   4.321   0.265   3.349  0.1144  0.0041  0.1224
 1802W        W17696  12.493   2.053   4.197  0.1972 -0.0130  0.1626
 1803W        W17697   4.663  13.774   9.810 -0.0186 -0.1525 -0.0424
 1804W        W17698   0.141   1.099  15.129 -0.0587  0.1218 -0.3145
 1805W        W17699   4.469  11.327   5.117 -0.1545 -0.3368  0.2637
 1806W        W17700   5.383  13.990  15.327  0.1871  0.1298  0.1607
 1807W        W17701   7.076   7.353  10.722  0.3906  0.1197  0.3127
 1808W        W17702   3.710   2.666   1.874 -0.0281  0.2805  0.0389
 1809W        W17703   1.284  10.001   0.711  0.0101  0.0427 -0.1844
 1810W        W17704  10.328  12.566   4.523  0.0226 -0.1966  0.3087
 1811W        W17705   6.547  18.197  15.006 -0.0909 -0.0658  0.1214
 1812W        W17706  15.169   6.487   0.209  0.1326  0.2307  0.3332
 1813W        W17707   0.934   7.508   3.328  0.3014  0.1404 -0.1013
 1814W        W17708   2.329  10.100   0.554 -0.0890 -0.0899 -0.7263
 1815W        W17709   0.601   0.115   2.530  0.1861 -0.0474 -0.3432
 1816W        W17710  12.618  15.547  13.246  0.3082 -0.1036 -0.0121
 1817W        W17711  12.387   5.470   6.174  0.2371  0.0900  0.0210
 1818W        W17712  10.856   1.203  12.814 -0.1893 -0.3437  0.0944
 1819W        W17713  11.274   2.313   3.943  0.1264  0.0883  0.1016
 1820W        W17714   8.733  10.520  11.246  0.0500 -0.1994 -0.1332
 1821W        W17715   5.832  16.548   2.778  0.0315 -0.2901  0.0417
 1822W        W17716  13.709  16.090   3.910  0.0631  0.0319  0.0461
 1823W        W17717   6.808  10.302   4.660  0.0342 -0.4440 -0.0999
 1824W        W17718  14.947  13.091   1.911  0.1465  0.1070 -0.0999
 1825W        W17719  13.211  14.641  12.463 -0.2384 -0.1186  0.0436
 1826W        W17720   9.999   2.159  12.336  0.1919 -0.1414 -0.1165
 1827W        W17721  14.298   6.449  12.696 -0.0312 -0.2064  0.2815
 1828W        W17722  12.775  10.273  15.036  0.0056 -0.0259 -0.1137
 1829W        W17723  18.319  15.242   4.168 -0.1003  0.2729  0.3407
 1830W        W17724  15.748   9.446   1.880 -0.0925  0.0510 -0.5199
 1831W        W17725  15.117  12.168   1.859  0.0998 -0.1277 -0.3278
 1832W        W17726  10.207   4.788   1.686 -0.1398  0.1659 -0.0423
 1833W        W17727  17.597  16.244   4.059 -0.2507 -0.0497 -0.1124
 1834W        W17728   1.359   5.976   4.769  0.3099  0.0967  0.3418
 1835W        W17729  16.867  10.019  14.778  0.3254 -0.1802 -0.0404
 1836W        W17730   0.453   5.809  12.764  0.2489 -0.0865 -0.2471
 1837W        W17731  10.413  16.445  12.779  0.0209  0.1067 -0.0812
 1838W        W17732   7.689  17.749   2.524 -0.0660 -0.0417  0.2662
 1839W        W17733  11.276  16.430   5.115 -0.0340  0.2039  0.2447
 1840W        W17734  11.644   8.786  11.924  0.1196 -0.4005  0.0654
 1841W        W17735  12.444   4.010   0.532 -0.1152 -0.1040 -0.0892
 1842W        W17736   3.597   0.487  11.095 -0.1638 -0.1964  0.2040
 1843W        W17737  13.459   9.764  12.694 -0.0677  0.0633  0.1447
 1844W        W17738  10.075  13.868  13.823 -0.2348  0.3190 -0.0853
 1845W        W17739   9.482   7.146   3.975 -0.1853  0.5404 -0.0093
 1846W        W17740   8.132   8.594   2.768  0.0066 -0.0025 -0.0811
 1847W        W17741   5.714   3.597   1.360 -0.0756 -0.1208 -0.0964
 1848W        W17742   9.849   1.212  11.067  0.0564  0.2563 -0.2111
 1849W        W17743   6.440   3.400   4.711  0.2778  0.1061  0.1479
 1850W        W17744   6.319   6.086  14.324 -0.4024  0.0398 -0.1643
 1851W        W17745  10.872   4.657   0.281  0.0536  0.0013  0.1662
 1852W        W17746   0.327   7.503   0.592  0.1980  0.1191  0.2497
 1853W        W17747  12.471   1.506   5.002  0.0424 -0.6007 -0.1105
 1854W        W17748   7.793   0.574   1.963 -0.3339  0.4482 -0.2905
 1855W        W17749   9.665  11.479  11.853 -0.0282  0.2788  0.0690
 1856W        W17750  14.512  10.404  13.293 -0.0414 -0.1715 -0.3141
 1857W        W17751  12.294   3.252   0.742  0.0341 -0.1310  0.1024
 1858W        W17752   5.075   5.748   0.937 -0.2538 -0.0744  0.1427
 1859W        W17753   0.399   3.877  10.265 -0.0075 -0.0027 -0.2705
 1860W        W17754   3.979   1.899   2.208  0.4218 -0.1415  0.2612
 1861W        W17755   2.129   2.370  12.691 -0.1168  0.0697 -0.2528
 1862W        W17756   6.720  10.403  11.531 -0.0182 -0.0280 -0.0697
 1863W        W17757  16.234   7.206  13.099 -0.1226  0.3418  0.1795
 1864W        W17758   9.953  17.445   0.184 -0.1020  0.2927  0.2309
 1865W        W17759   4.669   5.982  11.119 -0.1588  0.0169 -0.1348
 1866W        W17760  13.899   5.924  11.387 -0.0820  0.3276  0.1554
 1867W        W17761  14.339  16.089  15.178  0.1815  0.0209 -0.0082
 1868W        W17762   4.359   4.721   0.916  0.0328  0.0187  0.1183
 1869W        W17763   0.652   5.187   0.787  0.3608 -0.0447  0.0089
 1870W        W17764   4.033   3.002  14.634  0.0602 -0.0787  0.0792
 1871W        W17765   8.013   1.424   4.913  0.1221  0.1578  0.0759
 1872W        W17766  17.561   0.301   0.684  0.3889  0.0576  0.0277
 1873W        W17767  18.608  13.865  12.630 -0.0204  0.3586 -0.0664
 1874W        W17768  18.026   1.101   1.175 -0.2060 -0.2823 -0.1160
 1875W        W17769  10.398  14.216   3.996  0.3606  0.0199 -0.3582
 1876W        W17770   2.967  17.790   3.103  0.0798 -0.0977  0.0513
 1877W        W17771   6.894  15.791   1.639  0.2276 -0.0071  0.2093
 1878W        W17772   5.033   7.048  10.514  0.2755 -0.1829  0.4088
 1879W        W17773  10.850   2.670  14.985  0.4601  0.0098 -0.0969
 1880W        W17774   0.264  13.751   3.221 -0.2853  0.2621  0.1507
 1881W        W17775  17.030  15.569   4.456  0.1451  0.0138 -0.1817
 1882W        W17776  18.418   9.444  14.499  0.3675 -0.1063 -0.0019
 1883W        W17777   0.717   4.540  14.859  0.1261 -0.1149  0.1912
 1884W        W17778   2.027   1.174   4.809 -0.0438 -0.1008 -0.3011
 1885W        W17779   4.452  14.274   0.174 -0.0715  0.0481 -0.0458
 1886W        W17780  12.603  11.143  14.892 -0.0146 -0.0077 -0.1105
 1887W        W17781   6.574  15.204  13.196 -0.1000 -0.2338  0.2331
 1888W        W17782   8.709   7.514  14.957  0.3679  0.2012 -0.1035
 1889W        W17783   1.675   9.799  14.870  0.0626 -0.1983  0.1811
 1890W        W17784   5.901   6.670  14.656  0.2277 -0.0491 -0.3040
 1891W        W17785   8.601   0.758  12.195 -0.2436 -0.2137  0.0750
 1892W        W17786   3.502   1.912  14.178 -0.1567 -0.1869  0.2394
 1893W        W17787  11.594   2.423  12.689  0.1171  0.0397 -0.0918
 1894W        W17788   1.657   8.984  15.437  0.1411 -0.0340 -0.2594
 1895W        W17789  13.970  16.190   3.277 -0.2892  0.1993  0.1249
 1896W        W17790   6.508   3.015   4.018 -0.1994 -0.3876 -0.1416
 1897W        W17791  15.028   7.764   0.379  0.1446  0.0723  0.0447
 1898W        W17792   4.612   3.803   3.016  0.1244 -0.0769  0.2685
 1899W        W17793   9.278  16.294   4.750  0.1483 -0.4773  0.1597
 1900W        W17794   7.613   8.987  12.172  0.2811 -0.0633 -0.0502
 1901W        W17795  11.891  10.839  13.409  0.1350  0.1087 -0.0738
 1902W        W17796   5.238   4.626   2.640 -0.1890  0.4432 -0.0178
 1903W        W17797   2.555   5.524   4.140 -0.2430  0.3236 -0.0399
 1904W        W17798   9.822   4.712  13.103 -0.1779  0.1624 -0.0134
 1905W        W17799   9.541  11.390   0.155 -0.2092 -0.0116  0.0049
 1906W        W17800   0.011   6.617  13.037 -0.0478  0.2035 -0.0032
 1907W        W17801   7.950   7.640   4.455  0.0457  0.1086  0.1710
 1908W        W17802   0.868  13.585  11.113  0.2308  0.1919  0.3818
 1909W        W17803  14.314  12.065  14.380  0.1984 -0.0584 -0.0402
 1910W        W17804   8.906  17.295   3.231  0.1143 -0.0638  0.0910
 1911W        W17805   6.500   7.812   1.001  0.2028  0.2576 -0.0552
 1912W        W17806   0.886   0.811   1.999  0.1083  0.1878  0.3085
 1913W        W17807   9.593   7.446  13.785  0.0836  0.2416 -0.2518
 1914W        W17808  13.124   7.144  10.840  0.0288 -0.1478 -0.2099
 1915W        W17809   4.663  10.235  11.118 -0.2016  0.1558  0.5043
 1916W        W17810  11.340  17.665  13.689  0.1708  0.0070 -0.1556
 1917W        W17811  10.820  11.674  15.487  0.1485  0.2903 -0.0651
 1918W        W17812  16.225  16.699  14.657  0.0144  0.2860 -0.1721
 1919W        W17813  15.345   5.598   2.744 -0.1329  0.2055  0.3003
 1920W        W17814   5.419  14.938  14.550 -0.0970  0.0509 -0.1021
 1921W        W17815   2.426   7.065  14.706 -0.3644 -0.0155  0.0246
 1922W        W17816  18.304  14.019  15.565 -0.0046  0.1032  0.0668
 1923W        W17817   5.236  12.003  10.874  0.0817  0.2236 -0.1035
 1924W        W17818  17.669   1.117  14.619  0.0829 -0.1165 -0.2255
 1925W        W17819   7.880   1.931  14.899 -0.0664 -0.1226 -0.1515
 1926W        W17820   0.513   8.836   9.742  0.1083  0.2026 -0.1296
 1927W        W17821   1.565   9.360  13.967  0.2979 -0.0818  0.0556
 1928W        W17822  11.925   4.295  13.680  0.2204 -0.3744 -0.2130
 1929W        W17823  17.952  12.601  11.804  0.0026 -0.0408  0.1447
 1930W        W17824  10.728   4.993   1.723 -0.3425  0.0694 -0.0117
 1931W        W17825   7.668  12.751   3.510  0.0062 -0.1462 -0.3154
 1932W        W17826   4.329   6.447  13.217  0.0595  0.5907  0.0891
 1933W        W17827  17.722  18.175  14.406  0.1207 -0.0292  0.1381
 1934W        W17828  14.163   1.174  13.501 -0.0676 -0.3678 -0.0328
 1935W        W17829   9.108  13.302  11.293 -0.0762  0.1078 -0.4888
 1936W        W17830   2.820   5.337   3.756 -0.1190 -0.3329 -0.3183
 1937W        W17831   4.298   5.052   4.691  0.2158  0.4160  0.1538
 1938W        W17832  14.749  18.688  14.112 -0.1500 -0.0442 -0.1074
 1939W        W17833  15.441   7.468   1.144  0.0252  0.2569 -0.0372
 1940W        W17834  10.049  14.880   0.383  0.6046  0.1269  0.1972
 1941W        W17835  11.103   6.635  10.494  0.0420  0.3428 -0.1499
 1942W        W17836  11.192  11.282  11.167  0.0122 -0.1807 -0.1969
 1943W        W17837  10.631  15.524  13.870 -0.0790 -0.3148 -0.2865
 1944W        W17838  17.390   6.739   0.465 -0.0109  0.1011 -0.1059
 1945W        W17839  18.527   4.506  11.752  0.0961  0.2970  0.1581
 1946W        W17840  16.406  11.111   3.259 -0.1188 -0.1378 -0.1427
 1947W        W17841   0.376  11.287  11.825 -0.2391 -0.2886  0.1588
 1948W        W17842   0.921   3.353  14.010 -0.0025  0.0207 -0.0137
 1949W        W17843   4.504   5.850  13.784  0.0353 -0.0064  0.1112
 1950W        W17844  10.151   9.172  14.185  0.0631  0.0030 -0.3073
 1951W        W17845  13.504  15.893  10.827  0.1343 -0.1947  0.0172
 1952W        W17846   1.120  11.928   2.514  0.2691  0.0065 -0.1180
 1953W        W17847  12.080  16.068   1.672  0.0336 -0.0719  0.0259
 1954W        W17848   1.016  15.512  12.615  0.0930  0.1241  0.0761
 1955W        W17849   8.063   8.354   5.363  0.3531  0.2242 -0.2843
 1956W        W17850   5.948   1.722  14.664 -0.1168 -0.2345  0.0923
 1957W        W17851  11.041   4.796   0.738 -0.1122  0.0307  0.5870
 1958W        W17852  16.001  14.445   3.089 -0.2196 -0.0763  0.1399
 1959W        W17853  11.069   6.260  11.367 -0.0350 -0.1734  0.4894
 1960W        W17854  17.976   6.127   0.129 -0.0684  0.0870  0.2808
 1961W        W17855  10.836   5.103  12.620  0.4822  0.2501 -0.0951
 1962W        W17856  15.686  13.104  13.500  0.0466  0.1521  0.3900
 1963W        W17857   8.915  15.958  13.898 -0.0791  0.0629 -0.2516
 1964W        W17858  11.694   2.285   0.967 -0.0414 -0.1205 -0.0197
 1965W        W17859   1.257  11.988   0.686 -0.0628 -0.1614 -0.0784
 1966W        W17860   4.946  11.915   0.071 -0.0727 -0.2834 -0.0461
 1967W        W17861   4.824   6.322   1.711 -0.1251 -0.2243  0.0431
 1968W        W17862   5.491   1.639  13.908  0.1443  0.0237  0.0329
 1969W        W17863   6.789  15.344   0.504 -0.0905  0.1213  0.1276
 1970W        W17864   2.947   7.116  13.372  0.1344 -0.0940 -0.3973
 1971W        W17865   3.854   8.299   2.857 -0.0126  0.0261  0.0243
 1972W        W17866  15.751  10.127   5.717  0.0117  0.1670  0.0006
 1973W        W17867   9.375  10.911   0.921  0.0080  0.0106  0.0606
 1974W        W17868   4.973  15.243   1.465 -0.1187 -0.0573 -0.0760
 1975W        W17869   9.429  15.066   0.143  0.1522  0.0761 -0.7066
 1976W        W17870  16.694   5.825   4.292 -0.0661 -0.1201 -0.1754
 1977W        W17871  18.612   6.197  13.958  0.1542 -0.2603  0.1002
 1978W        W17872   1.095   2.328   4.353 -0.1897 -0.4521 -0.0966
 1979W        W17873  13.073  12.110   4.341 -0.0491  0.0942  0.3756
 1980W        W17874   9.104   5.692   2.321 -0.2026 -0.1471  0.0732
 1981W        W17875  12.187  12.472   2.426  0.1023 -0.0923 -0.0958
 1982W        W17876  12.397   9.285  13.377 -0.1096 -0.1852 -0.2165
 1983W        W17877   0.284   5.250   3.144 -0.1051 -0.2514  0.0437
 1984W        W17878   0.376   9.704   0.863 -0.1271  0.1197  0.4338
 1985W        W17879  11.948   9.127  12.098 -0.3543  0.0972  0.1594
 1986W        W17880  13.787  14.872   0.681  0.0245  0.1485 -0.0806
 1987W        W17881   8.761   7.317   1.099 -0.1715 -0.3561  0.0740
 1988W        W17882   3.184  16.247   4.861  0.0957 -0.3474 -0.0968
 1989W        W17883  18.405  15.685   5.721 -0.4377 -0.1799  0.0004
 1990W        W17884   4.715   3.682  14.602 -0.4223 -0.0031 -0.0597
 1991W        W17885  14.750  12.266   6.031  0.1884 -0.0116  0.0850
 1992W        W17886  15.518   3.650  10.432  0.5375 -0.2993 -0.0745
 1993W        W17887  10.947   2.723   2.445  0.1533 -0.0331  0.0340
 1994W        W17888  13.289  16.439  14.517 -0.2124 -0.1903  0.1397
 1995W        W17889   2.831   3.944   1.035  0.0836 -0.1020  0.0153
 1996W        W17890   0.754   1.660   6.043  0.4151  0.3305 -0.2118
 1997W        W17891  13.584   5.852  12.373  0.3156  0.1254 -0.1628
 1998W        W17892  17.923   4.236   1.202 -0.3510 -0.2961  0.0054
 1999W        W17893   2.062   8.115  12.415  0.1878 -0.0781 -0.3754
 2000W        W17894  11.257   0.366   3.737  0.0819 -0.0648  0.0852
 2001W        W17895  15.828  16.749   4.961  0.3600  0.2226  0.0317
 2002W        W17896   5.779   1.781   1.482  0.0652  0.0555 -0.0410
 2003W        W17897   0.703   7.588  15.385 -0.0345  0.4015 -0.2719
 2004W        W17898   1.773  10.839  14.166 -0.2650 -0.0940  0.0060
 2005W        W17899   3.070   3.157  11.889  0.2682  0.0803 -0.0530
 2006W        W17900   9.458   5.403   5.105  0.2323  0.0336 -0.0895
 2007W        W17901  17.768  13.412  14.324 -0.0781  0.3237  0.2170
 2008W        W17902   3.942   4.268  11.087  0.3040  0.0738 -0.0174
 2009W        W17903  14.441   1.140  14.926  0.2566 -0.1348 -0.2260
 2010W        W17904  12.326   2.384   0.235  0.0233  0.4143  0.0706
 2011W        W17905  13.989   8.157  15.044  0.1356 -0.3419 -0.2885
 2012W        W17906  18.573  10.726   1.528 -0.3225 -0.1869  0.0164
 2013W        W17907  16.528   1.783   0.254  0.0758  0.1689  0.1851
 2014W        W17908  17.081   5.438  15.013  0.0524 -0.1745  0.2517
 2015W        W17909   0.695   2.175  14.599 -0.0874 -0.1124 -0.1245
 2016W        W17910   7.059   2.982  14.028 -0.1181 -0.1238 -0.2220
 2017W        W17911   5.538   0.602   3.954  0.2250  0.0729  0.2720
 2018W        W17912   5.944  16.864   1.243 -0.1725  0.0453 -0.3193
 2019W        W17913   3.157   4.915  12.262 -0.2820  0.0064 -0.2132
 2020W        W17914  11.575  16.101   3.560  0.0390  0.2884 -0.0689
 2021W        W17915  16.800  17.651   5.832 -0.4593  0.2548 -0.0924
 2022W        W17916  13.262   5.968  13.379  0.1769 -0.2323 -0.3101
 2023W        W17917   3.782  10.065   5.016  0.3169 -0.2705  0.3432
 2024W        W17918  10.061   5.671   0.336 -0.0136  0.3059  0.1762
 2025W        W17919   4.349   7.811   3.524 -0.1109  0.2371 -0.0476
 2026W        W17920   6.876   1.471  15.237  0.0764 -0.0078  0.0571
 2027W        W17921   2.265  11.392  15.555  0.2377  0.1083 -0.0716
 2028W        W17922  18.394  10.505   5.984 -0.0355  0.2585 -0.0180
 2029W        W17923   6.402   6.080  11.218  0.0387 -0.2277 -0.1005
 2030W        W17924  13.287  10.968   0.400 -0.1750  0.1098  0.1747
 2031W        W17925   2.222  13.070   5.295  0.0603  0.0171 -0.1800
 2032W        W17926  12.172   9.690   1.733 -0.0202 -0.2057  0.0632
 2033W        W17927   3.188  15.244  12.163  0.1213 -0.0999 -0.3674
 2034W        W17928  11.548  10.474   5.481  0.1205 -0.2216 -0.1017
 2035W        W17929   1.553   3.148   2.780  0.1406  0.1426 -0.2738
 2036W        W17930  18.597  18.640   3.168  0.0414  0.2055 -0.0843
 2037W        W17931  18.111  18.207  12.332  0.1283  0.2259 -0.2949
 2038W        W17932  14.867  11.238   5.965  0.1453 -0.0503 -0.2388
 2039W        W17933  10.794  12.520   4.639  0.1105 -0.0425  0.3981
 2040W        W17934  11.160  18.088  13.902  0.0374  0.0582 -0.0792
 2041W        W17935   0.376   5.292   5.129 -0.2352 -0.1727 -0.0728
 2042W        W17936  15.893  10.301   1.251  0.1946 -0.3161  0.1085
 2043W        W17937   8.785  14.328  14.461  0.2058  0.0301 -0.0656
 2044W        W17938  11.928  15.887  13.940  0.0890 -0.3527  0.0167
 2045W        W17939   1.902  10.469  14.478  0.1804 -0.0488 -0.2450
 2046W        W17940   8.484   1.712   4.738  0.0407 -0.0422  0.3953
 2047W        W17941   6.699  16.245   0.931  0.1756  0.1539  0.1650
 2048W        W17942   0.077  15.570  15.196  0.0762 -0.2480 -0.1805
 2049W        W17943   3.355  17.077   4.386  0.2412 -0.3044 -0.0135
 2050W        W17944   7.987  16.827  15.540 -0.0952 -0.2955 -0.3195
 2051W        W17945  12.394   9.184   2.976  0.0144  0.1832  0.0297
 2052W        W17946  12.377  14.876  14.213 -0.0779  0.0026 -0.1718
 2053W        W17947   5.782   8.872  15.426  0.0511 -0.3149 -0.1752
 2054W        W17948  14.694  10.951  11.964 -0.0665 -0.1694  0.1688
 2055W        W17949  15.354   1.526  12.370  0.3695 -0.2121  0.0360
 2056W        W17950  13.379  15.361  13.158  0.0403 -0.1912  0.0207
 2057W        W17951  14.801  12.042  14.607 -0.0261 -0.4680  0.1005
 2058W        W17952  16.745  12.343   5.028  0.0076  0.0631  0.0199
 2059W        W17953  16.671   2.138  11.888  0.3026 -0.0574 -0.2750
 2060W        W17954  14.347  17.995   1.158  0.0757 -0.0745 -0.1188
 2061W        W17955   6.061  15.790  13.879  0.0760 -0.0328  0.2048
 2062W        W17956   1.023  11.978  15.342 -0.2319 -0.1991 -0.1401
 2063W        W17957  14.745  12.328  13.567 -0.0421  0.1756 -0.0290
 2064W        W17958   4.871  17.695   3.572 -0.4898  0.0050 -0.4351
 2065W        W17959   3.709   6.870  10.876  0.1913  0.0209 -0.0048
 2066W        W17960   7.128   9.186  10.754 -0.1355  0.1629  0.1120
 2067W        W17961  18.637  10.340   0.972 -0.2797  0.0538 -0.0758
 2068W        W17962  17.732   8.668   2.456 -0.0781  0.1860  0.1574
 2069W        W17963   9.613   6.866   0.686  0.1796 -0.0390  0.1839
 2070W        W17964   4.636   7.362  12.968 -0.2842 -0.3694  0.3243
 2071W        W17965   4.914   5.124   2.450 -0.1496  0.2378  0.0917
 2072W        W17966  14.132   7.568  13.383 -0.0755  0.0099  0.3435
 2073W        W17967   3.632  14.878  14.673 -0.1777  0.0480  0.0088
 2074W        W17968   5.540   6.977  12.033 -0.1276 -0.3806  0.1738
 2075W        W17969  14.193  14.473  14.816  0.1438 -0.1079  0.1177
 2076W        W17970  16.054  13.593   5.553  0.1660  0.0269  0.1948
 2077W        W17971   6.678  11.195  12.325 -0.4326 -0.1291  0.1305
 2078W        W17972   6.857   4.302  10.303  0.1103 -0.0453 -0.1079
 2079W        W17973  10.043  13.723   0.896  0.0435 -0.0270  0.2322
 2080W        W17974   5.146   8.183  13.396  0.0407 -0.3168 -0.0214
 2081W        W17975  14.624   7.308   6.094 -0.1397 -0.0262  0.1579
 2082W        W17976   4.248   7.171  14.776 -0.3896  0.0961  0.4360
 2083W        W17977  12.477   5.665   2.955 -0.0409  0.2661  0.2128
 2084W        W17978  12.974   1.872  13.511 -0.0861 -0.0300 -0.0249
 2085W        W17979   7.141  14.873  15.402  0.1505 -0.0925  0.1229
 2086W        W17980  14.730   5.385  14.818  0.0563 -0.4265  0.3123
 2087W        W17981  16.989   8.844  13.161 -0.2129  0.4714 -0.2022
 2088W        W17982   8.167   5.106  12.368  0.1993 -0.0283  0.1286
 2089W        W17983   3.976   5.829  13.852  0.1207  0.1268 -0.3315
 2090W        W17984  15.268  11.649  11.932 -0.1397  0.2222  0.0982
 2091W        W17985   2.672  12.932   0.472 -0.0010  0.2611  0.2323
 2092W        W17986  14.095   6.085  12.342  0.1209  0.0484  0.2965
 2093W        W17987   0.784   3.756  11.777  0.1459  0.1851  0.0231
 2094W        W17988   4.554  17.233  15.113  0.0428 -0.1471  0.1196
 2095W        W17989   2.715  14.608   1.697 -0.2278 -0.1756 -0.5649
 2096W        W17990  16.021   4.514  10.896 -0.1167  0.0847 -0.0457
 2097W        W17991   4.999   7.161   1.251 -0.3796 -0.0908  0.1844
 2098W        W17992  17.583  17.544   5.235 -0.2373 -0.2667  0.1177
 2099W        W17993  17.426   2.880   1.580 -0.0409 -0.3798 -0.1758
 2100W        W17994  11.503  18.221  11.919  0.1177 -0.1944 -0.2064
 2101W        W17995   3.649   9.939   0.215 -0.3335  0.0226 -0.0418
 2102W        W17996   7.665   6.986   2.118  0.0271  0.2815 -0.5338
 2103W        W17997   6.321   9.126   4.759  0.2259 -0.2369  0.0705
 2104W        W17998  16.537  14.341  12.267  0.0241 -0.1638 -0.1420
 2105W        W17999   0.855   7.572   1.492 -0.1431 -0.2204 -0.1097
 2106W        W18000   4.024   2.528  12.151 -0.3260  0.3848 -0.2301
 2107W        W18001   5.571   7.125   5.520  0.0578 -0.1729  0.0470
 2108W        W18002  10.322   1.885   1.747  0.3677  0.0810  0.0950
 2109W        W18003   7.318   6.508   3.360  0.1966 -0.0785 -0.1427
 2110W        W18004   6.538  11.489   0.769 -0.0387  0.0203  0.0531
 2111W        W18005   4.116  17.018   2.362 -0.1250 -0.1184  0.0590
 2112W        W18006   3.284   0.105  14.604 -0.3789 -0.1284  0.4571
 2113W        W18007  16.938  16.157  15.365  0.0749 -0.0953  0.1628
 2114W        W18008  16.023  18.368  12.093  0.2688 -0.0171 -0.1356
 2115W        W18009  11.042   8.608   3.852 -0.1232  0.2516 -0.2117
 2116W        W18010   7.672  15.821   4.466  0.1475 -0.2070  0.0089
 2117W        W18011   6.002  11.842  12.023  0.0516  0.0251 -0.0328
 2118W        W18012   0.715   4.291   3.238 -0.2070 -0.0940 -0.0007
 2119W        W18013   4.281  13.279  13.332  0.3992 -0.1861 -0.0908
 2120W        W18014  15.817   6.143   3.355 -0.0349 -0.1118 -0.0139
 2121W        W18015  11.814  17.698  10.991  0.2489  0.0736 -0.4329
 2122W        W18016   1.886   2.303   3.887  0.0284 -0.0189 -0.0579
 2123W        W18017  17.471   1.655  11.798  0.2140  0.0528 -0.2367
 2124W        W18018  17.883  10.792   3.093  0.1906 -0.0773  0.0698
 2125W        W18019  17.879  11.430   1.254 -0.1146 -0.0414 -0.0139
 2126W        W18020  12.332   3.706   3.442  0.3095 -0.0119 -0.1387
 2127W        W18021  13.476  17.451   3.423 -0.0003 -0.0505 -0.1313
 2128W        W18022   0.209  12.627  14.787 -0.2215  0.1617  0.1225
 2129W        W18023  10.726  10.617  13.819 -0.3928 -0.1354 -0.1149
 2130W        W18024   7.632   0.972   2.956 -0.0790 -0.1556 -0.0388
 2131W        W18025  18.752   8.027   0.067  0.3512 -0.0330 -0.1757
 2132W        W18026   5.156  15.442   1.018  0.2198  0.1028  0.2399
 2133W        W18027   8.901   0.839  10.948 -0.1803 -0.0595  0.0817
 2134W        W18028   2.358  17.628  13.650 -0.1859 -0.0869 -0.0098
 2135W        W18029  11.397   7.574  12.001 -0.2361 -0.0718  0.0111
 2136W        W18030   7.731  14.358   5.056 -0.0558 -0.1097  0.0247
 2137W        W18031   2.007   9.750   3.399  0.2302  0.1791 -0.1730
 2138W        W18032  17.737  16.428   3.522  0.0318 -0.2642 -0.1111
 2139W        W18033  13.667   7.487  13.592  0.1546  0.1199 -0.1879
 2140W        W18034   5.961  16.572  15.004  0.0468  0.2130 -0.2812
 2141W        W18035  13.416  15.660   0.540  0.2511  0.1334 -0.0648
 2142W        W18036  12.112  11.162  10.569  0.1350 -0.0400  0.0466
 2143W        W18037   1.044   0.299   2.068 -0.2413  0.3083  0.1089
 2144W        W18038   9.700   6.755   4.845  0.0716 -0.1726 -0.1688
 2145W        W18039  18.086  18.140   3.331  0.2577 -0.1327 -0.0187
 2146W        W18040  11.003  12.741  12.558 -0.4411 -0.2434 -0.1435
 2147W        W18041   4.623   5.475   1.057  0.1264  0.0740 -0.0387
 2148W        W18042   1.932  15.306  12.936 -0.0156  0.1262 -0.3966
 2149W        W18043   7.410   0.823  13.422  0.0575  0.1838 -0.3098
 2150W        W18044   5.056  14.527  15.058 -0.1477  0.1911 -0.2182
 2151W        W18045   0.002  12.300  11.967 -0.2181  0.3627 -0.0808
 2152W        W18046  12.530  16.022   5.566 -0.0417  0.0057 -0.2613
 2153W        W18047   4.957  15.361   2.932  0.1909  0.3577 -0.1565
 2154W        W18048  15.549   9.211  15.086 -0.0047  0.1576 -0.2985
 2155W        W18049  12.207   4.568  11.005  0.0823  0.0861 -0.2243
 2156W        W18050   1.202   8.595   2.466 -0.0774 -0.1667 -0.0489
 2157W        W18051   2.063  14.143   9.419 -0.0288  0.2384  0.0294
 2158W        W18052  11.743  17.240  14.123 -0.0763 -0.1223 -0.1150
 2159W        W18053  17.554   3.661   4.606 -0.5386  0.0216  0.2878
 2160W        W18054   1.997   4.841   2.827  0.1692  0.1438 -0.2739
 2161W        W18055   7.992   0.932   3.893  0.0858  0.2357 -0.0279
 2162W        W18056   3.399  10.217  11.620 -0.0499  0.1276 -0.2018
 2163W        W18057   2.469  12.361   1.573  0.0609 -0.0211  0.2360
 2164W        W18058   6.701  18.244   2.221 -0.0711  0.2530  0.2715
 2165W        W18059  15.448   5.240  11.358 -0.1352 -0.1502  0.0197
 2166W        W18060   4.364   9.724  14.811 -0.1050  0.1476 -0.3649
 2167W        W18061   9.280  15.763   4.801  0.0411  0.1254 -0.2240
 2168W        W18062  17.920   2.133  13.674  0.2259  0.3139 -0.2466
 2169W        W18063  17.079  17.648   3.400 -0.2151 -0.1191 -0.1752
 2170W        W18064   3.498   1.034  15.447 -0.0438 -0.2729 -0.4305
 2171W        W18065   4.531   9.653  13.734  0.0829  0.1501 -0.4243
 2172W        W18066  12.422   1.826  15.597 -0.1810  0.2385 -0.2050
 2173W        W18067   2.157   0.649   2.012  0.0850 -0.2104 -0.0759
 2174W        W18068  15.467  15.120   2.019 -0.1852 -0.0573 -0.1071
 2175W        W18069   3.655   8.067   3.889 -0.4855 -0.1373 -0.0394
 2176W        W18070  10.008  13.086  12.064  0.2697 -0.1734  0.1601
 2177W        W18071  16.944   1.138  11.682  0.1189 -0.0083  0.0260
 2178W        W18072  15.104   9.002  11.565 -0.0875 -0.2355  0.1768
 2179W        W18073   1.045   8.593  12.869 -0.0682 -0.1656  0.1206
 2180W        W18074   0.330  14.744  11.567  0.0827  0.2481  0.2948
 2181W        W18075  14.900   2.810  15.180  0.2187 -0.1914  0.0471
 2182W        W18076   1.667  18.535   1.132 -0.1669 -0.0102 -0.0507
 2183W        W18077  11.572   1.300   3.439  0.4271  0.1216  0.3249
 2184W        W18078  11.976  12.714   0.064 -0.0082 -0.0400  0.1224
 2185W        W18079  10.560  17.109  11.511 -0.0962 -0.0145 -0.1534
 2186W        W18080   0.465  14.535   5.636 -0.1228  0.1798  0.0418
 2187W        W18081   2.398  12.070  13.678  0.4653 -0.2367  0.3400
 2188W        W18082   6.274  15.919   0.073 -0.1990  0.1799  0.0842
 2189W        W18083   7.191  11.260  14.281  0.1854  0.1219  0.0315
 2190W        W18084   7.355  17.462  10.791  0.2719 -0.0917  0.0607
 2191W        W18085   0.842  16.164   4.760 -0.1054  0.1321  0.2366
 2192W        W18086  15.421  17.499   2.787 -0.2627  0.0813  0.0574
 2193W        W18087   7.473   0.728   2.424  0.2849  0.0778 -0.0082
 2194W        W18088   0.141   5.816  12.164 -0.0869 -0.4309  0.1669
 2195W        W18089  18.050   8.179   2.688  0.1241 -0.0086 -0.1234
 2196W        W18090   7.368  13.690   0.384 -0.0153  0.3018  0.0924
 2197W        W18091   7.852   1.691  13.536 -0.0097  0.1744  0.3800
 2198W        W18092   5.695   1.649  12.229 -0.1464  0.1778  0.0928
 2199W        W18093  11.972   0.613  12.422 -0.1455 -0.0228 -0.0454
 2200W        W18094  10.651  12.671   1.995 -0.1147 -0.1856  0.0749
 2201W        W18095  13.089   3.840   4.117  0.0371  0.1086 -0.4193
 2202W        W18096   7.709   3.470   3.483 -0.1336 -0.3506 -0.2340
 2203W        W18097  10.595  10.267   0.941  0.0448 -0.3684 -0.0825
 2204W        W18098   2.796  18.232   5.181  0.2289  0.2834 -0.0501
 2205W        W18099  11.602   4.292   2.507 -0.1844 -0.0117 -0.2198
 2206W        W18100   9.008   7.164  12.743 -0.3317  0.0982  0.1171
 2207W        W18101  12.497   9.883  12.386 -0.0921 -0.1814 -0.0568
 2208W        W18102   8.101  17.781   2.898 -0.1979  0.1469  0.3656
 2209W        W18103  10.724   1.717  12.674 -0.3390 -0.1160 -0.1229
 2210W        W18104  15.787  16.980  13.231  0.0845  0.2777  0.0166
 2211W        W18105   7.581   0.615  10.952 -0.1466 -0.1730  0.1147
 2212W        W18106   0.066   8.884  12.405 -0.0164  0.1907  0.2701
 2213W        W18107   9.894  10.030   5.979 -0.0949  0.0623 -0.2918
 2214W        W18108   1.388   5.831   2.961  0.0035 -0.0637 -0.0071
 2215W        W18109  16.786  17.697  14.356  0.1716  0.1789 -0.0549
 2216W        W18110  12.474   0.003   4.898  0.0767 -0.5655  0.2136
 2217W        W18111   3.260   1.687  10.754  0.0163  0.0411 -0.1286
 2218W        W18112  14.664   9.022  11.202 -0.0142 -0.3900  0.1208
 2219W        W18113  14.138  14.309  12.383  0.0509  0.0515 -0.1780
 2220W        W18114  13.394   3.861  11.831 -0.0646  0.3710 -0.3375
 2221W        W18115  13.503   2.256  11.723 -0.0759  0.1207  0.0470
 2222W        W18116  16.964  17.166   3.630 -0.0690 -0.2696  0.2051
 2223W        W18117   5.023  14.926  10.627 -0.0824 -0.1284 -0.0573
 2224W        W18118  12.873   1.951   5.050 -0.5030 -0.0552 -0.0967
 2225W        W18119   9.272   0.667  14.210  0.1073  0.1888  0.1412
 2226W        W18120   5.054  17.607   0.841  0.0444 -0.0644 -0.3721
 2227W        W18121  13.418   0.160  14.690 -0.1120 -0.4351  0.1165
 2228W        W18122  18.708  14.396  11.403  0.0625 -0.0423 -0.2314
 2229W        W18123   2.929   5.292   2.539 -0.0084 -0.2206  0.0171
 2230W        W18124  12.439   8.539   4.279 -0.3774  0.3759 -0.2191
 2231W        W18125  18.455  17.870   4.985 -0.1265  0.1966 -0.2081
 2232W        W18126  12.120   9.010   4.746  0.0569 -0.1224  0.0215
 2233W        W18127  12.157  18.531  11.167 -0.1397 -0.0678  0.3316
 2234W        W18128   0.035   8.177  13.285 -0.1116  0.1804  0.1797
 2235W        W18129  18.734   6.953   0.120 -0.2033  0.2378  0.1205
 2236W        W18130  10.477  10.918  15.625  0.1564 -0.0019 -0.0615
 2237W        W18131  11.049   9.176  11.873 -0.2315 -0.2374 -0.0059
 2238W        W18132   3.081   2.977  12.983 -0.0564 -0.2649 -0.0720
 2239W        W18133  13.489  11.333   1.184 -0.1467 -0.2568 -0.0047
 2240W        W18134   8.604   3.141   2.642 -0.0025 -0.1828 -0.1300
 2241W        W18135   5.718  14.543   3.556 -0.0005  0.0829 -0.1875
 2242W        W18136   2.851  15.368   4.103  0.1379  0.1858  0.2829
 2243W        W18137   3.533  14.599  11.455  0.2797  0.0020 -0.1211
 2244W        W18138  15.702   3.596  13.542  0.3354 -0.2839  0.1827
 2245W        W18139   8.027   2.607   1.805 -0.0498  0.3607  0.0547
 2246W        W18140   8.901  17.409  13.632  0.0986  0.0870  0.0693
 2247W        W18141  16.383  11.308  14.187 -0.1082 -0.1469  0.0868
 2248W        W18142  15.584  18.376   3.578 -0.0082 -0.1534  0.1713
 2249W        W18143   6.538  13.700   4.427 -0.1680  0.0374  0.1801
 2250W        W18144   0.799   7.095  13.313 -0.2451 -0.0575 -0.0864
 2251W        W18145   3.919   8.545   4.061 -0.0508  0.1159  0.2489
 2252W        W18146  15.893  11.425   2.595 -0.0866  0.4388 -0.1255
 2253W        W18147  13.151   2.053  11.261 -0.1758  0.0773  0.1186
 2254W        W18148  10.155  16.939  11.261 -0.0018 -0.0639  0.0784
 2255W        W18149  11.011   2.581   1.713 -0.5074  0.3122  0.4430
 2256W        W18150   1.908  14.379   3.127  0.2153 -0.0443  0.3865
 2257W        W18151   0.618  13.676  13.836 -0.3109  0.1321  0.0236
 2258W        W18152  11.375  16.889   5.772 -0.0669 -0.0640  0.1852
 2259W        W18153   3.607  11.843   1.046 -0.2306 -0.0436  0.1180
 2260W        W18154   1.735  15.087   4.700  0.2723  0.1799 -0.0220
 2261W        W18155   2.017   3.425   1.039 -0.1611 -0.1354 -0.2382
 2262W        W18156   4.425   8.827  11.371  0.0346 -0.3611  0.2155
 2263W        W18157   9.948   0.471   4.332 -0.0054  0.0281  0.0892
 2264W        W18158   5.005  15.371  12.650 -0.2058  0.1055 -0.2164
 2265W        W18159   9.678   2.196  11.022  0.3432  0.1084  0.0982
 2266W        W18160   9.989   5.540   1.275  0.0298 -0.3731 -0.0536
 2267W        W18161  14.120  11.476  13.854 -0.2506  0.1836  0.0893
 2268W        W18162  16.970  12.705   2.087  0.1732 -0.0920 -0.0971
 2269W        W18163   7.284   5.974  11.761  0.0299 -0.1325  0.0310
 2270W        W18164   0.583   7.450  10.889 -0.0192  0.0235  0.0622
 2271W        W18165  16.144  12.776  11.606 -0.1050 -0.1601  0.1843
 2272W        W18166  15.886  14.315   0.640 -0.1824 -0.0605  0.0866
 2273W        W18167   8.317  13.202   4.563  0.1097 -0.3113 -0.1485
 2274W        W18168   7.595  15.063   4.531 -0.1372  0.3226  0.1791
 2275W        W18169  16.450  12.859   0.376  0.0183  0.1112  0.0549
 2276W        W18170   6.972   0.093  11.920 -0.0817  0.1655  0.0064
 2277W        W18171  13.092  15.482  14.393  0.0724  0.1430  0.2444
 2278W        W18172   6.414  16.069  14.351 -0.3595  0.2025  0.3253
 2279W        W18173   5.823   8.276   4.525 -0.0475 -0.0506  0.1437
 2280W        W18174   7.247  16.998  10.942  0.0669  0.2045 -0.4200
 2281W        W18175   5.232   0.909  14.978 -0.1037  0.1332 -0.2506
 2282W        W18176  17.894  15.136  11.168 -0.0799 -0.0810  0.3881
 2283W        W18177  13.559   4.292   2.371 -0.1751 -0.3234 -0.0895
 2284W        W18178  15.343  17.624   4.529  0.2142  0.2656 -0.0290
 2285W        W18179   0.359   3.166   4.431 -0.2064  0.2639  0.0410
 2286W        W18180   1.162  11.715   1.647  0.2007 -0.0734  0.1180
 2287W        W18181  15.557   6.833   2.949  0.0049  0.0094 -0.3590
 2288W        W18182  15.922   7.458   0.336  0.1118  0.0087 -0.0424
 2289W        W18183   2.296   5.819  10.922  0.3651 -0.0689 -0.0465
 2290W        W18184   6.093   1.149   4.117  0.1339  0.0967  0.1928
 2291W        W18185  18.365  10.282  11.821 -0.2286 -0.0004  0.0946
 2292W        W18186  15.129   8.650   3.202  0.1480  0.0436 -0.0415
 2293W        W18187  11.417  12.655  14.243  0.2059  0.1435 -0.3852
 2294W        W18188  11.621  15.751   9.873  0.3023  0.0242  0.0123
 2295W        W18189   3.516  12.430  15.315 -0.1141  0.1118  0.0641
 2296W        W18190  15.155   3.452  15.237 -0.0390 -0.1079  0.0861
 2297W        W18191   3.968   3.986  15.434 -0.0477  0.1444  0.0841
 2298W        W18192   4.859   2.128   0.786  0.1476  0.1678 -0.1172
 2299W        W18193   9.810   7.950  15.131  0.0673 -0.1442  0.2480
 2300W        W18194   1.284   3.863   1.041  0.1641  0.0244  0.0046
 2301W        W18195  11.633   9.516  13.304  0.0363 -0.0607  0.1298
 2302W        W18196  14.464  16.764   0.372  0.1304 -0.2956 -0.0476
 2303W        W18197  14.947   5.616  13.660  0.0897 -0.0518 -0.0567
 2304W        W18198   9.455  18.719   4.211 -0.2710  0.1531  0.0270
 2305W        W18199   0.270  10.346  14.851 -0.1065  0.0400 -0.0409
 2306W        W18200  14.030  12.826   0.200  0.0441  0.0083  0.2218
 2307W        W18201   3.558  18.242  13.041  0.1885  0.0885  0.2699
 2308W        W18202   3.779  13.234   1.905  0.0670  0.2096  0.1536
 2309W        W18203  15.888  10.477  13.995  0.1706 -0.1309 -0.1110
 2310W        W18204   1.166  13.120  11.417 -0.2231  0.1326 -0.0034
 2311W        W18205  18.568   5.081  12.256  0.1094  0.0044  0.1441
 2312W        W18206  13.481   0.825  12.493  0.2763  0.0597  0.0511
 2313W        W18207   5.362   9.044   4.220 -0.1515 -0.0933 -0.1381
 2314W        W18208   0.524  11.569   0.469 -0.0182 -0.2335  0.0762
 2315W        W18209   7.935  18.760   1.344 -0.3180 -0.1844  0.0721
 2316W        W18210  11.746   2.819  15.154  0.0423  0.0247 -0.1166
 2317W        W18211  15.101  14.553  11.396 -0.0069 -0.0325 -0.0368
 2318W        W18212   6.947  16.896  11.846  0.2513  0.0902 -0.0505
 2319W        W18213  18.520   9.346   0.125  0.1054  0.1216 -0.0644
 2320W        W18214   1.322  18.051  13.398  0.0782 -0.1240  0.2626
 2321W        W18215   0.848   8.784  14.302  0.0570 -0.3244  0.1620
 2322W        W18216   7.320  17.862   0.225  0.1809 -0.2550  0.0193
 2323W        W18217  17.189   1.149  14.899 -0.2082  0.1451  0.2431
 2324W        W18218  11.127  17.421   3.518 -0.2455  0.1730 -0.2329
 2325W        W18219   4.460   4.298   3.235  0.0107  0.4331  0.1125
 2326W        W18220   6.242   4.821  10.777 -0.1223 -0.0251  0.3363
 2327W        W18221   9.564  15.615  14.798  0.0596  0.0371 -0.0835
 2328W        W18222  18.488  10.374  15.140 -0.2609 -0.1163 -0.1161
 2329W        W18223  17.229  12.246   1.064  0.0905 -0.0822 -0.1281
 2330W        W18224  11.121  12.936   3.580 -0.3656 -0.3628  0.2773
 2331W        W18225  13.742  17.431  13.222 -0.2877  0.0059 -0.2067
 2332W        W18226  16.153  12.730  10.818  0.2953  0.1097  0.2295
 2333W        W18227  11.408   1.426  11.482 -0.4177 -0.0390 -0.0497
 2334W        W18228   2.147   2.391   3.423 -0.0076  0.2879  0.0644
 2335W        W18229   7.294   4.729  13.979 -0.0304 -0.2623  0.1039
 2336W        W18230   5.220  10.063   2.928 -0.4386  0.0004 -0.4640
 2337W        W18231   3.384   3.575   2.381  0.0242  0.5471  0.0517
 2338W        W18232   5.556   1.430  14.408  0.1956 -0.1883 -0.1005
 2339W        W18233   7.297  11.612   4.466  0.0269  0.1250 -0.0093
 2340W        W18234  15.437   1.080  15.089  0.2980 -0.1311  0.0431
 2341W        W18235   9.169  10.829  12.082  0.2394  0.2674  0.0795
 2342W        W18236  10.814  15.143   2.320 -0.0939 -0.1753 -0.3921
 2343W        W18237   5.582   0.914  12.900  0.0919 -0.0054  0.2965
 2344W        W18238   9.958  18.574  12.871  0.1032  0.1240  0.3559
 2345W        W18239  15.053  12.461   2.537 -0.4335  0.1085  0.0900
 2346W        W18240   8.196   1.806  12.466  0.1642  0.1900  0.1132
 2347W        W18241  17.024   7.983   0.813 -0.1575 -0.3311  0.0168
 2348W        W18242  12.987   6.849   4.544 -0.2074  0.0246  0.3394
 2349W        W18243   4.503   8.858  13.670 -0.2167  0.3295 -0.2939
 2350W        W18244   2.679  11.216   0.122 -0.0596  0.3559 -0.1804
 2351W        W18245   1.545   6.575  13.297 -0.4651  0.1725  0.0533
 2352W        W18246   9.644   0.204  15.261 -0.3589  0.1343  0.0476
 2353W        W18247   8.396  12.163   1.797 -0.1074 -0.1765  0.0648
 2354W        W18248  11.507  16.005   5.332 -0.4696  0.0406 -0.3467
 2355W        W18249  11.828   0.790   3.395 -0.0802  0.0753 -0.0541
 2356W        W18250  13.069  18.521   2.937 -0.0224 -0.0716 -0.2457
 2357W        W18251  16.963   6.703   4.548  0.0576  0.0156 -0.0432
 2358W        W18252   7.336   8.049  15.354 -0.1993  0.0785 -0.1697
 2359W        W18253  17.348  13.483   0.988 -0.1650 -0.0888  0.3294
 2360W        W18254  15.301  12.410   4.065 -0.0419  0.2926  0.1003
 2361W        W18255   9.154   7.945   2.095  0.2974 -0.2660 -0.3620
 2362W        W18256   7.236   8.421   1.083  0.0461 -0.0390  0.1778
 2363W        W18257  17.266  13.143   5.352 -0.1387 -0.0151  0.1637
 2364W        W18258  14.247  13.731   5.023  0.1005  0.0497 -0.2878
 2365W        W18259   1.419   5.643   3.606 -0.0005  0.0031  0.1567
 2366W        W18260   8.214   7.404  14.167  0.0872  0.0847 -0.1809
 2367W        W18261  14.489   7.818  11.335 -0.2844  0.1504  0.0006
 2368W        W18262   6.188   9.903  10.989 -0.2852 -0.2428 -0.1805
 2369W        W18263   7.179  17.076   1.130 -0.1829 -0.2705  0.1698
 2370W        W18264   6.087   8.835  15.039 -0.2839  0.2040 -0.1860
 2371W        W18265  11.833  18.757   1.712  0.0634  0.1591  0.1776
 2372W        W18266  16.848  10.160   3.642 -0.1233 -0.2140  0.1238
 2373W        W18267   8.077   7.933   3.984 -0.0527  0.1507 -0.0347
 2374W        W18268   2.975  17.568  12.230  0.0665  0.3857  0.0162
 2375W        W18269   4.883   2.585   0.254  0.0335  0.4448  0.0965
 2376W        W18270   7.699  16.441  11.625 -0.0504 -0.0255 -0.0436
 2377W        W18271   3.771  10.296  12.724 -0.3199  0.2249 -0.1721
 2378W        W18272   3.070  13.897   5.112  0.1342  0.1202  0.2751
 2379W        W18273  14.024   1.676  14.113  0.1815  0.1757  0.2038
 2380W        W18274  18.330  14.933   2.857 -0.0763  0.1458 -0.3260
 2381W        W18275   4.923  13.733  11.556  0.1768 -0.0443 -0.0289
 2382W        W18276  14.955  11.969   0.483  0.1830  0.0146  0.1718
 2383W        W18277  15.676  14.258   1.101  0.2478  0.1765  0.0936
 2384W        W18278  11.851  17.757  13.649 -0.1207  0.0105  0.1616
 2385W        W18279  10.796   1.105  10.950  0.3863 -0.0436 -0.0772
 2386W        W18280   5.867   6.648  13.129  0.2588  0.3284 -0.3018
 2387W        W18281   8.491   9.280  12.891 -0.0688  0.0003  0.0381
 2388W        W18282  12.033   7.269  13.418  0.0234 -0.2092 -0.0227
 2389W        W18283  10.029  18.402  10.506 -0.1711  0.0861 -0.0637
 2390W        W18284   9.749  12.781   0.735 -0.3511  0.0386  0.2227
 2391W        W18285  11.244  17.997   1.197  0.1337  0.0733  0.0570
 2392W        W18286   3.339   1.936  13.596 -0.1525 -0.2330 -0.2185
 2393W        W18287  18.531   7.856   5.995  0.0081 -0.1127  0.3206
 2394W        W18288   0.788   1.848  15.603  0.4423  0.2284  0.1321
 2395W        W18289   4.408   3.698   0.887 -0.0089 -0.2106 -0.1307
 2396W        W18290  14.284  15.549   1.161  0.0513 -0.0042 -0.0778
 2397W        W18291  14.552   7.232   2.126  0.1595 -0.0666  0.3415
 2398W        W18292   7.746  11.583   4.121  0.0100  0.0485 -0.2219
 2399W        W18293  17.241   5.788  11.618 -0.0238 -0.0707  0.2028
 2400W        W18294   7.371  15.349   3.120 -0.0009 -0.0261 -0.0488
 2401W        W18295  12.063   8.888   4.166 -0.0136 -0.0747 -0.3378
 2402W        W18296   0.810   8.371   0.060 -0.1106  0.0302 -0.1186
 2403W        W18297  14.974   4.408   1.247  0.0058  0.2583  0.0364
 2404W        W18298   9.513  16.357  14.409 -0.1560  0.1558 -0.3295
 2405W        W18299   4.352  13.095   4.013  0.2966  0.4432  0.0140
 2406W        W18300  14.461  16.567   3.153  0.0333  0.2188  0.0588
 2407W        W18301  15.139   9.411  12.124  0.2676  0.2350 -0.1380
 2408W        W18302   3.313   4.956   1.670  0.1238  0.0076  0.1219
 2409W        W18303   2.166  17.227  13.344 -0.3064  0.1431 -0.5201
 2410W        W18304   2.447  10.851   3.054 -0.0389  0.1239 -0.2501
 2411W        W18305  18.277   9.456   2.380 -0.1483  0.0545  0.0828
 2412W        W18306  15.370   8.147   0.289 -0.1605  0.4117 -0.0276
 2413W        W18307  10.455  12.140  11.531 -0.0195 -0.1449 -0.0481
 2414W        W18308  15.016  17.307   9.803 -0.0872 -0.1212 -0.2322
 2415W        W18309  14.470   7.125  15.607  0.1233 -0.1165 -0.2268
 2416W        W18310  10.715   7.610  14.928  0.4867 -0.3332  0.0087
 2417W        W18311  13.929   0.392   4.564  0.2496  0.1195  0.1458
 2418W        W18312  10.884  12.290  14.803  0.2302  0.2093 -0.0154
 2419W        W18313  17.994  18.233  12.913  0.0299 -0.3411 -0.1952
 2420W        W18314  15.971  10.636   5.193  0.0687 -0.1970 -0.0569
 2421W        W18315   9.667  13.573   4.575  0.0174  0.1791  0.0239
 2422W        W18316   4.391   1.801   1.792 -0.1464 -0.1321 -0.0737
 2423W        W18317  11.895   9.649  14.911  0.2062 -0.2260  0.0240
 2424W        W18318  15.084   1.985   2.140 -0.0182 -0.1976 -0.0104
 2425W        W18319  10.075  14.980  14.872 -0.0682  0.1427 -0.1401
 2426W        W18320   1.612   6.940  11.776 -0.0196 -0.2111 -0.1219
 2427W        W18321   2.324  16.701   0.981 -0.5325 -0.1624 -0.2993
 2428W        W18322  17.808   3.384  14.557 -0.0914 -0.0434  0.0395
 2429W        W18323   4.649   0.628   3.391  0.0840  0.2058  0.0464
 2430W        W18324  16.470   0.917   2.151  0.1430 -0.3203 -0.1548
 2431W        W18325  17.841   7.665  12.611 -0.4683 -0.3197 -0.0221
 2432W        W18326   2.525  16.040   5.436 -0.0799 -0.0744 -0.3494
 2433W        W18327  13.453   6.693  12.971 -0.1174  0.0805 -0.0511
 2434W        W18328   1.994   0.800  10.388 -0.1632  0.2382 -0.0137
 2435W        W18329   3.155   7.438   9.413 -0.0239  0.0523  0.2006
 2436W        W18330   5.903  11.090  13.472 -0.1542 -0.0325  0.1534
 2437W        W18331   5.453  14.786   2.550 -0.0148 -0.2944 -0.0184
 2438W        W18332  12.792  12.821   2.479 -0.1881 -0.3339 -0.0312
 2439W        W18333   9.931   6.743   1.066 -0.0551  0.1833 -0.1110
 2440W        W18334   0.777  15.064   3.597  0.1743 -0.3362 -0.1689
 2441W        W18335   2.515  13.007   2.984  0.2084 -0.3862  0.2304
 2442W        W18336  16.786   3.102  13.690  0.0206 -0.0287  0.2679
 2443W        W18337  17.634   9.540  15.010  0.0116 -0.2037 -0.2526
 2444W        W18338  10.366   3.943  14.611  0.0100  0.0640 -0.0370
 2445W        W18339  14.607  10.160   5.313 -0.1135  0.0238  0.0005
 2446W        W18340   0.824  16.464   2.002 -0.0375  0.4051 -0.0283
 2447W        W18341  16.335  16.519   4.831  0.0045  0.1890 -0.0245
 2448W        W18342   4.535  18.510   0.788  0.1332 -0.2678  0.0589
 2449W        W18343  17.704   1.212   0.625  0.0409 -0.1122 -0.2308
 2450W        W18344  18.701  13.879  14.779  0.0419 -0.2341 -0.0754
 2451W        W18345  10.878   6.165  12.265 -0.1022 -0.2231 -0.1812
 2452W        W18346   8.940  16.131   2.594  0.1302 -0.3205 -0.0604
 2453W        W18347   9.571   8.180   3.770 -0.0112 -0.1414 -0.3345
 2454W        W18348  11.631   2.254   0.439 -0.0594 -0.0122 -0.0249
 2455W        W18349   4.227   6.150  14.767  0.2579 -0.0833  0.1271
 2456W        W18350  15.910   9.210  11.171 -0.0605  0.0769  0.2620
 2457W        W18351  17.322  14.543   3.666 -0.0353  0.1301 -0.2230
 2458W        W18352  17.084  11.176  11.885 -0.0337  0.1428 -0.1888
 2459W        W18353  17.276   1.342   1.980  0.2140 -0.1550  0.1608
 2460W        W18354   4.856   6.171  15.454 -0.1245  0.1409 -0.1645
 2461W        W18355   6.205   4.663  12.574  0.1638 -0.0164  0.1232
 2462W        W18356  10.220   7.554  11.084  0.0285 -0.1415 -0.3027
 2463W        W18357   1.477   0.655  15.243 -0.4615  0.1927 -0.3710
 2464W        W18358   6.876  13.505   0.490  0.0626 -0.2339  0.1244
 2465W        W18359   4.245   4.774  14.568  0.0550 -0.0218  0.2778
 2466W        W18360   1.766  13.989  14.759 -0.0181 -0.2045  0.1748
 2467W        W18361  11.416   5.302   0.190  0.0001 -0.1813 -0.2108
 2468W        W18362  17.743  10.044   0.187  0.0318  0.0313 -0.2739
 2469W        W18363  14.766  13.567   1.638  0.1559  0.1817  0.1028
 2470W        W18364   2.760  17.856   2.664 -0.1724  0.2431 -0.1910
 2471W        W18365  18.032  12.146  13.143  0.1585  0.1668  0.2337
 2472W        W18366   2.448   2.067  13.345 -0.0182  0.2326  0.1715
 2473W        W18367   4.503   9.327  11.727 -0.1048  0.1826 -0.2083
 2474W        W18368  13.278   8.587   0.178  0.0624 -0.3686 -0.3433
 2475W        W18369   5.807  12.085   1.528  0.1470  0.2765 -0.0172
 2476W        W18370   2.087   7.273   4.683  0.0895  0.3843 -0.0182
 2477W        W18371   8.369  15.042   3.361  0.1047 -0.0484  0.1971
 2478W        W18372   8.214  10.137   9.855 -0.2510  0.0437  0.1122
 2479W        W18373   1.723   8.045  11.395  0.5195  0.0211 -0.1215
 2480W        W18374   8.009  11.306   5.286 -0.0150  0.1401 -0.2122
 2481W        W18375   0.888   8.880   0.051  0.0147  0.1329  0.0982
 2482W        W18376  11.245  15.457  11.408  0.1114  0.1487  0.2697
 2483W        W18377   7.378  12.355  12.307  0.1556  0.1816  0.1362
 2484W        W18378  14.228   4.077   2.633 -0.0460  0.1062 -0.1015
 2485W        W18379  15.160   3.562  10.718 -0.0175 -0.0872 -0.0967
 2486W        W18380   7.724   3.444   2.131  0.3052 -0.3913  0.0060
 2487W        W18381   0.760   8.686   0.743  0.1412  0.1223 -0.1038
 2488W        W18382   3.720  11.807  15.391 -0.1403  0.1991  0.5063
 2489W        W18383  13.343   8.879   1.382 -0.0123 -0.0994  0.0756
 2490W        W18384  13.801  15.038   4.805  0.2203  0.1212 -0.1182
 2491W        W18385   0.395  16.516   4.856 -0.2488  0.1433 -0.0992
 2492W        W18386  14.336   7.090   0.782  0.1807 -0.1451  0.2788
 2493W        W18387  12.848  14.410  12.194 -0.0684  0.0608 -0.0032
 2494W        W18388  12.174  15.727  12.478 -0.2284  0.0738 -0.0099
 2495W        W18389   5.127   6.565   3.292 -0.2363 -0.0785 -0.1754
 2496W        W18390  10.013  14.205  12.183  0.2931 -0.1401 -0.0052
 2497W        W18391   1.835   7.434   1.249 -0.1080 -0.0469 -0.0869
 2498W        W18392   2.001  13.528  15.425 -0.2819  0.0483  0.1158
 2499W        W18393  15.564   6.093  13.776  0.0340 -0.0551 -0.0175
 2500W        W18394  17.011   0.607  11.491 -0.1483 -0.2429 -0.3317
 2501W        W18395   2.369  14.117   1.889 -0.3059  0.1924  0.0866
 2502W        W18396   4.841   2.736   1.636 -0.4149  0.0765 -0.3649
 2503W        W18397  14.916  10.613  12.223  0.2359 -0.2166 -0.2988
 2504W        W18398  17.656   4.962  14.504 -0.3028 -0.0037 -0.0877
 2505W        W18399   2.948  15.796  13.495  0.2759 -0.1524  0.0807
 2506W        W18400  14.557  10.667   0.996  0.3225 -0.0448  0.0327
 2507W        W18401  13.371   1.687   1.322 -0.0203  0.2572 -0.1927
 2508W        W18402  13.677   1.242  12.679  0.1069  0.2162  0.1263
 2509W        W18403  12.914   0.204  14.518  0.0228 -0.3316  0.0207
 2510W        W18404  11.585  15.796  14.368  0.1119  0.2170 -0.1664
 2511W        W18405   6.635   7.941  11.114 -0.1032  0.1880 -0.0551
 2512W        W18406  15.318  12.434  12.759 -0.0855 -0.2858  0.1828
 2513W        W18407   0.506   9.167  14.387 -0.3178 -0.0271  0.0711
 2514W        W18408  11.233   2.097   0.099 -0.0670 -0.3019  0.0485
 2515W        W18409   5.608   3.414   0.890 -0.1761 -0.2547 -0.2520
 2516W        W18410  13.414   8.062  14.313  0.1272  0.0409  0.1211
 2517W        W18411  18.323  16.259   3.308  0.0033 -0.0717  0.0416
 2518W        W18412   4.563   6.626   3.149 -0.0816 -0.0280 -0.0470
 2519W        W18413  12.215  16.794  12.289  0.0014  0.3432 -0.4330
 2520W        W18414  14.549   1.156  11.837 -0.2632 -0.2361 -0.4035
 2521W        W18415   2.380  14.344  10.805  0.0130  0.0308 -0.0194
 2522W        W18416  13.306   7.862   3.528  0.2038 -0.0592 -0.0389
 2523W        W18417   6.050  15.800  15.278  0.0531 -0.1155  0.0245
 2524W        W18418  12.314   8.638   3.823 -0.1486  0.2486  0.1959
 2525W        W18419  14.410  13.177  14.808  0.3060 -0.0362  0.1990
 2526W        W18420  10.718  18.564  11.734  0.0723  0.1634 -0.0680
 2527W        W18421  13.780   9.733  13.667 -0.1257 -0.0070  0.1605
 2528W        W18422   3.237   9.350  13.415 -0.0857  0.3045  0.1864
 2529W        W18423  11.156  15.808   3.856 -0.3566  0.1111 -0.1279
 2530W        W18424  16.026   9.752   4.124  0.2168 -0.1538  0.2656
 2531W        W18425   6.306  10.773  11.051 -0.0873  0.0814 -0.0651
 2532W        W18426  11.000  12.948   3.004  0.0705 -0.1700  0.0496
 2533W        W18427   5.411   1.287   3.563 -0.1780  0.0308 -0.2060
 2534W        W18428   5.855   9.235   2.182  0.2230  0.0512 -0.1516
 2535W        W18429  14.052  13.685  13.587 -0.1353 -0.2480 -0.2108
 2536W        W18430  17.412  14.486  12.301 -0.0822 -0.0293 -0.2117
 2537W        W18431  10.287   4.743  15.560  0.0940 -0.0232  0.2523
 2538W        W18432   8.159   0.745  11.806  0.2341 -0.0128 -0.0072
 2539W        W18433   6.971   2.750  11.958  0.1428 -0.0936 -0.0030
 2540W        W18434  16.042  13.672   2.760 -0.0106 -0.0320  0.0456
 2541W        W18435  15.717   4.728   0.770  0.0808  0.1318  0.2593
 2542W        W18436  13.184  10.536   0.027 -0.0397 -0.0725 -0.1858
 2543W        W18437  10.926  10.421   4.601  0.1444  0.3832 -0.0078
 2544W        W18438   6.148   7.721   2.122 -0.1312  0.1503 -0.0449
 2545W        W18439   3.032   7.526  11.582 -0.0117  0.3399 -0.0137
 2546W        W18440   6.577  12.249   4.365  0.2297  0.0051  0.3156
 2547W        W18441  15.060   0.926   1.612  0.0130 -0.1059  0.1076
 2548W        W18442  11.908  18.657  13.788  0.0840 -0.1336  0.0852
 2549W        W18443   2.425   3.376  14.250  0.1489 -0.1337  0.0259
 2550W        W18444   7.350  14.120   4.825 -0.0240 -0.2098 -0.0082
 2551W        W18445   4.013   6.974  14.386  0.4157  0.1079 -0.1950
 2552W        W18446  16.536   1.266   0.266 -0.0858  0.0130  0.1162
 2553W        W18447   5.176   5.018   0.492 -0.0844 -0.0171  0.1304
 2554W        W18448  18.453  10.623   5.493 -0.1395  0.0798  0.2381
 2555W        W18449  18.459   6.639  11.425  0.1446  0.0742 -0.0671
 2556W        W18450  17.903   9.271   3.495 -0.0187 -0.3128 -0.1404
 2557W        W18451  17.362  17.421  14.067 -0.2180  0.1981 -0.2314
 2558W        W18452  16.266   6.534  13.188  0.2747 -0.2991  0.1032
 2559W        W18453   5.509  13.867   0.219  0.1925  0.1152  0.2629
 2560W        W18454   8.158   3.810   4.234  0.0830 -0.1355 -0.0683
 2561W        W18455   8.196  17.783  12.515 -0.0085  0.3528  0.4162
 2562W        W18456  15.587   8.663   4.587  0.2878  0.0913  0.0635
 2563W        W18457  15.840  12.949  14.209  0.2989  0.1199 -0.0733
 2564W        W18458  10.684   1.704   1.221  0.0326  0.1051  0.0757
 2565W        W18459   3.693  16.721   3.776 -0.2428  0.4737 -0.1452
 2566W        W18460   6.655   3.532   1.674  0.1900 -0.1241  0.0623
 2567W        W18461  14.328  13.177  12.119 -0.1635 -0.1052  0.0836
 2568W        W18462  13.540  12.785  11.297  0.0116  0.0482  0.1395
 2569W        W18463  15.524  15.974   5.597 -0.1568 -0.2512 -0.1031
 2570W        W18464  14.516   1.241  10.974  0.2363 -0.0094  0.1065
 2571W        W18465   7.130  11.504   3.148  0.2022  0.2179 -0.2089
 2572W        W18466  13.000  11.994  11.656  0.2754  0.2825  0.0157
 2573W        W18467  12.717   0.958   0.395  0.0117 -0.0698 -0.0980
 2574W        W18468   8.928   9.242   4.671 -0.5733  0.3594  0.1232
 2575W        W18469  12.759  11.751   1.382  0.0681 -0.0398 -0.0134
 2576W        W18470   5.527   5.433   5.549 -0.0493  0.0923  0.1435
 2577W        W18471   3.100  11.564   2.691  0.0856 -0.1513 -0.0612
 2578W        W18472   1.803  16.786   0.727 -0.0088 -0.3039 -0.2252
 2579W        W18473   6.835   2.876   3.078 -0.2104 -0.0802  0.1717
 2580W        W18474   9.022   3.212   2.954  0.0465  0.0424 -0.4887
 2581W        W18475  14.407  17.844   3.920 -0.1319  0.3190  0.0513
 2582W        W18476   2.300  12.581  11.433  0.3975 -0.2676  0.0015
 2583W        W18477   6.866   6.695  11.717 -0.0759  0.2861 -0.1219
 2584W        W18478  13.609  10.799  15.357 -0.0191 -0.0025  0.2591
 2585W        W18479   6.332  15.947   2.499 -0.0101 -0.0861  0.0993
 2586W        W18480   4.725   5.339   4.771  0.2689 -0.0312 -0.0962
 2587W        W18481  14.584   0.436  13.928  0.3366  0.3591 -0.0688
 2588W        W18482  12.825   1.588   2.901  0.1424 -0.1124  0.4246
 2589W        W18483   9.114   1.403   1.963 -0.3438  0.0372  0.1350
 2590W        W18484   8.178  12.638  12.037  0.0331 -0.1380  0.0768
 2591W        W18485  10.217  15.574  14.341 -0.0238 -0.0031  0.0888
 2592W        W18486   7.237  17.514  10.114 -0.1044 -0.1945  0.4853
 2593W        W18487  14.533   7.798   4.692 -0.0410  0.3741  0.0452
 2594W        W18488  17.599   0.011   4.571  0.2722 -0.1441  0.0714
 2595W        W18489   5.837  17.202   0.751 -0.0693  0.1016 -0.1542
 2596W        W18490   4.006   3.611  11.787 -0.4365  0.2089 -0.0237
 2597W        W18491   6.889   1.378  11.637 -0.0599  0.1662  0.2036
 2598W        W18492   0.952   3.935  13.945  0.2832  0.1123 -0.1706
 2599W        W18493  11.855   1.810  14.245  0.1742  0.3251 -0.1010
 2600W        W18494  17.678   5.557   2.455  0.1983 -0.1423  0.1231
 2601W        W18495   5.457   8.768  14.007  0.3800  0.0811  0.0077
 2602W        W18496   5.242  14.742   0.425  0.1282  0.5005  0.2716
 2603W        W18497   3.644   3.514   5.135 -0.0014  0.1466  0.1522
 2604W        W18498  11.759  15.618   2.747  0.0450  0.0590  0.3079
 2605W        W18499  12.114  10.481  10.188  0.1934 -0.4408 -0.1519
 2606W        W18500   9.017   4.038  15.132 -0.5063 -0.2714 -0.0660
 2607W        W18501  15.012   8.809  12.906  0.1877 -0.0249  0.0548
 2608W        W18502   2.679   2.422   3.516 -0.1362 -0.4629  0.1516
 2609W        W18503  10.903   8.683  13.643  0.1138 -0.1236 -0.2009
 2610W        W18504   7.497   5.470   2.416 -0.1320 -0.1836  0.0370
 2611W        W18505  10.593   6.495  11.424  0.0153  0.0801  0.1257
 2612W        W18506   2.407   9.798   4.075 -0.0309  0.0048 -0.0852
 2613W        W18507  16.378   3.179   4.660 -0.0651 -0.0294  0.1652
 2614W        W18508   6.931  16.729  13.846  0.0320 -0.2091 -0.2425
 2615W        W18509   4.062   9.460  10.091 -0.0083 -0.0517 -0.0157
 2616W        W18510  11.662  10.713  11.607  0.1775  0.1570 -0.0013
 2617W        W18511  12.820  10.251   2.836  0.1299  0.1532 -0.3048
 2618W        W18512  13.524   7.354  12.603 -0.0449 -0.1586  0.0566
 2619W        W18513  14.719  17.545   4.358 -0.1371 -0.2710 -0.3520
 2620W        W18514   2.540   7.079  14.161 -0.1517 -0.2028 -0.2268
 2621W        W18515  15.378  10.735  12.075  0.0695  0.0788 -0.2425
 2622W        W18516   7.339   2.215   4.830 -0.1433  0.1653 -0.0895
 2623W        W18517  15.284  16.928   1.420 -0.1297  0.0965 -0.0612
 2624W        W18518   1.757   2.875  15.475  0.1831 -0.1752 -0.1191
 2625W        W18519   1.947   2.960  11.955 -0.1425 -0.1322 -0.1054
 2626W        W18520   8.164  15.062   5.315  0.0157  0.2961 -0.0297
 2627W        W18521   0.260  11.048   0.267  0.2156 -0.1870 -0.2578
 2628W        W18522   9.721   8.205   3.305  0.0351 -0.0041 -0.0891
 2629W        W18523  16.194  18.391  14.224  0.2294 -0.0173 -0.0388
 2630W        W18524  12.623   6.930  14.804  0.5218 -0.0325 -0.0092
 2631W        W18525   3.828   2.693  13.471  0.1966 -0.0322  0.0928
 2632W        W18526   1.466   9.917  11.885  0.3002 -0.0183 -0.1649
 2633W        W18527   5.417   0.782   3.440 -0.1020  0.0792 -0.4964
 2634W        W18528   9.089   4.966  10.862  0.3446  0.2696 -0.1331
 2635W        W18529  15.561  13.217   0.362 -0.0553 -0.1106  0.1022
 2636W        W18530  11.415  13.879  13.760  0.1401 -0.1114  0.1308
 2637W        W18531  12.939  14.684   4.840 -0.3525  0.0180 -0.1317
 2638W        W18532  15.190   4.367   0.040  0.0024 -0.0034 -0.2119
 2639W        W18533  10.991  18.757   2.822 -0.0007  0.0688  0.0334
 2640W        W18534   8.617  14.055  15.280 -0.0302  0.0118 -0.2629
 2641W        W18535  12.405  15.998   4.131 -0.0679  0.1014  0.2033
 2642W        W18536   8.625   5.223  12.140 -0.3292  0.0954  0.0098
 2643W        W18537   0.306   2.072   0.918 -0.1024  0.2356 -0.1374
 2644W        W18538   1.965  13.153   3.993  0.0649  0.0196  0.1804
 2645W        W18539  12.879  15.328  12.469 -0.0513  0.0229  0.2553
 2646W        W18540  17.537   0.700  12.486 -0.2293  0.1877 -0.0934
 2647W        W18541   2.350   4.079   1.028 -0.1095 -0.3792  0.0902
 2648W        W18542   0.263   2.315  13.771 -0.1413  0.2365 -0.0725
 2649W        W18543   1.144  14.623  14.198 -0.2396  0.2354 -0.0815
 2650W        W18544   5.732   0.832   1.471  0.3510 -0.3313  0.2304
 2651W        W18545  11.938   0.121  10.198 -0.4627 -0.4651  0.0053
 2652W        W18546   9.467  17.885  13.712  0.4058  0.1289 -0.1025
 2653W        W18547   9.568  15.290   2.918 -0.0730 -0.1075  0.1391
 2654W        W18548   3.862   4.534   4.734 -0.3884 -0.2643  0.3214
 2655W        W18549  11.410  10.532   1.315 -0.0939  0.0016 -0.4311
 2656W        W18550  17.281   0.112  12.691  0.0030  0.1156 -0.2433
 2657W        W18551   0.749  15.822   1.309  0.0477  0.2668 -0.0285
 2658W        W18552   2.626  11.255  15.248  0.3129 -0.0200 -0.2211
 2659W        W18553  16.873  12.083   3.444  0.3301  0.3180 -0.2522
 2660W        W18554   2.698   9.169   9.928 -0.0013  0.0546 -0.0612
 2661W        W18555  12.270   8.025  11.456  0.0269  0.2813 -0.1556
 2662W        W18556  11.413  15.060   0.892 -0.0478 -0.2267 -0.0493
 2663W        W18557   1.743   4.554   1.328  0.0283  0.1176 -0.1832
 2664W        W18558  11.870   8.089   1.628  0.0816 -0.0598 -0.0208
 2665W        W18559  12.679   9.627   5.573  0.0633 -0.1468  0.0937
 2666W        W18560  17.548   1.173  14.150  0.1537  0.0411  0.0180
 2667W        W18561   5.642  15.528  13.538  0.2345  0.1761 -0.0417
 2668W        W18562   0.243   5.046  13.203  0.2277  0.2253 -0.0710
 2669W        W18563   9.341  10.574   6.464  0.1169 -0.2334  0.0976
 2670W        W18564   2.049   5.125  10.923 -0.1628 -0.0343 -0.1085
 2671W        W18565   7.176  13.992   1.047 -0.0662  0.2398 -0.1673
 2672W        W18566  15.885   1.148  10.835  0.2847 -0.1551  0.0008
 2673W        W18567   9.687  15.758   3.079  0.2810  0.1342 -0.1600
 2674W        W18568   9.658  12.875  12.438 -0.1543  0.0883  0.1015
 2675W        W18569  16.438  14.765   0.253 -0.1256  0.0504  0.0456
 2676W        W18570  15.876   6.478  14.656 -0.1689 -0.0387  0.0983
 2677W        W18571   3.332   1.663   1.534 -0.0587  0.0107  0.1578
 2678W        W18572  10.419  16.626   4.288 -0.4108 -0.3190 -0.3485
 2679W        W18573  10.148   7.428   1.831 -0.3147  0.1419  0.0076
 2680W        W18574  11.900  17.055   3.890  0.3830  0.1985  0.1877
 2681W        W18575  15.840   6.824  10.492  0.1266 -0.0059  0.1910
 2682W        W18576   8.389   3.025   5.257 -0.0577 -0.0797 -0.2020
 2683W        W18577   0.472   1.081   1.812  0.0313  0.4498 -0.1659
 2684W        W18578   3.916  16.547   0.234 -0.0010  0.1559 -0.2569
 2685W        W18579  13.904  10.089   1.174  0.1954  0.1130  0.1069
 2686W        W18580   5.943  17.794   9.853  0.0106  0.1050 -0.0476
 2687W        W18581   2.426   4.440  13.437 -0.0031  0.2461 -0.1033
 2688W        W18582   5.825  14.179  15.520  0.1183  0.3630  0.2425
 2689W        W18583   1.326   8.592   3.728 -0.1226 -0.1739  0.0839
 2690W        W18584   7.274  12.110  13.382 -0.2287  0.1417 -0.0392
 2691W        W18585  17.423   5.166  11.923 -0.0112 -0.0246 -0.0873
 2692W        W18586   4.494   0.993   0.180  0.1467 -0.1584 -0.3818
 2693W        W18587  10.861  11.265   2.948  0.1742  0.1374 -0.2107
 2694W        W18588   2.629  10.255  13.920  0.2694 -0.1308  0.0573
 2695W        W18589   0.199  14.450  12.823 -0.2934 -0.1433  0.1649
 2696W        W18590   5.864   0.492  10.878 -0.0850 -0.4081 -0.0528
 2697W        W18591   7.149   2.447   0.525 -0.1172  0.2124 -0.3861
 2698W        W18592  12.165  17.997  10.638  0.0039  0.0590 -0.1967
 2699W        W18593  16.979   9.568   4.373  0.1834 -0.2427 -0.0441
 2700W        W18594  10.221  15.246  13.950  0.2600 -0.0904 -0.2499
 2701W        W18595  16.917   1.176   3.080  0.0455  0.2329  0.0454
 2702W        W18596   7.417   5.572  13.715  0.0475 -0.0392  0.1231
 2703W        W18597  17.580  13.739   4.753 -0.0408 -0.0063 -0.0555
 2704W        W18598  10.849  16.877  15.604  0.0661 -0.1612 -0.0873
 2705W        W18599   4.723   3.653  10.707 -0.3417  0.2846 -0.1550
 2706W        W18600  10.729   8.553  12.568  0.0781 -0.1196  0.0708
 2707W        W18601   3.544   5.920   0.385 -0.0099  0.2205 -0.0713
 2708W        W18602  10.857   1.878   4.622  0.0156 -0.1441  0.0155
 2709W        W18603  14.879   1.648  15.341  0.0216 -0.3235 -0.3467
 2710W        W18604  16.443  11.481   2.508 -0.2567  0.0442  0.1079
 2711W        W18605   8.888   4.464   3.881  0.0774 -0.1956 -0.1699
 2712W        W18606  10.520   7.807  15.351 -0.0722 -0.0887  0.1423
 2713W        W18607   0.899  10.924   3.423  0.1101 -0.0787  0.0342
 2714W        W18608   8.278  17.162  15.335 -0.3232  0.4030 -0.2266
 2715W        W18609  11.022   1.848   5.109 -0.0389 -0.1635  0.0295
 2716W        W18610   1.170  17.503   1.982  0.1024  0.2157  0.0183
 2717W        W18611  15.391  10.340  14.600 -0.4111  0.0567 -0.3213
 2718W        W18612   4.473  16.631   1.237 -0.2022  0.0813 -0.0886
 2719W        W18613   5.754   8.708  11.908  0.5075 -0.1850 -0.0167
 2720W        W18614  18.503  11.636   3.406  0.1210  0.1528 -0.0815
 2721W        W18615   8.490   8.934   2.498 -0.2976  0.1800 -0.2242
 2722W        W18616  13.418  18.699  13.227  0.1171 -0.0013 -0.3034
 2723W        W18617  12.349   1.466  14.317 -0.0071 -0.1757 -0.1467
 2724W        W18618   4.648  16.597  11.398  0.0927 -0.0141  0.1071
 2725W        W18619   8.286   6.100   0.616  0.0143 -0.2675 -0.0689
 2726W        W18620   6.339   9.589   0.220 -0.2578  0.0029  0.0048
 2727W        W18621  12.504   0.143  15.005  0.4085  0.0263 -0.2276
 2728W        W18622  14.435   3.734   1.523 -0.1023 -0.0588  0.1372
 2729W        W18623   7.060  14.387  12.345 -0.3899 -0.1596 -0.0327
 2730W        W18624   2.584   4.963   4.766  0.5269 -0.0963 -0.2604
 2731W        W18625  18.048   3.995   2.377 -0.3632  0.0980  0.2175
 2732W        W18626  14.113   1.121   4.085  0.0390 -0.0189  0.0460
 2733W        W18627  11.649   0.281  14.432  0.1325  0.0552  0.0131
 2734W        W18628  14.013  13.410   4.769 -0.0959  0.1418 -0.0129
 2735W        W18629  10.716   1.317   4.593  0.1523  0.0813 -0.3623
 2736W        W18630   1.436  11.041   0.593  0.0206  0.2566 -0.1429
 2737W        W18631  14.897  15.999  11.923 -0.1500  0.1268  0.0661
 2738W        W18632  16.695   0.667   4.966 -0.1008  0.1133  0.0736
 2739W        W18633  18.078   8.684  10.947 -0.3962 -0.3238 -0.2525
 2740W        W18634  14.141  12.518  14.168  0.0803  0.0615 -0.3114
 2741W        W18635   2.212   8.585  14.280  0.2646  0.2870 -0.1490
 2742W        W18636   2.185  15.732  12.743  0.3621 -0.0437 -0.1202
 2743W        W18637   6.581   1.069  15.224 -0.2474 -0.2312  0.0534
 2744W        W18638   3.792   7.275  11.167 -0.1224 -0.0331  0.0189
 2745W        W18639   4.277  14.324  13.728  0.1929  0.1920  0.1506
 2746W        W18640   5.875  14.948   1.606  0.2263 -0.1671  0.1067
 2747W        W18641  10.336  11.772  15.489  0.4791 -0.0829 -0.1529
 2748W        W18642   3.133   6.500  12.952 -0.0393 -0.2756  0.1754
 2749W        W18643   2.586   5.229   2.914 -0.1602  0.2654  0.2828
 2750W        W18644  18.080   8.046  12.864  0.0551  0.1695 -0.4356
 2751W        W18645   5.162   2.692   2.595  0.2962 -0.1288 -0.0908
 2752W        W18646   8.830   4.740   2.159 -0.0153 -0.0188  0.1929
 2753W        W18647   4.079  10.887  14.175  0.1783  0.0719  0.3215
 2754W        W18648   3.924  14.494   2.332  0.0913 -0.1032  0.0128
 2755W        W18649  15.584  13.234   4.048 -0.0844  0.0637  0.0827
 2756W        W18650  11.045   5.826   4.562 -0.0568 -0.2227  0.0117
 2757W        W18651  17.774   1.531   0.960  0.2030  0.1214 -0.3757
 2758W        W18652   1.198  11.158  12.569 -0.2259  0.1071 -0.0749
 2759W        W18653   6.872  16.159   4.292 -0.1570 -0.0311 -0.2669
 2760W        W18654   0.097  15.269   2.609 -0.1277  0.0069 -0.0503
 2761W        W18655  12.874   2.719   5.438 -0.0434  0.1875 -0.0883
 2762W        W18656   7.902  13.818  10.750 -0.5326  0.1966 -0.1332
 2763W        W18657   4.746   8.397   3.601  0.0388  0.0913 -0.2174
 2764W        W18658   7.277  11.459   1.850  0.0569  0.0779  0.0604
 2765W        W18659   2.432  14.868   3.574  0.1898  0.0865  0.1208
 2766W        W18660   4.897  14.898  12.329  0.3152  0.2741 -0.1699
 2767W        W18661  14.527  14.367   3.290  0.2382 -0.1557  0.0360
 2768W        W18662  14.629  12.235   0.773  0.0225 -0.0391  0.0637
 2769W        W18663   9.282   0.504  12.513  0.0323  0.2502  0.1467
 2770W        W18664  11.955   2.810   1.993 -0.4031 -0.2418  0.0043
 2771W        W18665   5.359   2.144  11.533 -0.0781  0.0314  0.1200
 2772W        W18666   4.996   6.856   0.739  0.0232 -0.1808  0.2161
 2773W        W18667  14.869  15.359  12.670  0.2328 -0.0279  0.0956
 2774W        W18668  11.013  10.639  15.545 -0.0286  0.0110 -0.1317
 2775W        W18669   6.719   5.581  15.151 -0.0370  0.1117  0.0138
 2776W        W18670   3.684  10.905   9.772 -0.1038 -0.1345 -0.2155
 2777W        W18671  11.400  11.102   0.736  0.0823 -0.0737 -0.0827
 2778W        W18672  15.571   5.732   4.551  0.2404 -0.1710 -0.0034
 2779W        W18673  15.783  10.886   4.730 -0.0555  0.0436  0.0804
 2780W        W18674   7.178  14.862  10.606  0.2279  0.1504  0.3186
 2781W        W18675  13.319  10.303   4.333 -0.0326  0.2437 -0.0896
 2782W        W18676  18.263   6.038  15.222 -0.0897 -0.1600 -0.1654
 2783W        W18677   9.085   2.308  12.073  0.0083  0.0894  0.4296
 2784W        W18678  14.557  15.428  15.330  0.0124  0.3032  0.0062
 2785W        W18679   2.091   0.479   2.903 -0.1463  0.2857 -0.1960
 2786W        W18680   7.870   5.079  13.094  0.1062  0.1001 -0.0709
 2787W        W18681   2.756   9.866  15.457 -0.2361  0.1360  0.0018
 2788W        W18682  11.311  11.470  11.691 -0.0272 -0.0149  0.0232
 2789W        W18683  17.196  12.054   5.086 -0.0814 -0.1205  0.1987
 2790W        W18684  12.452   8.910   0.158 -0.3649  0.0174 -0.0640
 2791W        W18685   5.086  13.268  15.277 -0.0351  0.0639 -0.1397
 2792W        W18686   1.530  18.731   3.305  0.0820  0.2657 -0.0179
 2793W        W18687  11.304   5.228   2.078  0.0751  0.2145 -0.2115
 2794W        W18688  10.234  15.327  10.622 -0.4394 -0.1162 -0.2797
 2795W        W18689  10.749   1.395   3.259 -0.2566 -0.2650 -0.3675
 2796W        W18690  15.635  16.043  11.063  0.1658  0.3147 -0.1061
 2797W        W18691   2.879  12.516   4.777 -0.3811  0.0012 -0.0746
 2798W        W18692  15.572   3.509  14.841 -0.0620 -0.1670  0.1247
 2799W        W18693   2.302   0.159  15.076  0.1979  0.0969  0.1700
 2800W        W18694  11.183  13.158   5.538  0.0239  0.2920  0.0430
 2801W        W18695   8.199  13.257   0.327 -0.0972 -0.0277  0.1715
 2802W        W18696   2.640   8.617   4.867 -0.1960  0.0436  0.4799
 2803W        W18697  18.428   4.835  14.673  0.2387  0.0124  0.0774
 2804W        W18698   5.039  11.421   3.850 -0.2735  0.1609 -0.1772
 2805W        W18699   3.046  11.463   3.577 -0.1282  0.0286 -0.0051
 2806W        W18700  10.250  17.101   0.583 -0.2424  0.2631  0.1146
 2807W        W18701   4.156   0.772   4.805 -0.0382  0.3180  0.1054
 2808W        W18702   1.654   8.850  14.110  0.1229 -0.0545 -0.0276
 2809W        W18703   7.641   5.331  11.774 -0.1011  0.1070 -0.0427
 2810W        W18704   7.361  12.013  10.807  0.1684 -0.0857  0.1483
 2811W        W18705  10.990  17.398  11.369  0.0467 -0.6147  0.0166
 2812W        W18706  15.670  18.248  13.055 -0.3248  0.2334 -0.1041
 2813W        W18707   4.412   2.191   2.193 -0.0015  0.1557  0.2690
 2814W        W18708   7.060   2.419   0.077  0.0133  0.1854  0.0941
 2815W        W18709   9.574   1.376  15.404 -0.2037 -0.0660  0.3341
 2816W        W18710   3.968   1.342  13.050  0.1935 -0.3929 -0.1854
 2817W        W18711  13.087  10.734   4.629 -0.2049 -0.0029 -0.0143
 2818W        W18712  18.723   8.772   4.837 -0.2296 -0.2138 -0.2669
 2819W        W18713   7.423  11.100  12.532 -0.2815  0.2428 -0.0189
 2820W        W18714  10.381  16.151   3.704  0.3215 -0.0831 -0.0131
 2821W        W18715   8.533   3.881  12.441 -0.1469  0.3100  0.2561
 2822W        W18716  18.247  13.233   0.009  0.0551  0.1692  0.0360
 2823W        W18717   9.942   0.849  13.419 -0.0558  0.1315  0.0453
 2824W        W18718   7.813  14.105   5.468  0.0031 -0.1376  0.1771
 2825W        W18719   5.542   9.942   1.719 -0.0079 -0.1391  0.1667
 2826W        W18720   8.911  14.033   4.811 -0.1837 -0.1164 -0.1804
 2827W        W18721  11.826  13.156   4.322 -0.1687  0.1766  0.0141
 2828W        W18722  14.309  16.480  14.779 -0.0364 -0.0122  0.0575
 2829W        W18723  13.358   0.480   2.365  0.3178  0.2837  0.2721
 2830W        W18724  13.869  17.172   3.605 -0.1412 -0.2437 -0.1160
 2831W        W18725   7.219  14.089   0.564 -0.2659 -0.0923  0.1496
 2832W        W18726  10.646   6.118   1.186  0.0156 -0.0792  0.0890
 2833W        W18727  10.695   9.518  12.679  0.2747 -0.1949 -0.0431
 2834W        W18728   1.132   2.882   2.611 -0.2058 -0.2333 -0.0282
 2835W        W18729  12.298   7.835  12.169 -0.1873  0.2167  0.2470
 2836W        W18730  11.537   8.473   5.857  0.0205  0.5038 -0.0522
 2837W        W18731  16.176  15.663   4.894 -0.0146 -0.1680 -0.0110
 2838W        W18732  15.186  16.785  15.119  0.0702  0.0745  0.2069
 2839W        W18733   7.497  10.045  11.170 -0.0653 -0.2980  0.0569
 2840W        W18734   8.662   1.256  15.095  0.0376  0.2163 -0.1657
 2841W        W18735   4.706   6.332   3.553  0.0365  0.0609  0.0035
 2842W        W18736  13.428   7.912   4.035  0.0089 -0.1294  0.0230
 2843W        W18737  10.335  16.254  15.010  0.0028 -0.0484  0.2102
 2844W        W18738   1.932   7.774   3.321  0.1489 -0.0363  0.0410
 2845W        W18739  15.295   0.859  12.176 -0.1341  0.0306 -0.0477
 2846W        W18740   7.459   6.096  13.984 -0.1140  0.1992 -0.1102
 2847W        W18741  12.563   8.852  14.164 -0.1315 -0.3673 -0.0554
 2848W        W18742  11.186   9.582   3.312 -0.0989  0.0913  0.0791
 2849W        W18743   4.217  16.586   3.018  0.0868  0.0495 -0.0759
 2850W        W18744  15.739   2.338  15.544  0.1376 -0.0780 -0.0876
 2851W        W18745   2.519  15.203  15.561  0.0220 -0.1639 -0.1117
 2852W        W18746  11.558   0.417   3.312 -0.1049 -0.3216  0.4401
 2853W        W18747  15.636   4.411  14.382  0.1050 -0.1321  0.0953
 2854W        W18748   3.531   3.033  11.626 -0.3355 -0.0176 -0.1947
 2855W        W18749   0.071   7.497  12.345 -0.2560  0.0324 -0.1288
 2856W        W18750  17.099  10.157  13.362 -0.0192 -0.0858  0.0810
 2857W        W18751  16.439   1.885   1.540 -0.3942 -0.2350 -0.1763
 2858W        W18752  11.012  15.101   1.242 -0.0057  0.0899 -0.0244
 2859W        W18753  16.496   0.307   2.461 -0.1541 -0.2033 -0.0471
 2860W        W18754   1.360  15.558  13.998 -0.1078  0.0453  0.1564
 2861W        W18755  13.143   0.302   3.792  0.0071 -0.0459 -0.1362
 2862W        W18756   5.533   8.514   0.500 -0.4295  0.0329  0.2504
 2863W        W18757   4.980   5.784  13.644  0.2382  0.1371  0.2550
 2864W        W18758  14.932   2.549   2.891  0.1024  0.2154  0.1694
 2865W        W18759  18.600   0.651  14.386  0.1462  0.0604  0.1384
 2866W        W18760  10.324   9.008   1.354 -0.2100  0.2019  0.0620
 2867W        W18761  13.033   3.399   3.020  0.0485  0.0908  0.0871
 2868W        W18762  10.195   6.838   2.490 -0.0281  0.2406 -0.2002
 2869W        W18763   9.836  15.157   0.796 -0.1687 -0.0626  0.0959
 2870W        W18764   7.578  13.246  12.273  0.1625 -0.1385  0.2801
 2871W        W18765   3.715   8.386  14.975  0.2271 -0.1788 -0.2069
 2872W        W18766  11.658   9.766   1.777  0.4367  0.3706 -0.0492
 2873W        W18767  16.555  16.288   0.695  0.2466 -0.1230  0.0289
 2874W        W18768   3.996  16.468   4.873  0.2147 -0.2158 -0.2015
 2875W        W18769   5.282  15.047  10.177  0.1770 -0.0777  0.1293
 2876W        W18770   2.098   6.065  11.780  0.2506 -0.0412  0.1465
 2877W        W18771  17.289   9.388  15.361 -0.2495  0.1063  0.1318
 2878W        W18772   7.557  11.834   1.091  0.1195 -0.3056 -0.3140
 2879W        W18773  12.215   0.796   1.589 -0.2869  0.2960  0.0109
 2880W        W18774  10.184  15.880   2.698 -0.2462  0.3439 -0.1027
 2881W        W18775   8.397   9.617  11.477  0.0229 -0.1296  0.1602
 2882W        W18776   2.320   8.361  15.536  0.1485  0.2152  0.3061
 2883W        W18777   2.522   1.872  15.129 -0.0883 -0.0695  0.2157
 2884W        W18778  16.211   3.929  12.256 -0.0376 -0.2701 -0.1347
 2885W        W18779   2.299   8.208  13.553  0.0044  0.0725  0.0192
 2886W        W18780   9.731  18.730   1.666 -0.0894 -0.2844  0.0936
 2887W        W18781  11.116   4.443   2.434 -0.2575  0.0736  0.2254
 2888W        W18782   2.683   3.326  15.316 -0.2390 -0.0331  0.0087
 2889W        W18783   0.511   3.465  15.402  0.0496  0.1790  0.3592
 2890W        W18784   5.144   8.131   3.409 -0.3634 -0.0662 -0.1365
 2891W        W18785   0.739   6.872   3.109 -0.3059 -0.1451 -0.0108
 2892W        W18786  15.123   6.926  13.927 -0.0534 -0.0559  0.2358
 2893W        W18787  12.104   4.383  13.137  0.1142  0.0136  0.2174
 2894W        W18788   8.506  17.158  13.679  0.1031  0.2377  0.1158
 2895W        W18789   7.045  18.680  15.426 -0.0337  0.1195 -0.0122
 2896W        W18790  13.470   6.458   0.754  0.0209 -0.0728  0.0325
 2897W        W18791   2.253   7.476  11.914  0.0192 -0.0356 -0.0489
 2898W        W18792  10.661  17.019  13.380 -0.4720 -0.1371 -0.2291
 2899W        W18793   8.163   2.146  13.369 -0.3071 -0.1960  0.3932
 2900W        W18794  12.573   7.262  11.984  0.0297 -0.0196 -0.0866
 2901W        W18795   4.513   8.270   0.650 -0.0160  0.2177  0.1962
 2902W        W18796   3.790  15.054  10.649 -0.1010  0.3572  0.1019
 2903W        W18797   2.157  14.040  11.440  0.1636 -0.3267  0.0898
 2904W        W18798   7.325  15.346  10.506  0.0509  0.3920 -0.0015
 2905W        W18799  18.079  16.870   0.826  0.2285 -0.2723 -0.1051
 2906W        W18800  17.402  12.166  13.585  0.0909 -0.0115  0.1057
 2907W        W18801   1.010   2.241  15.375 -0.1580 -0.3123  0.0435
 2908W        W18802  12.566  12.734  15.504  0.0327 -0.0513 -0.1070
 2909W        W18803   2.742   9.975   0.298  0.0280  0.0136 -0.0265
 2910W        W18804   1.248   5.253  12.592 -0.0119  0.0923 -0.2123
 2911W        W18805  12.951   9.419  11.322 -0.0395  0.0287 -0.0283
 2912W        W18806   4.151   2.551   3.608 -0.3125 -0.0124 -0.3775
 2913W        W18807  18.045  10.494  11.459 -0.1510  0.2059 -0.0140
 2914W        W18808   1.698  15.245  12.046 -0.3624  0.0206 -0.2799
 2915W        W18809   1.386  14.603   1.760  0.0525 -0.2583  0.0313
 2916W        W18810  16.431  16.116  13.060 -0.1023  0.1191 -0.4599
 2917W        W18811   9.719   6.644  10.770 -0.1594 -0.4554 -0.0226
 2918W        W18812   1.273   5.107  14.027 -0.1030 -0.0967  0.1276
 2919W        W18813  13.039  11.779  12.194  0.0534 -0.1287  0.1002
 2920W        W18814   8.651   4.422   5.235  0.3231  0.0411 -0.0226
 2921W        W18815   8.994  16.121   3.876  0.0543 -0.1511 -0.3961
 2922W        W18816   9.696  16.567   2.236 -0.0726 -0.1768 -0.0862
 2923W        W18817  17.969   9.401   3.004  0.2550 -0.1842  0.1298
 2924W        W18818   5.762  17.033  12.410 -0.1312  0.1881  0.2507
 2925W        W18819   9.481  12.309   4.470  0.0647 -0.1118 -0.0861
 2926W        W18820  18.362  14.439   4.494  0.3303 -0.2180  0.0390
 2927W        W18821  13.029  17.038  13.618  0.0791  0.1475 -0.1084
 2928W        W18822   5.760  14.753   0.596 -0.0174  0.1706 -0.0903
 2929W        W18823   5.383  17.320   0.502 -0.1699 -0.0942 -0.1103
 2930W        W18824   3.040   7.971  12.171  0.1734  0.2392  0.0808
 2931W        W18825   3.149   1.748  11.492  0.0564 -0.2292 -0.1073
 2932W        W18826   3.184  16.558   4.473  0.1712 -0.0917 -0.1413
 2933W        W18827  15.010   6.761  12.541  0.1173 -0.0113 -0.0210
 2934W        W18828  15.175   1.226   0.561  0.1699 -0.0617 -0.5115
 2935W        W18829   8.993   2.447   1.767 -0.2575 -0.3635  0.1591
 2936W        W18830  16.856   2.803  15.327  0.4149 -0.7425  0.1860
 2937W        W18831  18.632  11.051  11.019  0.2145 -0.0256  0.2252
 2938W        W18832  12.178  11.419   1.398 -0.0552 -0.1248 -0.0399
 2939W        W18833   4.207   5.650   3.459 -0.3443 -0.1523  0.2034
 2940W        W18834  16.743   9.212  12.255 -0.0722  0.1433 -0.0625
 2941W        W18835   6.307   7.959  14.407  0.0879  0.1738 -0.1432
 2942W        W18836   7.079   7.393  15.403  0.2813  0.1661  0.5231
 2943W        W18837   7.582   9.762   1.488 -0.0299  0.0083  0.0231
 2944W        W18838   5.081   3.477  14.911 -0.2457 -0.1436 -0.0542
 2945W        W18839  11.060  10.159  13.321 -0.0747  0.3481  0.2398
 2946W        W18840   5.326   3.304  14.008 -0.0649  0.0945  0.1612
 2947W        W18841  16.721  14.519   2.125  0.3588 -0.0367 -0.1001
 2948W        W18842   8.166  18.259  10.059 -0.0698 -0.0882 -0.4208
 2949W        W18843  14.989   5.255  12.679 -0.0248 -0.0610  0.0420
 2950W        W18844   2.383   5.252   1.354  0.2417  0.1246 -0.0634
 2951W        W18845  14.996  10.582   1.254 -0.0605 -0.1400  0.2201
 2952W        W18846   6.557  12.242  11.266  0.3185  0.0044 -0.1204
 2953W        W18847  15.441   4.209   2.711 -0.0272  0.1952 -0.1600
 2954W        W18848  15.886   2.989  15.612 -0.1080  0.1875  0.3789
 2955W        W18849  13.033   3.217   1.679  0.0133  0.2095 -0.1443
 2956W        W18850   2.031   2.300  15.440 -0.0221  0.1697  0.0938
 2957W        W18851  11.308   2.008  11.991  0.3562 -0.1799 -0.1948
 2958W        W18852   5.965   2.725   2.089  0.1089  0.0314 -0.1508
 2959W        W18853   3.151  16.289   1.696 -0.3757 -0.2813  0.0110
 2960W        W18854   4.201   5.154   3.876 -0.1470  0.0052  0.2564
 2961W        W18855  18.601   1.793   1.040 -0.2882  0.1049 -0.0931
 2962W        W18856  18.114   0.248   1.537 -0.1403 -0.5087 -0.3639
 2963W        W18857   7.746   5.260   4.103  0.0168 -0.1517  0.0110
 2964W        W18858  15.723   3.417   1.140 -0.1807  0.1092 -0.2405
 2965W        W18859  16.610   9.212   3.564  0.0748 -0.0750  0.1775
 2966W        W18860   3.593   0.090   4.529 -0.1772 -0.1036  0.0217
 2967W        W18861  12.683   2.533  15.496 -0.0506  0.0166  0.0930
 2968W        W18862   4.782   3.573   0.499 -0.1029 -0.2334  0.3602
 2969W        W18863  10.639  18.145  14.817  0.0550 -0.0772  0.1303
 2970W        W18864   9.865   9.466  15.501 -0.0095  0.0658 -0.0093
 2971W        W18865  17.327   2.482   3.706 -0.0898 -0.0748 -0.0055
 2972W        W18866   7.556   9.956  12.706  0.0295  0.0207  0.0336
 2973W        W18867  10.122  14.901   3.103  0.1397 -0.0550  0.0610
 2974W        W18868  14.238   6.650  11.751 -0.1375  0.1088  0.0814
 2975W        W18869   8.506  18.416   0.022  0.1410  0.1983  0.0380
 2976W        W18870  17.374   2.816   3.147 -0.0783  0.1850  0.0603
 2977W        W18871   4.175   5.789   2.291  0.0315 -0.1718 -0.1105
 2978W        W18872   0.986   7.933  14.070 -0.0088  0.2650  0.1599
 2979W        W18873   7.840  18.432  11.897 -0.2042 -0.1016  0.1760
 2980W        W18874   0.537   1.483  12.817  0.2594 -0.4564 -0.0217
 2981W        W18875  17.273  17.136  12.273  0.0404  0.1130 -0.0869
 2982W        W18876   2.110   3.260   4.713  0.3096 -0.1896 -0.2838
 2983W        W18877  13.984   9.932  10.254  0.0804  0.1068 -0.2152
 2984W        W18878   9.745  16.421   0.496 -0.1365 -0.0298  0.0170
 2985W        W18879   7.292  17.370   9.555 -0.2938  0.0224  0.0740
 2986W        W18880  15.806   4.290   3.880 -0.0816 -0.0158 -0.1474
 2987W        W18881  18.484   8.837  14.310 -0.0386  0.2192 -0.0413
 2988W        W18882  11.596  10.982  13.015 -0.1179  0.1792 -0.0971
 2989W        W18883  12.363   9.442  15.020 -0.1219 -0.4556 -0.0076
 2990W        W18884   3.959  16.578  13.552 -0.2181  0.2784 -0.3344
 2991W        W18885   1.315   7.014  13.168  0.2994 -0.1823  0.0251
 2992W        W18886  13.767  13.599   5.248 -0.0285 -0.0166 -0.2105
 2993W        W18887  12.493  15.787  13.662  0.2776  0.1218 -0.3632
 2994W        W18888  10.114  13.453  14.722  0.4110 -0.4412 -0.0325
 2995W        W18889   6.375   6.853   3.743 -0.0679 -0.1890  0.2805
 2996W        W18890  16.425  11.785   0.009 -0.2883  0.0087  0.4051
 2997W        W18891  16.070   2.110   2.198 -0.1887 -0.0908  0.0643
 2998W        W18892   4.472  14.377  13.229  0.0114  0.2379  0.1667
 2999W        W18893   9.347   4.276   0.879  0.1340  0.3568  0.3581
 3000W        W18894   1.664  18.376  14.273  0.2549  0.4068 -0.2188
 3001W        W18895  18.202   4.895  12.659  0.0227 -0.1197 -0.1711
 3002W        W18896  13.398  10.325  12.624 -0.2596 -0.4867  0.0538
 3003W        W18897  13.058   9.118   3.161 -0.1437 -0.1484 -0.0559
 3004W        W18898  17.300   3.095  10.319  0.1725  0.0322 -0.5600
 3005W        W18899   0.737  11.175  13.293 -0.2223  0.0064  0.0554
 3006W        W18900   5.283  17.018  11.223 -0.1695  0.0247  0.1648
 3007W        W18901   8.199   0.146   9.574 -0.0628  0.1883  0.1897
 3008W        W18902  12.180  16.292  12.123  0.0579 -0.0028 -0.4787
 3009W        W18903   2.539   3.073   3.408  0.1364  0.2941  0.3856
 3010W        W18904  15.524   8.708   5.095  0.3126 -0.4511 -0.1931
 3011W        W18905  10.688   7.456  13.414  0.1112  0.2148 -0.2103
 3012W        W18906  15.481   2.412   4.652 -0.3662  0.0366  0.1260
 3013W        W18907  16.160   1.478  11.077 -0.0967 -0.1107 -0.1978
 3014W        W18908   0.016  12.424   3.473  0.4031  0.4921  0.0704
 3015W        W18909  17.545   4.512  12.624 -0.1348 -0.1728  0.1608
 3016W        W18910   4.588  11.752   5.353 -0.0479 -0.3638  0.1331
 3017W        W18911   5.396   7.989  11.440  0.0549  0.0885  0.2530
 3018W        W18912  13.052  15.101  14.767  0.2263  0.3776  0.3223
 3019W        W18913  15.271   3.752  12.207  0.1714 -0.2460  0.3372
 3020W        W18914   2.637  15.038  14.117 -0.2612 -0.0786  0.0583
 3021W        W18915   5.675   5.364   4.560  0.1515 -0.0064 -0.0550
 3022W        W18916  14.843   8.369   5.983  0.1907  0.1811  0.0537
 3023W        W18917  13.314   8.580  11.482  0.1903 -0.1309 -0.0509
 3024W        W18918   5.380  10.249  10.238  0.3334  0.3143  0.0560
 3025W        W18919   4.624  16.239   0.522  0.0309  0.0749  0.0478
 3026W        W18920   3.921  15.581   3.272 -0.1233 -0.0748 -0.1142
 3027W        W18921   4.157  16.861   4.201 -0.3821  0.1880  0.0303
 3028W        W18922  15.790  12.436   3.942  0.2241 -0.1017 -0.0450
 3029W        W18923   3.304  16.674  14.908 -0.1968  0.1812  0.0432
 3030W        W18924   0.936   8.222  13.639  0.0175 -0.1000 -0.3111
 3031W        W18925   8.508   6.762  11.385 -0.3266  0.1671  0.1901
 3032W        W18926  18.470  15.657  15.588  0.2355 -0.0261 -0.3257
 3033W        W18927   6.942   5.977  14.423  0.1250 -0.2207  0.2036
 3034W        W18928   6.209   8.076  12.987  0.2469 -0.2004  0.3419
 3035W        W18929   8.037  16.681   4.256  0.1319 -0.3986 -0.1006
 3036W        W18930   2.182   4.169   4.055 -0.0152 -0.0645  0.1982
 3037W        W18931   5.239  13.018  12.936  0.0139 -0.0684 -0.1734
 3038W        W18932  10.840   0.716   4.901 -0.0897 -0.0910  0.3430
 3039W        W18933   4.699  15.690   0.755  0.3653 -0.0875  0.3165
 3040W        W18934  12.273   5.259   4.288 -0.3556 -0.0665 -0.3858
 3041W        W18935  13.384   9.242   2.334  0.2336  0.1786 -0.1905
 3042W        W18936  17.341   5.549   3.706  0.0537  0.1103  0.0549
 3043W        W18937  14.916   9.664   3.896 -0.0624 -0.2112 -0.1679
 3044W        W18938  13.216  12.620   5.437 -0.1000  0.2215  0.1993
 3045W        W18939  10.869  16.959  11.178  0.1235 -0.1613 -0.1602
 3046W        W18940  17.643  13.409   5.568 -0.0366  0.4339 -0.1073
 3047W        W18941  10.305   8.543   6.189  0.3776  0.3248 -0.2950
 3048W        W18942  11.756  14.895   3.321  0.0460  0.2803  0.3214
 3049W        W18943   0.867   1.741   3.319 -0.1330 -0.1473  0.2204
 3050W        W18944  12.130   0.008   0.430  0.2466  0.1724  0.1933
 3051W        W18945  16.849   3.414  12.955  0.1161 -0.0155 -0.0515
 3052W        W18946   9.587  10.691  14.165  0.0030  0.2312 -0.2821
 3053W        W18947  15.541  11.743  14.464 -0.2559 -0.0679 -0.2709
 3054W        W18948  16.467  15.376   3.046 -0.1921  0.0493 -0.0115
 3055W        W18949   4.344   3.436  14.479 -0.0760 -0.0309 -0.3431
 3056W        W18950   0.604   4.076   1.232 -0.1307 -0.0514  0.0519
 3057W        W18951  17.877   8.568   5.417  0.2673  0.1138 -0.1731
 3058W        W18952   4.780   8.504   0.179  0.3077 -0.0399 -0.2061
 3059W        W18953   0.721  16.537   5.734 -0.0535  0.2426  0.1117
 3060W        W18954  15.135   6.505   4.110 -0.0203  0.3231  0.0821
 3061W        W18955  13.980   2.099  12.509  0.3949 -0.2274  0.0221
 3062W        W18956  13.524  11.672   1.681  0.1286  0.0610  0.2276
 3063W        W18957   0.401   2.141  15.513  0.0406  0.0697  0.0202
 3064W        W18958   7.089  13.786   4.506 -0.1267  0.2917 -0.0464
 3065W        W18959  18.047   1.486  15.437  0.2329 -0.1638 -0.2628
 3066W        W18960  18.522  16.833   1.292 -0.0955 -0.2598  0.0246
 3067W        W18961  15.105  13.919  12.859 -0.1785 -0.0913  0.1050
 3068W        W18962  15.882   8.825   3.313  0.1389 -0.0882 -0.2405
 3069W        W18963   6.080  16.624  11.637  0.1004  0.2675 -0.1578
 3070W        W18964   8.783   1.528   3.772 -0.2324 -0.1430  0.3245
 3071W        W18965   7.176   3.867  12.030  0.0724 -0.0686 -0.1623
 3072W        W18966   0.281  18.012  10.836 -0.1720 -0.4144  0.0583
 3073W        W18967   1.230   6.972  14.155  0.3583 -0.1848 -0.0584
 3074W        W18968  12.943  16.604  13.817 -0.1223  0.3411 -0.0487
 3075W        W18969  17.880   9.744  12.269  0.0942  0.0923  0.0919
 3076W        W18970   5.181   3.620   1.154  0.3722 -0.3629 -0.0984
 3077W        W18971  10.088  13.099   2.485  0.0287 -0.0231 -0.0359
 3078W        W18972  16.403   8.236   5.047 -0.1502 -0.2436 -0.0487
 3079W        W18973  11.095  13.387   1.039  0.0307  0.0020 -0.1877
 3080W        W18974   8.801  16.371   0.768 -0.0671  0.0254 -0.2386
 3081W        W18975   2.068   6.460   2.932 -0.0049  0.0403  0.1809
 3082W        W18976  14.911   1.931   5.425  0.2150  0.2254  0.0827
 3083W        W18977  14.004  11.952  11.525 -0.0126  0.3759  0.3690
 3084W        W18978  10.342  15.584   1.496 -0.0992  0.0003  0.1444
 3085W        W18979  10.663  14.388   5.610 -0.1767  0.2341  0.2602
 3086W        W18980   1.580   9.412  13.051 -0.0228 -0.0269  0.3209
 3087W        W18981   5.244  13.434   1.535 -0.0947  0.2637 -0.0446
 3088W        W18982   8.625  11.882   2.128 -0.1148  0.0082 -0.0632
 3089W        W18983   4.852   1.408   4.762  0.1695  0.3272 -0.0121
 3090W        W18984   9.932   4.905   0.777 -0.1566 -0.1598  0.0228
 3091W        W18985  18.020  16.091  14.972  0.4526 -0.0434  0.0279
 3092W        W18986   5.665   2.053   0.204  0.0046  0.3444 -0.0732
 3093W        W18987  16.104   9.344  11.854  0.1018 -0.1831 -0.0527
 3094W        W18988   8.422   7.604   4.590 -0.0875 -0.1348  0.4298
 3095W        W18989  11.097   4.550  13.328  0.1797 -0.2967  0.0939
 3096W        W18990   8.170  10.168  14.778  0.1210 -0.1707  0.0384
 3097W        W18991   2.587   7.397   2.092 -0.2424 -0.1426 -0.2376
 3098W        W18992   3.024   0.244  10.925  0.0816  0.2272 -0.3007
 3099W        W18993   6.148  11.812   3.259  0.0492  0.3565 -0.1668
 3100W        W18994   6.897  16.131  14.232 -0.2503 -0.0328 -0.1485
 3101W        W18995   6.989   4.409   4.158 -0.0046 -0.0878  0.1299
 3102W        W18996  11.020  15.738   0.694 -0.0285  0.0396  0.1599
 3103W        W18997  17.291  14.897   0.745  0.3559  0.1452  0.1933
 3104W        W18998   2.655  18.550  15.103  0.0202 -0.0676 -0.0686
 3105W        W18999   4.372   5.185  13.122 -0.2014  0.1185 -0.0000
 3106W        W19000   9.524   4.220  14.411 -0.1073  0.1526  0.0489
 3107W        W19001   7.308  14.257  13.111  0.6379 -0.1012  0.0736
 3108W        W19002   6.303  12.653  15.573 -0.1428 -0.2334 -0.0864
 3109W        W19003   6.380  11.197  15.539 -0.1520 -0.0280  0.0037
 3110W        W19004  17.382  15.078   5.227 -0.0979  0.2662  0.1777
 3111W        W19005   9.705  13.330  14.341 -0.1327 -0.2894 -0.0461
 3112W        W19006  15.122  14.404  13.374 -0.0421  0.1250 -0.2487
 3113W        W19007   2.764   6.227   0.551 -0.3687 -0.0483 -0.0751
 3114W        W19008   0.119   1.766   1.503 -0.3537  0.0981  0.0618
 3115W        W19009   7.454  10.340  13.637  0.0832 -0.1701  0.3837
 3116W        W19010   9.202  10.846  10.546  0.1218  0.1069 -0.2000
 3117W        W19011   1.708   0.724   4.588 -0.1279 -0.0881 -0.0303
 3118W        W19012   8.143  11.588  15.581 -0.1425  0.0443 -0.0562
 3119W        W19013   3.962   8.873   1.210 -0.2609 -0.3556 -0.1845
 3120W        W19014  10.548   3.196  11.026  0.1317  0.0478  0.3723
 3121W        W19015   1.293   7.182   2.889 -0.1591 -0.2778 -0.2968
 3122W        W19016   3.155   8.397  12.508  0.0040 -0.1127  0.3126
 3123W        W19017  13.857  17.717  10.731 -0.2496 -0.0411  0.0599
 3124W        W19018   3.338   3.580  14.844 -0.0161  0.1101  0.1094
 3125W        W19019   2.428  17.152   3.844 -0.1634 -0.0173  0.0091
 3126W        W19020  16.664  17.213   0.830  0.4865  0.3212 -0.0124
 3127W        W19021  10.337   0.993  15.607  0.0867  0.3084  0.1760
 3128W        W19022  10.794   9.127   4.045  0.2146 -0.1124 -0.0635
 3129W        W19023  11.387   9.904  14.935 -0.0898  0.3079  0.0163
 3130W        W19024   7.699  11.948  14.201 -0.1021  0.0513  0.0018
 3131W        W19025  16.077  13.269  13.903  0.1024  0.0460  0.0440
 3132W        W19026  11.859   6.317   5.187 -0.0839 -0.1966 -0.1240
 3133W        W19027   8.643   1.908   1.015 -0.4847 -0.1357 -0.0015
 3134W        W19028   1.144   8.403   3.293 -0.0967  0.2267 -0.2334
 3135W        W19029   2.571   1.444   4.880  0.0102 -0.0536  0.1278
 3136W        W19030  11.923   9.090   3.061  0.4956  0.2772  0.2576
 3137W        W19031  15.547  10.816   2.966 -0.0811  0.2471 -0.0512
 3138W        W19032  13.459   5.133   0.427  0.1964 -0.1649  0.2748
 3139W        W19033   8.315   3.377  15.009 -0.2015 -0.1606 -0.0763
 3140W        W19034   7.676  11.359   1.636 -0.1896 -0.1012 -0.0615
 3141W        W19035  15.537  13.585   5.740  0.0766  0.1026  0.0185
 3142W        W19036  17.748  11.292  13.153  0.0237  0.2098 -0.1030
 3143W        W19037  15.667  15.700  12.888  0.0645 -0.0276  0.2909
 3144W        W19038  12.621   3.537   5.303  0.2607  0.0613 -0.0822
 3145W        W19039   0.943  16.295   3.225  0.0863  0.3927 -0.1981
 3146W        W19040   3.101  17.624   5.481 -0.0100 -0.2169 -0.1608
 3147W        W19041   4.502  13.674   2.713  0.0939  0.1754  0.2569
 3148W        W19042   7.227  18.410  11.883 -0.4402 -0.2075  0.0956
 3149W        W19043  14.606  17.165   2.505 -0.1261 -0.0317 -0.1291
 3150W        W19044   9.919  14.593  12.500  0.0076  0.0142  0.2227
 3151W        W19045  15.865   8.650   1.104  0.0905  0.3586 -0.1087
 3152W        W19046  16.039   8.618   4.948 -0.3191 -0.0812  0.0324
 3153W        W19047  14.159  15.083   2.034 -0.2246 -0.3895  0.3163
 3154W        W19048  12.948   0.402   4.469  0.1305  0.1541 -0.0871
 3155W        W19049  10.734   4.790  13.896 -0.0312  0.0380 -0.0461
 3156W        W19050  13.942  17.935  11.615  0.0566 -0.3052 -0.2063
 3157W        W19051   6.892   6.821   3.482 -0.0506  0.3757  0.2302
 3158W        W19052   8.280  10.042   5.555 -0.1460  0.0876 -0.0816
 3159W        W19053   8.769   5.462   3.608 -0.0855  0.1509  0.0993
 3160W        W19054   7.414  16.553   0.425 -0.0104  0.1106 -0.3521
 3161W        W19055  11.710  10.482  12.215 -0.0533  0.1265  0.4289
 3162W        W19056   6.169   7.167   0.466  0.3352 -0.1100 -0.0549
 3163W        W19057   2.456   2.051   3.635  0.1468 -0.0041 -0.1779
 3164W        W19058   3.420  12.719   0.048 -0.0915 -0.3013 -0.0093
 3165W        W19059  14.693  11.185  14.164 -0.1078 -0.1293  0.1989
 3166W        W19060   3.916  12.876  12.644  0.1299  0.1339 -0.0608
 3167W        W19061   6.220   9.561  12.089  0.2284  0.1548 -0.0421
 3168W        W19062   0.361  17.058   0.044 -0.1283  0.2820  0.0326
 3169W        W19063   2.457   6.944   3.515 -0.0748  0.2758  0.2341
 3170W        W19064  11.425  13.758   0.895 -0.2620 -0.4416  0.2090
 3171W        W19065   1.348   8.268   0.076  0.0484 -0.0288  0.1442
 3172W        W19066   2.515   3.369   4.479 -0.1768  0.1041 -0.1209
 3173W        W19067   9.118   2.810  12.000 -0.2772 -0.3111  0.2264
 3174W        W19068   9.540   1.216   3.340  0.2160  0.2095  0.2211
 3175W        W19069   6.937   9.438   1.038  0.0760  0.5106  0.1237
 3176W        W19070   5.084   3.314   1.937  0.1996 -0.3398  0.1734
 3177W        W19071   2.425  16.251   4.036 -0.2620 -0.1012  0.0250
 3178W        W19072   9.710   1.520   2.129  0.2536 -0.2475  0.0561
 3179W        W19073   5.497   6.823   0.937 -0.1031 -0.0905  0.1602
 3180W        W19074   8.284   4.613  10.680  0.2806 -0.0959  0.2168
 3181W        W19075  14.827   4.696   3.091 -0.4357 -0.2866  0.1519
 3182W        W19076   0.051   5.470  12.524  0.0180 -0.0443 -0.1619
 3183W        W19077  14.031   3.339  11.176 -0.1346 -0.1857  0.0962
 3184W        W19078   0.845   2.431   1.729 -0.4361 -0.1169  0.1902
 3185W        W19079   3.130   0.661  11.282  0.2036 -0.0347 -0.1340
 3186W        W19080  14.962  16.170  12.461 -0.1425  0.0661  0.0742
 3187W        W19081  17.342   3.387   2.621  0.3092 -0.2743 -0.1806
 3188W        W19082  13.135  18.205   3.498  0.0424  0.0238  0.2909
 3189W        W19083  17.047   5.671   4.659  0.1699 -0.1904  0.0172
 3190W        W19084  10.017   1.727   3.144 -0.0498 -0.1476 -0.3440
 3191W        W19085   2.272  17.222  10.799 -0.0222 -0.0753 -0.3452
 3192W        W19086   4.666   8.831  14.557 -0.1206  0.1479  0.1442
 3193W        W19087   6.401   7.233   0.952 -0.2005  0.1495  0.4263
 3194W        W19088   6.000  12.403  15.163 -0.0011  0.1566  0.2130
 3195W        W19089   6.645   9.442  11.708  0.1148  0.2165 -0.3062
 3196W        W19090   1.357   1.117   1.984  0.1392 -0.2239  0.0169
 3197W        W19091  18.310   6.671   3.838 -0.1092 -0.2037 -0.0578
 3198W        W19092  15.854   4.467   5.243  0.1557  0.3510  0.0093
 3199W        W19093  17.420   0.803   3.835 -0.1537  0.1906  0.2626
 3200W        W19094   9.299   9.182   3.696  0.1710 -0.1619 -0.0604
 3201W        W19095   3.419   4.885   1.097 -0.2619  0.1091  0.1661
 3202W        W19096   5.927   5.720  13.391 -0.1355 -0.0916 -0.2282
 3203W        W19097   9.304  15.031   3.811 -0.0176 -0.0419  0.2099
 3204W        W19098  16.394  10.810  13.956 -0.0217 -0.1549  0.1615
 3205W        W19099   7.725   0.491   0.726 -0.2374  0.5262 -0.0568
 3206W        W19100  13.126  17.747  14.909 -0.0459 -0.4020 -0.1251
 3207W        W19101   6.448  15.054   5.045  0.3890  0.2386  0.2719
 3208W        W19102  14.851   9.111   1.031  0.3173  0.1239 -0.0078
 3209W        W19103   1.619  10.037  13.160  0.2699  0.1627 -0.3626
 3210W        W19104   2.979   2.662   4.313 -0.0466  0.2010  0.0109
 3211W        W19105  17.103   6.211  12.596 -0.0012 -0.2272 -0.2031
 3212W        W19106   2.205  17.937   0.596 -0.4998  0.4720 -0.0823
 3213W        W19107   0.160  17.020  14.868 -0.1827  0.0728 -0.5643
 3214W        W19108   8.260  15.775  13.105 -0.1654  0.0806 -0.0733
 3215W        W19109  14.680  10.221   4.702  0.1625 -0.0963  0.1654
 3216W        W19110   9.718  14.992  15.266 -0.4635  0.0578 -0.0961
 3217W        W19111  17.383   0.383   3.479  0.0456 -0.2467 -0.0958
 3218W        W19112   8.521  13.366   5.459  0.2325  0.0648  0.1880
 3219W        W19113   7.398  13.631  10.712  0.2163  0.0644 -0.4656
 3220W        W19114   0.018   3.221  11.328  0.0221  0.3693  0.4007
 3221W        W19115   2.761  10.253   4.115 -0.1628  0.0653  0.3133
 3222W        W19116  13.708  16.669   5.920  0.1471  0.3009 -0.0022
 3223W        W19117  14.403   4.830   0.375 -0.1545 -0.0434  0.1271
 3224W        W19118  11.372   5.688   1.921 -0.0322 -0.0795 -0.1088
 3225W        W19119   7.808   1.602   2.206  0.3180  0.1920 -0.0977
 3226W        W19120   3.854   6.799  13.936 -0.0534 -0.2231 -0.1205
 3227W        W19121  11.978  12.633   5.129 -0.2523  0.0478  0.2102
 3228W        W19122   5.884   8.230   3.806  0.0301 -0.1717  0.2487
 3229W        W19123   1.661   0.409   2.197  0.1223 -0.0949  0.1232
 3230W        W19124   3.369   5.736  15.106  0.0307  0.1603  0.0561
 3231W        W19125  14.035  13.446   1.140 -0.1453  0.2083  0.3073
 3232W        W19126  18.764   8.333   3.817 -0.2456 -0.3292 -0.3167
 3233W        W19127   7.169  10.640  13.334  0.2233  0.1513  0.2010
 3234W        W19128   1.307   5.666   0.574 -0.1807  0.1606  0.1290
 3235W        W19129  15.779  16.630   3.150  0.0193 -0.2158  0.0715
 3236W        W19130  10.873   9.772  14.009  0.0017  0.0569 -0.2486
 3237W        W19131   4.117   9.404  15.137 -0.2024  0.1140 -0.2093
 3238W        W19132   4.318  10.024   5.057 -0.0744 -0.0131  0.0535
 3239W        W19133  13.622  13.921  12.802  0.0921 -0.2259  0.3175
 3240W        W19134  16.044   5.620   1.903 -0.4574 -0.2548  0.0540
 3241W        W19135   6.703   2.263  11.723 -0.0976  0.2463  0.1751
 3242W        W19136   9.671   3.438   4.870 -0.2790 -0.2456  0.0170
 3243W        W19137   2.052   8.766  11.783 -0.2371 -0.0010  0.1180
 3244W        W19138  12.014   0.365  15.081 -0.1913 -0.3588 -0.0770
 3245W        W19139  15.755  16.310   0.189 -0.0076  0.0925 -0.0798
 3246W        W19140  10.444   2.916   5.224  0.0751 -0.0849  0.0819
 3247W        W19141   6.233   0.499  10.439  0.1227  0.1058 -0.0959
 3248W        W19142   3.213  15.038   3.223  0.1273  0.4767 -0.0812
 3249W        W19143  16.776   3.851   2.163 -0.2007 -0.1218 -0.2018
 3250W        W19144   2.423   2.625   3.053 -0.1623  0.1307 -0.0679
 3251W        W19145   1.666   4.390  10.355  0.3246 -0.1808 -0.3477
 3252W        W19146   8.669  11.940  11.503 -0.1684  0.0148 -0.0783
 3253W        W19147  15.269   2.206   2.551 -0.0288 -0.0075  0.0497
 3254W        W19148   0.542  14.236   2.038 -0.2254  0.0331  0.0711
 3255W        W19149   8.221  12.454   2.439 -0.3330  0.1988 -0.0577
 3256W        W19150   6.342  16.472  12.094 -0.0759 -0.0471 -0.1167
 3257W        W19151  12.536  14.126   4.837 -0.1083 -0.1534 -0.1897
 3258W        W19152   1.553   7.066   3.756  0.0192 -0.3235 -0.0072
 3259W        W19153  13.778  10.139   2.675  0.2350 -0.1233  0.0686
 3260W        W19154  12.114   9.862   0.337 -0.2749  0.2167  0.0764
 3261W        W19155   1.840   2.034  12.435  0.1241 -0.2289 -0.1791
 3262W        W19156  10.061   7.454   4.090  0.1380  0.0294 -0.1752
 3263W        W19157   0.033   0.056   1.004 -0.2507  0.3866  0.0756
 3264W        W19158  14.574   7.017   5.363 -0.2307 -0.0277  0.1417
 3265W        W19159  11.387   1.955   0.678  0.1054  0.0807 -0.3261
 3266W        W19160   7.932  16.012   2.383 -0.1646 -0.0387 -0.3045
 3267W        W19161   2.210  12.603  15.098  0.0167  0.0213  0.1675
 3268W        W19162   8.447  10.656   0.748  0.1281  0.0319 -0.0858
 3269W        W19163   7.315   4.857   3.254 -0.2139  0.2211  0.1825
 3270W        W19164  10.640  17.668   3.468  0.0633 -0.0676 -0.0550
 3271W        W19165  14.201   7.093   3.398  0.2039 -0.0548  0.4309
 3272W        W19166  11.519   0.449  12.554 -0.1543 -0.0627 -0.0330
 3273W        W19167  15.018   6.558  14.884  0.0463 -0.2244 -0.2718
 3274W        W19168  18.462  11.870   3.943  0.3313 -0.3467  0.2728
 3275W        W19169  11.432   1.246   4.033 -0.2837 -0.0049 -0.0854
 3276W        W19170  13.947  14.622   2.498  0.0345  0.1392 -0.1372
 3277W        W19171  10.778  14.239  14.234 -0.2218  0.0463  0.0519
 3278W        W19172  17.635  13.367  11.336 -0.1590 -0.2255 -0.1755
 3279W        W19173  10.462  13.293   4.688  0.1265  0.2020 -0.0229
 3280W        W19174   3.853  12.883  13.203  0.2013 -0.0468  0.2461
 3281W        W19175   7.335  10.612   3.899  0.2001  0.2387 -0.0340
 3282W        W19176   1.527   8.363   0.596  0.0295  0.1690 -0.0840
 3283W        W19177  18.289  13.944   4.498  0.0902  0.0097 -0.0322
 3284W        W19178  16.131   9.383   0.564 -0.1660  0.0169 -0.3225
 3285W        W19179  16.900  11.557  12.235  0.2339 -0.0142 -0.1420
 3286W        W19180   6.463  15.462  15.417  0.0251 -0.1577  0.1575
 3287W        W19181  10.324  16.706  13.312 -0.3587  0.2907 -0.1830
 3288W        W19182   9.099  11.580   0.229  0.0442  0.0412  0.0672
 3289W        W19183  10.074   3.334  14.999 -0.2260 -0.1574 -0.0388
 3290W        W19184   0.413   9.307   1.310 -0.0348  0.1325  0.3352
 3291W        W19185  10.289   4.214  12.055  0.2772  0.1995  0.0283
 3292W        W19186  10.967   4.187  12.502 -0.0881 -0.2207 -0.1278
 3293W        W19187   7.985   3.163  11.331 -0.1980 -0.4363 -0.3420
 3294W        W19188  13.415   0.255  10.798 -0.1566  0.3177 -0.0434
 3295W        W19189   5.483   5.622  11.985  0.0580 -0.0793  0.2074
 3296W        W19190   4.277   4.662   5.487 -0.3004  0.1476  0.3924
 3297W        W19191  16.514  14.881  13.342  0.1071  0.1753 -0.1810
 3298W        W19192  18.496   1.076   3.916  0.1835  0.0138 -0.1822
 3299W        W19193  15.026   6.633   1.297 -0.0322  0.4382 -0.0466
 3300W        W19194   1.276  14.399  11.127 -0.0166  0.0043 -0.0386
 3301W        W19195   0.963  13.855   0.778  0.0450  0.1463 -0.0084
 3302W        W19196  11.540   9.755   2.383  0.1287 -0.2747  0.0751
 3303W        W19197  16.520  12.193   0.900 -0.0986  0.2296 -0.0234
 3304W        W19198   0.824   7.292  14.411  0.0663 -0.3683  0.4180
 3305W        W19199   2.959   3.401   2.105 -0.0708 -0.1390 -0.2304
 3306W        W19200   7.019  11.696   1.455  0.0626 -0.1598 -0.1271
 3307W        W19201   2.834   0.405   5.328  0.0342 -0.1130 -0.1198
 3308W        W19202   0.931  15.178  10.960 -0.1045  0.0252 -0.1780
 3309W        W19203  14.768  13.586   0.053 -0.0228  0.1379  0.0323
 3310W        W19204  15.179  17.455  12.631 -0.0982 -0.0182  0.0470
 3311W        W19205  11.223   7.542  12.430 -0.1111 -0.2866  0.2110
 3312W        W19206  11.633   3.797  14.713  0.1334  0.1114 -0.0079
 3313W        W19207   7.032   6.333  12.009 -0.0694 -0.1251  0.1952
 3314W        W19208  11.371  16.128  12.792 -0.0925 -0.5775  0.0683
 3315W        W19209   5.431   0.612   4.471 -0.1868 -0.1377  0.0326
 3316W        W19210  12.158   7.146  10.891 -0.3128 -0.1053 -0.2015
 3317W        W19211   9.012   0.938  13.372  0.1915  0.2117 -0.0688
 3318W        W19212   6.480   5.103  14.965  0.1159  0.2286 -0.0198
 3319W        W19213  15.159   6.998   3.862  0.3274 -0.2776  0.0166
 3320W        W19214   9.689   4.289  12.162 -0.2826 -0.1344  0.2662
 3321W        W19215   7.002   9.250   1.486 -0.2277 -0.0901  0.1424
 3322W        W19216   1.166  10.866   2.153  0.0143 -0.0044 -0.1954
 3323W        W19217   1.075   3.088   3.486 -0.0935  0.1501 -0.0396
 3324W        W19218   7.929  12.208  12.210 -0.1270  0.1804 -0.0660
 3325W        W19219   0.908   1.590   5.591  0.2873 -0.0341  0.1737
 3326W        W19220   6.838   0.412   3.277  0.0506  0.2218  0.0216
 3327W        W19221  11.543   1.302   0.394 -0.2534 -0.0573 -0.3018
 3328W        W19222  11.706  15.792   4.122 -0.0653 -0.0246 -0.0923
 3329W        W19223   4.109   6.658   0.062 -0.0064 -0.0360  0.4583
 3330W        W19224   5.638   4.698  14.303  0.4467  0.0419  0.2300
 3331W        W19225   7.608   4.594  12.979  0.1072 -0.0107 -0.0203
 3332W        W19226   4.425  17.907  10.878 -0.0125 -0.0062 -0.0749
 3333W        W19227  10.107   6.519   4.997 -0.0673 -0.0320  0.0737
 3334W        W19228  11.962   5.792  10.369 -0.3008  0.0921  0.1168
 3335W        W19229   3.411   9.085   1.236 -0.2211 -0.3431  0.4179
 3336W        W19230  18.413   2.865  11.444  0.1016  0.0188  0.2683
 3337W        W19231   4.969   9.204   2.590 -0.0805 -0.0162 -0.1735
 3338W        W19232  17.427  18.015   4.652 -0.0743  0.0675 -0.1981
 3339W        W19233   7.444   0.088  13.016  0.3929 -0.3312 -0.0673
 3340W        W19234   4.555   8.459   4.625 -0.0748  0.2307  0.3122
 3341W        W19235  13.806  18.493  15.115  0.2896 -0.1175 -0.0743
 3342W        W19236   3.795  13.325   5.089  0.1799 -0.0020 -0.1959
 3343W        W19237   8.154   9.592  15.567 -0.0719  0.5400  0.1339
 3344W        W19238   6.812   1.965  15.178  0.0180  0.2184  0.0114
 3345W        W19239   5.248   0.851   1.637  0.1183  0.1840  0.0944
 3346W        W19240   0.297   8.876  14.051 -0.2197 -0.0919  0.0862
 3347W        W19241   7.130   3.764  12.934  0.6313  0.2266  0.0377
 3348W        W19242  10.930  16.593   2.686  0.0900  0.1897  0.1340
 3349W        W19243  12.357   7.060   5.366  0.1323 -0.0437  0.1372
 3350W        W19244   3.980   1.822   4.437  0.0014  0.0312 -0.0468
 3351W        W19245   2.042   5.356   0.686 -0.0970 -0.2891 -0.1142
 3352W        W19246   7.829  11.138   1.129 -0.1452  0.2234 -0.0969
 3353W        W19247   2.810   7.849   2.377 -0.1964  0.0262 -0.0697
 3354W        W19248   0.210   2.889   5.206  0.1759  0.0773  0.1273
 3355W        W19249  14.444  10.540  12.005  0.2776  0.0876  0.0597
 3356W        W19250  12.854  11.219   0.453 -0.2731 -0.0529 -0.2086
 3357W        W19251   2.921  17.760  15.619 -0.2242 -0.1639  0.0268
 3358W        W19252   2.417   7.262  11.019 -0.3875  0.5431 -0.1695
 3359W        W19253  10.115   5.013  14.005 -0.3654  0.1730  0.0403
 3360W        W19254   6.422   6.517   1.248  0.1614 -0.0156 -0.0272
 3361W        W19255   8.936  13.327  14.015 -0.3409 -0.1645  0.1094
 3362W        W19256  12.013  15.426  13.625 -0.2819 -0.0664 -0.3595
 3363W        W19257   4.357  10.367  12.202 -0.0516  0.0861 -0.1462
 3364W        W19258  11.313   8.755  11.562 -0.5251  0.1618  0.1290
 3365W        W19259   5.304  18.533   2.583  0.3676  0.2401  0.2154
 3366W        W19260   4.278   0.252  11.837 -0.0583  0.2907  0.1949
 3367W        W19261  13.505  15.176  14.511 -0.0870 -0.1631  0.2293
 3368W        W19262  11.378   5.426  13.189 -0.0472 -0.0688 -0.1684
 3369W        W19263  12.200  15.147   2.044  0.0306  0.0762  0.1192
 3370W        W19264   1.158   9.692  12.268 -0.0367  0.0123 -0.0540
 3371W        W19265  12.038  17.073  11.787 -0.1348  0.3100  0.3134
 3372W        W19266  17.893   0.813   4.025 -0.2004  0.1097  0.2426
 3373W        W19267  14.247   5.425   2.862 -0.0474  0.1855  0.2632
 3374W        W19268  15.419  12.102  11.655 -0.4275 -0.1718 -0.3368
 3375W        W19269   2.742  16.660  14.925  0.0963 -0.2230 -0.1112
 3376W        W19270   7.432  12.457   3.924  0.0937 -0.0070  0.2839
 3377W        W19271   2.693  14.010  14.176  0.1003 -0.0718  0.3358
 3378W        W19272   6.572   4.050   9.955  0.1613 -0.1060  0.1615
 3379W        W19273  16.076   7.769   2.940  0.4288 -0.0727 -0.2056
 3380W        W19274   3.118  14.254  13.029  0.0456 -0.0321 -0.0578
 3381W        W19275  14.459   5.179  14.009  0.1551 -0.1580 -0.0733
 3382W        W19276  12.513   0.555  12.980  0.0416  0.1923 -0.2149
 3383W        W19277   0.563   5.482   2.199  0.1837 -0.2713  0.0132
 3384W        W19278   7.592   7.964   9.810 -0.0413  0.1362 -0.0333
 3385W        W19279  12.753  17.554   4.984  0.0020  0.0055  0.2339
 3386W        W19280  16.501   0.092   1.609  0.0771  0.1858  0.0188
 3387W        W19281  18.555   3.222   3.835 -0.2738 -0.0740 -0.1613
 3388W        W19282   3.810   6.738   3.815 -0.1615 -0.0616 -0.0258
 3389W        W19283   6.433   9.974   4.332 -0.1626 -0.0879 -0.0127
 3390W        W19284  16.631   7.767  14.673 -0.1359 -0.3310  0.1947
 3391W        W19285   6.454   4.238  14.138 -0.0685 -0.1196 -0.0493
 3392W        W19286  15.504   7.621   0.139  0.1411 -0.1188  0.1275
 3393W        W19287  13.741   6.641   2.778 -0.2502 -0.1543  0.2057
 3394W        W19288  17.408  10.898  13.045  0.1083  0.0951 -0.0172
 3395W        W19289   3.222   8.078  11.540  0.0575  0.0071 -0.0439
 3396W        W19290   6.720  16.818   1.839  0.2916 -0.2113 -0.0454
 3397W        W19291   6.797   7.166   5.200 -0.0414 -0.0899  0.1383
 3398W        W19292   7.895   9.429   4.230  0.1667 -0.1108 -0.3414
 3399W        W19293   1.240   8.190  11.942  0.2385  0.2135 -0.2098
 3400W        W19294  13.475   8.498   4.615  0.1901 -0.1571 -0.2006
 3401W        W19295   8.533   8.294   2.932 -0.1883 -0.3733 -0.0589
 3402W        W19296  11.336   7.347  13.826  0.4513  0.0147 -0.2698
 3403W        W19297   8.552  10.312   0.230  0.1393 -0.1041 -0.0857
 3404W        W19298  12.790   4.174   2.883 -0.2183  0.0627  0.0516
 3405W        W19299  14.993   1.614  12.930 -0.1146 -0.0553  0.2251
 3406W        W19300   6.081   5.542   3.858 -0.2298  0.0723 -0.0823
 3407W        W19301   1.344   6.094  12.001  0.0018 -0.1858  0.0592
 3408W        W19302  10.316  16.335  13.720 -0.1702 -0.0941 -0.0178
 3409W        W19303   5.659   6.222  14.177  0.1156  0.2236 -0.1620
 3410W        W19304   6.422  17.592   0.125  0.3024 -0.0291  0.0113
 3411W        W19305   6.010  18.105  14.110 -0.0699  0.1544  0.4370
 3412W        W19306   1.859  11.324   0.334  0.0126  0.0142  0.1141
 3413W        W19307   2.062   7.202  13.952 -0.1015  0.3506  0.0840
 3414W        W19308   6.078  13.183   1.093 -0.3041  0.2144 -0.3279
 3415W        W19309  14.842   5.902  11.825  0.1039 -0.0518  0.0089
 3416W        W19310   7.965  17.208   1.085 -0.1354 -0.0341 -0.2489
 3417W        W19311  17.070  17.564   3.915  0.0549 -0.1156 -0.2765
 3418W        W19312  12.929  18.739   4.053 -0.0226 -0.1587 -0.1963
 3419W        W19313   7.453   8.626   1.825 -0.1038 -0.0050 -0.1541
 3420W        W19314   8.412  17.689  10.802  0.1582  0.1573  0.2136
 3421W        W19315  13.499  13.999   0.338  0.1381  0.1780 -0.4918
 3422W        W19316  17.073  16.680  12.636 -0.2748 -0.0104 -0.0027
 3423W        W19317  16.058  14.748  14.831  0.1942  0.5109  0.0622
 3424W        W19318   2.593   3.268   1.606  0.1649  0.2929 -0.1591
 3425W        W19319  12.327   5.008   4.807 -0.0412  0.0869  0.3164
 3426W        W19320   1.726   8.211   1.948  0.0969  0.7306  0.0424
 3427W        W19321   5.844  16.635   3.718  0.3898 -0.0314  0.1890
 3428W        W19322  18.411   5.584  15.407 -0.1456  0.1415  0.1351
 3429W        W19323   2.505  16.379  14.083 -0.0272 -0.0782  0.1010
 3430W        W19324   1.450   1.330   0.993  0.0705  0.2585  0.0779
 3431W        W19325  16.647  16.985   1.727 -0.0668 -0.0834  0.0005
 3432W        W19326  10.020  11.190   0.141 -0.0939  0.0181 -0.1101
 3433W        W19327  18.686   0.889   2.520 -0.1554  0.0304  0.0872
 3434W        W19328  11.371  14.575  11.840 -0.2596  0.1208 -0.0135
 3435W        W19329  16.434  14.480   1.292  0.3275  0.0539 -0.1459
 3436W        W19330  14.879   8.781   2.680 -0.1800 -0.0868  0.1468
 3437W        W19331  10.360   1.327  12.499 -0.0494 -0.2482  0.3271
 3438W        W19332   0.851   9.891  12.583 -0.0860 -0.1202  0.0472
 3439W        W19333  13.368   9.841  14.004  0.0655 -0.0279 -0.2547
 3440W        W19334  14.806  16.790   4.542 -0.0171  0.0672  0.0989
 3441W        W19335   0.839  14.051  12.397 -0.1498 -0.0013 -0.1988
 3442W        W19336   2.528  13.350   2.038  0.1196  0.0209 -0.4194
 3443W        W19337  17.934   2.407   0.688  0.1368 -0.0797 -0.1976
 3444W        W19338  18.664  11.030  11.894  0.1276 -0.1822  0.0029
 3445W        W19339   4.906  11.724  11.181 -0.5120  0.1445  0.2805
 3446W        W19340   2.715  15.562  13.961 -0.1160  0.1182 -0.3150
 3447W        W19341  14.338   2.341   0.988  0.5862  0.0035  0.2603
 3448W        W19342  17.671   5.881  10.576  0.3372 -0.0828 -0.2189
 3449W        W19343   0.645   7.752   3.673  0.1348 -0.0449 -0.0385
 3450W        W19344   0.122  11.402  12.260 -0.1151  0.1531 -0.1877
 3451W        W19345  16.038   2.392  13.425  0.0896 -0.0599  0.3361
 3452W        W19346  12.361   6.438  13.664 -0.2309 -0.1602 -0.0096
 3453W        W19347   7.516  11.375   2.855  0.1307  0.0267  0.2500
 3454W        W19348  11.092  14.511  14.668  0.0791  0.0317  0.0663
 3455W        W19349   1.416   0.795   0.124 -0.0757  0.0947 -0.1589
 3456W        W19350   7.981   6.240  11.756 -0.0868 -0.0096 -0.4424
 3457W        W19351   0.235  14.786   1.518 -0.0392  0.1708  0.2154
 3458W        W19352   1.795  11.143   5.193  0.1109  0.0445 -0.0210
 3459W        W19353   5.565   3.098   1.977  0.3617 -0.1689 -0.0824
 3460W        W19354  12.148  11.523  12.658  0.0520 -0.0411  0.2580
 3461W        W19355   5.403  15.036   3.069  0.1350 -0.2232 -0.1311
 3462W        W19356  13.765   7.194  14.685  0.1193  0.2420 -0.2213
 3463W        W19357   9.926  12.304   4.203  0.1591 -0.1153 -0.0758
 3464W        W19358  18.303  14.764   6.137 -0.2965 -0.1033 -0.0791
 3465W        W19359  11.707  12.267  15.082  0.0827 -0.0719  0.0039
 3466W        W19360  12.551   0.065   0.793 -0.2054 -0.0975  0.0483
 3467W        W19361  18.333   1.412  14.624  0.0182 -0.1001 -0.1574
 3468W        W19362  16.524  10.863   3.798 -0.3938 -0.0423  0.2588
 3469W        W19363   3.988  17.112   3.587  0.1946 -0.1002 -0.0558
 3470W        W19364  11.665  18.164  13.866  0.0622 -0.1030  0.3161
 3471W        W19365  13.214   5.334   4.317 -0.0744  0.1738  0.1935
 3472W        W19366   7.585   7.913  13.819 -0.0317  0.1132  0.0918
 3473W        W19367   1.917   6.151  15.028  0.0209  0.2858 -0.1793
 3474W        W19368  14.813  17.549  11.681 -0.2687 -0.1668  0.1345
 3475W        W19369  12.553  10.069   1.674  0.1186 -0.3650  0.2944
 3476W        W19370  10.333   4.657   4.203  0.0648 -0.1210 -0.2057
 3477W        W19371   9.000  17.688   4.132  0.3800 -0.2499 -0.4863
 3478W        W19372  14.305   5.146  14.899 -0.0137  0.4648 -0.2222
 3479W        W19373   4.534  14.448  12.723  0.0228 -0.2571  0.1566
 3480W        W19374  15.898   2.550   9.379  0.2617  0.1211 -0.0272
 3481W        W19375   9.566   6.739   2.283 -0.0036 -0.0038 -0.1082
 3482W        W19376  16.700   5.707   0.938 -0.2041  0.2505  0.0725
 3483W        W19377  12.111   0.582  10.484 -0.0838 -0.0004 -0.2573
 3484W        W19378  15.089  18.334  14.634 -0.2591 -0.1533  0.0700
 3485W        W19379   2.002   1.984  11.983 -0.0415 -0.1236 -0.1043
 3486W        W19380  14.904  14.847  13.909 -0.2108 -0.0078  0.4603
 3487W        W19381  15.837   6.259   5.857  0.0057 -0.2195  0.0321
 3488W        W19382   7.082  17.586  13.346  0.0201 -0.1241 -0.1025
 3489W        W19383  12.276  11.805  13.069 -0.1100  0.0586 -0.0769
 3490W        W19384   3.425   4.182  12.735 -0.1805  0.1740 -0.1342
 3491W        W19385   3.983   0.914   1.082 -0.2607  0.1270 -0.5008
 3492W        W19386   2.912   8.990   0.719  0.2736 -0.0053 -0.1028
 3493W        W19387  12.128   0.687   4.257  0.1988  0.0798 -0.3479
 3494W        W19388   3.343   2.351   9.916  0.0330  0.2751  0.3010
 3495W        W19389   3.100   5.309  14.415 -0.1665  0.2188  0.4717
 3496W        W19390  15.459  13.947  12.515 -0.4771 -0.1586  0.0105
 3497W        W19391  12.227   4.831  13.302  0.0772 -0.2652  0.0156
 3498W        W19392   5.670   2.760  14.713 -0.1500 -0.1726 -0.1382
 3499W        W19393   6.580  15.916  15.251  0.4495  0.0637 -0.1354
 3500W        W19394  18.255   1.239  13.774 -0.4777  0.1686  0.2659
 3501W        W19395   2.016   7.417   5.505  0.2553  0.0476  0.2402
 3502W        W19396  13.593   7.107  11.570 -0.0540  0.1730 -0.0403
 3503W        W19397  12.557   1.595   3.415  0.0278 -0.1499 -0.1462
 3504W        W19398  11.897  10.863   5.505  0.0228  0.1063 -0.0442
 3505W        W19399  13.095   5.386   1.689  0.0066  0.1359  0.0659
 3506W        W19400  10.774   1.895   1.920  0.0353  0.4408  0.0007
 3507W        W19401  13.734   7.350   3.443 -0.4163 -0.1812 -0.2523
 3508W        W19402  16.379  12.987  11.987  0.1512 -0.0333 -0.3819
 3509W        W19403  10.943  12.947   2.509  0.1312  0.1091  0.1685
 3510W        W19404  12.519   3.002  10.761 -0.1431 -0.0378 -0.1905
 3511W        W19405  17.450   4.364   5.211 -0.2824  0.0900 -0.0418
 3512W        W19406   0.628   0.598  15.385  0.0755  0.1145 -0.1058
 3513W        W19407   0.487  13.692  12.033  0.6051  0.1579 -0.0348
 3514W        W19408  11.467   1.629  13.256 -0.0868  0.0326 -0.1094
 3515W        W19409  17.506  15.679  13.824 -0.0811 -0.0194  0.5539
 3516W        W19410   9.453   3.918  10.104 -0.0087  0.0934  0.2318
 3517W        W19411   8.669  15.917  12.802 -0.0568 -0.0027 -0.2269
 3518W        W19412  17.194   3.993   1.878  0.3068  0.0353 -0.1563
 3519W        W19413   4.532   6.961  11.461 -0.1876 -0.0647  0.0920
 3520W        W19414  15.414   0.475  15.231  0.1178  0.0666  0.0058
 3521W        W19415  16.474   7.384   5.217 -0.2328  0.2028  0.3211
 3522W        W19416   7.389  18.418  10.535 -0.2149 -0.2213  0.0611
 3523W        W19417   9.248   8.001  14.968 -0.0417 -0.1972  0.0170
 3524W        W19418   5.301   8.569   4.812  0.0101  0.0293  0.0177
 3525W        W19419   5.743   3.028   4.722 -0.0176  0.0686  0.1735
 3526W        W19420   9.816   3.000  13.406  0.0804  0.1362  0.1887
 3527W        W19421   0.245  12.874  11.276  0.1960  0.3150  0.2462
 3528W        W19422   1.575  12.721   5.368 -0.0023  0.0354  0.0421
 3529W        W19423   6.484   5.403   1.170  0.0599  0.2154 -0.1804
 3530W        W19424  17.045   5.311  12.755 -0.0484 -0.0637 -0.0055
 3531W        W19425  15.917  13.736  13.793 -0.0932 -0.0134  0.2059
 3532W        W19426   0.528  15.098   2.441  0.2071 -0.1164 -0.2571
 3533W        W19427  17.641  17.327   0.149 -0.3473 -0.2620  0.0823
 3534W        W19428   0.953   5.974  12.617  0.0664 -0.0192  0.2226
 3535W        W19429  11.471  11.858   2.672  0.2697 -0.2759  0.5462
 3536W        W19430  11.197  14.288   5.385  0.0053 -0.0162  0.0569
 3537W        W19431  17.759  13.581  12.130  0.1850  0.0027  0.1007
 3538W        W19432  13.430  13.283   4.660 -0.1363 -0.0992  0.1996
 3539W        W19433   5.540   1.675   0.512  0.0068  0.2424 -0.2324
 3540W        W19434  15.909   7.909  11.813  0.0744  0.0405 -0.1424
 3541W        W19435   1.609   3.370  14.136  0.2698  0.1524  0.0848
 3542W        W19436   6.120  16.349  13.711 -0.0437 -0.1015 -0.1356
 3543W        W19437   4.415   4.523   3.819  0.1510  0.1587 -0.0279
 3544W        W19438  12.446   9.750   3.053 -0.0131 -0.0176  0.2326
 3545W        W19439   8.741   6.008   1.634 -0.0549  0.3236 -0.0403
 3546W        W19440  13.360   0.698  11.068  0.0229  0.1130  0.2130
 3547W        W19441  16.042  18.296  14.743 -0.3172  0.1468  0.1245
 3548W        W19442   4.810  12.179   5.118  0.0742  0.1963 -0.2817
 3549W        W19443   7.629  13.318   1.703 -0.0549  0.0580 -0.0364
 3550W        W19444  10.495   8.288   2.129  0.0578 -0.1575  0.0107
 3551W        W19445   9.144   8.626  13.459 -0.0780  0.3963 -0.1640
 3552W        W19446   3.097  13.943  11.654 -0.1370  0.1201  0.2568
 3553W        W19447   0.530   1.642   4.651  0.1485 -0.1759  0.4864
 3554W        W19448  12.463  11.665   3.306 -0.1877 -0.0283 -0.1195
 3555W        W19449  15.126  10.780   2.600  0.0701 -0.1693 -0.2970
 3556W        W19450   7.770   7.343   3.025 -0.0492  0.0669  0.0681
 3557W        W19451   8.305  16.231   4.584  0.0672 -0.0830  0.1489
 3558W        W19452   5.950   6.829  15.197 -0.2033 -0.0526 -0.1048
 3559W        W19453   8.609   9.346  11.894  0.0124 -0.3358  0.3761
 3560W        W19454   4.121   3.837   4.035 -0.1224 -0.2807 -0.1144
 3561W        W19455  11.630   2.065  13.042  0.2543  0.0163  0.0503
 3562W        W19456  10.371   9.253  12.365 -0.3891  0.0165 -0.2635
 3563W        W19457  15.060  17.409   2.421 -0.3256  0.2744 -0.0735
 3564W        W19458   8.278   2.128  12.825 -0.5372 -0.0078  0.0076
 3565W        W19459  17.691   8.674   0.232  0.1668 -0.1153 -0.0982
 3566W        W19460  16.008  15.577   4.324 -0.1041  0.2132  0.0801
 3567W        W19461  15.283  12.605   5.456 -0.0733 -0.0483 -0.0800
 3568W        W19462  11.583   3.168   1.882  0.2178  0.0137  0.4974
 3569W        W19463  16.895   0.207  13.792 -0.1596  0.1362 -0.2449
 3570W        W19464  16.686  18.631   3.620 -0.1597 -0.2741  0.1883
 3571W        W19465  11.287  14.623  12.385 -0.1205 -0.1415 -0.0818
 3572W        W19466   1.694  12.530  15.278  0.0467 -0.0259 -0.0008
 3573W        W19467   4.230   6.782   2.387  0.3968  0.0093  0.1329
 3574W        W19468   0.153  16.006  11.877  0.1099  0.1621  0.4504
 3575W        W19469   8.847   4.507  11.579  0.1487 -0.1636  0.1750
 3576W        W19470  18.207  14.747   4.128 -0.1624  0.0064 -0.0826
 3577W        W19471   9.860   4.752  13.614 -0.1257 -0.2885 -0.0187
 3578W        W19472  12.976   5.826  10.098  0.0391  0.1976  0.1721
 3579W        W19473  12.437  14.306  10.786  0.1894  0.2619 -0.0490
 3580W        W19474   1.542   9.984  15.311 -0.2657 -0.0430  0.0779
 3581W        W19475  15.548  10.663   5.464  0.0973  0.1298  0.3082
 3582W        W19476  11.402  14.301  13.504  0.1347 -0.3075  0.2409
 3583W        W19477  13.745  12.631   3.739 -0.1051 -0.2551 -0.2783
 3584W        W19478  17.034  12.181   0.610 -0.1587 -0.0843  0.0235
 3585W        W19479  14.001   8.069  12.698  0.0482  0.1831  0.2449
 3586W        W19480  16.828   9.153   4.010 -0.1299 -0.3178 -0.1696
 3587W        W19481   0.744   6.061   3.404 -0.1338  0.1142  0.0796
 3588W        W19482  16.023   7.856  11.323 -0.1484 -0.1139  0.1610
 3589W        W19483   2.763   7.536   2.816  0.0309 -0.0985 -0.1538
 3590W        W19484  14.203   2.862  13.487  0.1890 -0.1014  0.1246
 3591W        W19485   3.977   8.970  11.574 -0.3465  0.1666 -0.2838
 3592W        W19486   2.611   8.467   3.648 -0.2817 -0.1878 -0.0369
 3593W        W19487   0.464   5.730   0.946 -0.2845 -0.1941 -0.0499
 3594W        W19488  17.024  17.123   4.875  0.0414  0.2308 -0.1380
 3595W        W19489  15.129  12.287   0.877 -0.0965  0.0046  0.1325
 3596W        W19490   5.771  13.661  10.537  0.2070  0.1756 -0.0127
 3597W        W19491   2.730   0.545   3.241  0.1724  0.1008 -0.0289
 3598W        W19492   0.446   7.168  11.833  0.1517  0.0612 -0.0995
 3599W        W19493   3.691   0.143  13.046  0.4097 -0.2726 -0.2190
 3600W        W19494   8.492  15.165  15.039 -0.2381 -0.0133 -0.1336
 3601W        W19495   4.536  15.381   4.398  0.1745  0.0794  0.0146
 3602W        W19496  17.706   6.156  13.508 -0.1283 -0.3617  0.1478
 3603W        W19497   4.830   2.186  13.146 -0.3876 -0.1848 -0.1159
 3604W        W19498  14.240  12.999   3.021  0.1941 -0.2587 -0.1659
 3605W        W19499  15.897  15.971  11.575  0.1822 -0.0055 -0.0981
 3606W        W19500  12.326   3.038  14.721 -0.1720 -0.3198 -0.2407
 3607W        W19501   6.287   2.484  12.665 -0.4099 -0.1818 -0.2881
 3608W        W19502  10.921  12.728  14.034  0.1730 -0.1094  0.1979
 3609W        W19503   4.141  18.106  12.246 -0.1694 -0.2306 -0.3740
 3610W        W19504  10.316   7.712   1.278 -0.1170 -0.0603  0.4727
 3611W        W19505   6.591  18.382   0.768 -0.0241 -0.2208  0.1503
 3612W        W19506  12.403  14.285   3.092  0.0350 -0.1533 -0.0953
 3613W        W19507   4.416   2.181   1.015 -0.4760 -0.0443 -0.0519
 3614W        W19508   4.496   1.381  15.029 -0.4414 -0.1370 -0.4494
 3615W        W19509  14.189   5.945  14.261  0.0176 -0.0333  0.2257
 3616W        W19510  16.145   5.083  14.763  0.2042  0.0184 -0.2569
 3617W        W19511   2.300   2.913   5.007  0.1686 -0.2179  0.2095
 3618W        W19512  15.837   4.193   3.012 -0.0878 -0.0184 -0.1797
 3619W        W19513   5.172  15.982   0.804  0.0324 -0.3342  0.0715
 3620W        W19514  15.595  16.089  12.423 -0.0307  0.0438  0.1216
 3621W        W19515   6.479  11.994   1.938  0.1744 -0.2068 -0.0137
 3622W        W19516  18.025  16.496   3.987 -0.2819 -0.0509  0.1541
 3623W        W19517   2.485   7.532   0.153  0.1929  0.0608 -0.0663
 3624W        W19518   1.187   3.728   5.126 -0.1634 -0.1592 -0.2127
 3625W        W19519   6.590   2.976   2.515 -0.0086 -0.1696  0.1858
 3626W        W19520   6.290   0.435  11.215  0.1187 -0.0959 -0.1685
 3627W        W19521   0.168  16.378   1.426  0.3612  0.0978  0.0156
 3628W        W19522  17.463  11.859   0.571  0.2198  0.2995  0.0491
 3629W        W19523   7.347   5.652  11.291 -0.0230 -0.2819  0.3534
 3630W        W19524  12.933   4.889  15.251  0.2107 -0.2033 -0.2155
 3631W        W19525  15.060   2.800   1.825  0.1363 -0.0912  0.3767
 3632W        W19526  17.021   2.854   0.617 -0.1685  0.0110 -0.1661
 3633W        W19527  17.720   6.799   0.879  0.1273 -0.0232  0.0579
 3634W        W19528  15.544   3.980  10.921  0.1372 -0.1438 -0.0231
 3635W        W19529   9.090   8.263  11.428  0.1922 -0.1150 -0.2007
 3636W        W19530   9.028  15.651  11.607 -0.0434 -0.0245 -0.1121
 3637W        W19531  15.149  16.432  13.799 -0.3201  0.1785  0.1158
 3638W        W19532  18.638   5.948   2.544 -0.2307 -0.2601 -0.1925
 3639W        W19533   2.380  15.011  10.788  0.1140  0.1360 -0.1828
 3640W        W19534   4.076  11.773   0.208  0.1238 -0.0211  0.0735
 3641W        W19535  16.217   2.945  11.322 -0.0135 -0.1261 -0.0063
 3642W        W19536  14.945  13.696   2.704 -0.0834 -0.1219 -0.0759
 3643W        W19537   8.779  15.187   3.099  0.2738 -0.0497  0.3510
 3644W        W19538   9.725  17.389   0.968 -0.0352 -0.1844 -0.3103
 3645W        W19539  14.087  17.649   1.398  0.0804  0.1984 -0.2304
 3646W        W19540  14.461   6.091   1.550  0.0236 -0.2190 -0.0453
 3647W        W19541   7.522  14.542   0.551 -0.1644 -0.0429 -0.2019
 3648W        W19542  13.777   2.072   2.847 -0.3171 -0.0608 -0.1402
 3649W        W19543  11.584   8.866   4.934  0.2914 -0.1238 -0.0508
 3650W        W19544  12.266  11.907  12.312 -0.1720  0.0267 -0.0526
 3651W        W19545   5.091   0.413   1.905 -0.1942 -0.1171  0.0154
 3652W        W19546   6.346  18.630   2.285 -0.0702 -0.0931  0.0255
 3653W        W19547   5.259   8.252   3.876  0.3169  0.1397 -0.0816
 3654W        W19548  15.998  10.200   3.396  0.0775 -0.1972  0.1701
 3655W        W19549   7.369  15.381  14.126 -0.1223 -0.2713 -0.1405
 3656W        W19550  13.497  13.035   0.368 -0.2184  0.1247 -0.1983
 3657W        W19551   8.527   6.173  15.417 -0.0979  0.1378  0.0394
 3658W        W19552  17.822   9.263   4.071  0.0563 -0.2712  0.3589
 3659W        W19553   1.439  14.999   2.599  0.1728  0.1430  0.5671
 3660W        W19554  18.421   6.456   3.337 -0.3296  0.1703  0.0154
 3661W        W19555  18.214  13.594  14.594  0.1085  0.0668 -0.1042
 3662W        W19556  13.218  16.951  12.157  0.0256  0.3723  0.1732
 3663W        W19557   9.254   5.030  14.755 -0.0593  0.1222 -0.0020
 3664W        W19558   9.324  11.633   3.065  0.2345 -0.0984 -0.0549
 3665W        W19559  12.156  11.953  15.239  0.0794 -0.1324 -0.1050
 3666W        W19560   3.603  12.868   4.930 -0.1475  0.2749  0.0669
 3667W        W19561   9.431   6.202   1.307 -0.4088 -0.1783  0.3032
 3668W        W19562  16.876   5.420  13.813 -0.0557  0.3737 -0.4130
 3669W        W19563   8.707  14.385   0.163 -0.1436 -0.2120  0.0620
 3670W        W19564   9.067   5.948   4.174  0.0441  0.1464 -0.0162
 3671W        W19565   9.214  15.561  11.136 -0.0872  0.0326  0.0408
 3672W        W19566  11.089  17.899  11.333  0.0701  0.1299 -0.0475
 3673W        W19567  12.434  16.291  13.648  0.0804 -0.2341  0.0068
 3674W        W19568   5.361   3.685   1.722  0.1736 -0.0069 -0.2391
 3675W        W19569  16.157   8.309  11.667 -0.0955 -0.1139  0.0753
 3676W        W19570  13.703   7.328  15.480  0.3440 -0.2051  0.0031
 3677W        W19571  18.288  18.515   3.598  0.1108  0.1530  0.0649
 3678W        W19572   4.424  17.346  12.925  0.1551  0.2540 -0.0931
 3679W        W19573  16.926  12.641  15.107 -0.3752  0.1158 -0.0623
 3680W        W19574   5.071   4.334  12.470  0.0878  0.1094 -0.5349
 3681W        W19575   5.831   0.319  11.542 -0.0800 -0.1208 -0.0641
 3682W        W19576   3.998  12.106   3.227  0.1540  0.1116 -0.4045
 3683W        W19577   8.712  12.113   5.615 -0.2792  0.0084 -0.1874
 3684W        W19578   3.149  14.752  14.432  0.0606  0.1543  0.0844
 3685W        W19579   7.237  13.547   0.871 -0.0269  0.0835  0.1004
 3686W        W19580   5.249  15.663   5.842 -0.1651 -0.1180 -0.1222
 3687W        W19581   7.290  15.628  14.728 -0.2507  0.0459 -0.3506
 3688W        W19582   4.527   4.703  10.302 -0.0505 -0.3363 -0.3049
 3689W        W19583   8.026   0.272  14.475  0.0890  0.0024 -0.2857
 3690W        W19584   2.353   5.351  13.367  0.4147 -0.1140 -0.2897
 3691W        W19585   8.867   1.402  12.601  0.0454  0.1027  0.1798
 3692W        W19586   5.337   4.444  14.615 -0.0843  0.0345  0.0892
 3693W        W19587  16.183   4.249   1.863  0.0145  0.1922  0.0868
 3694W        W19588  10.883  11.168  15.340  0.1148  0.2396 -0.1907
 3695W        W19589  12.150   5.207   1.429 -0.1295  0.0613 -0.4528
 3696W        W19590   9.611   5.311   1.059 -0.0025  0.2084 -0.0050
 3697W        W19591  10.154  16.870  11.807  0.3495 -0.0616  0.0098
 3698W        W19592  11.485   4.692   0.818 -0.0720  0.4634 -0.0930
 3699W        W19593   7.662  16.066  11.250 -0.1579  0.0670 -0.0619
 3700W        W19594  13.773  17.761   0.950  0.0356  0.0582 -0.1457
 3701W        W19595   3.313  10.218  13.960 -0.1396  0.1290 -0.0832
 3702W        W19596  16.999  15.342  13.429  0.0543  0.1104 -0.0974
 3703W        W19597  15.208  18.075   1.028 -0.1376  0.1597 -0.0005
 3704W        W19598  12.896   5.956   1.346  0.0205  0.1312  0.4370
 3705W        W19599  12.069  10.119   1.328  0.3815 -0.2620 -0.4621
 3706W        W19600  11.970   7.655   1.897  0.1929 -0.0814 -0.3417
 3707W        W19601  16.600  18.563  15.540  0.1719 -0.2662  0.3516
 3708W        W19602  14.175  10.947   3.593 -0.1475  0.3566 -0.0806
 3709W        W19603   5.754   7.701   9.406  0.3652 -0.2947  0.2058
 3710W        W19604  13.427  11.541  10.956 -0.0099 -0.5538  0.0663
 3711W        W19605   7.018  17.138   4.237  0.0340 -0.1459  0.0711
 3712W        W19606  11.198   3.869  12.196 -0.0323  0.1073 -0.2337
 3713W        W19607  18.310   7.281   2.968  0.0437 -0.0318  0.1294
 3714W        W19608   2.694   5.176  11.538  0.0379  0.0249  0.2360
 3715W        W19609  17.133   7.760   0.333 -0.1380  0.1666  0.0353
 3716W        W19610   7.701   8.444   3.003  0.1315  0.0268 -0.1587
 3717W        W19611  17.968  12.198  12.151  0.1076 -0.2042 -0.2530
 3718W        W19612   4.663   9.955   1.980 -0.0369 -0.2211 -0.1793
 3719W        W19613   3.566  16.024  11.744  0.2013  0.2613 -0.3318
 3720W        W19614  18.222  13.011   1.885  0.3702  0.0323  0.1640
 3721W        W19615  14.992  10.179  14.307 -0.1128 -0.0602 -0.1318
 3722W        W19616   7.738  12.331   2.422  0.0849  0.3294 -0.2004
 3723W        W19617  18.130   6.397  11.078 -0.1301  0.0655 -0.2254
 3724W        W19618  15.091  18.287   3.231  0.4139 -0.0330 -0.2326
 3725W        W19619   5.588  13.744  13.499  0.1319  0.0072 -0.1491
 3726W        W19620  14.062   3.642   4.576  0.0975  0.1147  0.0075
 3727W        W19621   6.982   3.212   1.808  0.0081  0.1673 -0.0325
 3728W        W19622   9.906  18.191   2.857  0.0169  0.2876 -0.0075
 3729W        W19623   1.701  16.359   5.707  0.4329  0.3910 -0.2564
 3730W        W19624   0.887  17.982   4.496 -0.0032 -0.2292  0.0467
 3731W        W19625   9.690   2.230   5.213  0.1635  0.1853  0.4183
 3732W        W19626  17.140   2.007  12.070  0.0493 -0.0123  0.3110
 3733W        W19627   1.128   1.489  11.986  0.2586  0.1051  0.3004
 3734W        W19628  16.193  14.284   0.154 -0.1969 -0.0896  0.0952
 3735W        W19629  16.574   8.153   5.581  0.0511  0.2988 -0.0367
 3736W        W19630   8.932  15.593   0.185  0.0742 -0.0445  0.0205
 3737W        W19631  12.623   3.158  13.030 -0.0932 -0.2014 -0.0483
 3738W        W19632   0.528  11.944   0.923 -0.2200 -0.0857 -0.4493
 3739W        W19633   6.342  12.011  15.235  0.0209 -0.1031 -0.1461
 3740W        W19634   2.320   8.632   2.384 -0.0964  0.4560 -0.2462
 3741W        W19635   6.865   2.632  10.909 -0.0497 -0.3818 -0.1825
 3742W        W19636   4.818   7.700   3.587  0.0746  0.3525  0.0465
 3743W        W19637   5.154  10.945  11.658 -0.0220  0.1478 -0.0251
 3744W        W19638  18.188   6.681   1.776 -0.4572 -0.2440 -0.2054
 3745W        W19639   3.442  11.770   3.798  0.0961 -0.0898 -0.3453
 3746W        W19640  18.097  10.922  13.124 -0.3736 -0.2442 -0.1754
 3747W        W19641  12.848  10.550  12.910  0.1630  0.2990  0.0034
 3748W        W19642   0.213   5.157   1.044  0.1215  0.0262 -0.2475
 3749W        W19643   7.292  14.614  12.760 -0.0848  0.1451  0.2926
 3750W        W19644   1.936  10.903   0.559  0.3653  0.1374  0.2087
 3751W        W19645   1.608   3.890  13.957 -0.2144 -0.0497  0.1572
 3752W        W19646  15.039  18.210  14.152  0.0607  0.1106  0.1750
 3753W        W19647   0.177  16.795   0.434  0.0199  0.3734  0.2785
 3754W        W19648   1.440   1.607  12.830  0.1373 -0.0134  0.0239
 3755W        W19649  15.977   7.595   4.527  0.1158 -0.3123  0.0372
 3756W        W19650  15.346   8.971  13.441  0.1662 -0.0119  0.2098
 3757W        W19651  11.958   9.089   3.676 -0.0237  0.1768 -0.0934
 3758W        W19652  18.766   5.858   4.005  0.0956  0.1014  0.0074
 3759W        W19653  10.764  15.540   4.200 -0.0889 -0.4319  0.0816
 3760W        W19654   2.390   0.474   1.042 -0.0391 -0.0118  0.3023
 3761W        W19655   7.278  13.192  14.261 -0.2305  0.0938 -0.0853
 3762W        W19656  13.018  15.477   4.434  0.1512  0.1432 -0.2197
 3763W        W19657  15.426   8.338   1.921 -0.1828 -0.1133 -0.1366
 3764W        W19658  12.072  10.571   4.641 -0.1298 -0.3341 -0.1307
 3765W        W19659  10.533  16.628   0.307 -0.0436  0.0639 -0.0953
 3766W        W19660  18.451   6.887   2.136 -0.0581  0.2577 -0.1179
 3767W        W19661   9.608  17.118   4.418 -0.1458 -0.2302 -0.0564
 3768W        W19662  15.942  13.878   4.735  0.1369 -0.0940  0.0620
 3769W        W19663   6.143   5.871  15.588 -0.1556 -0.1505 -0.0605
 3770W        W19664  17.243   2.292  10.973  0.1887  0.0559 -0.4440
 3771W        W19665  11.947  15.155   2.868  0.0872  0.0661 -0.0898
 3772W        W19666  11.774  16.815  12.543 -0.2316  0.6017 -0.1152
 3773W        W19667   5.858   1.260   2.387  0.0653  0.1697 -0.0458
 3774W        W19668  13.030  16.686   3.206  0.1002 -0.1566 -0.2344
 3775W        W19669  15.665  11.788  12.190  0.1360  0.0858  0.1770
 3776W        W19670   4.881   1.896  14.584 -0.0008  0.0171  0.0431
 3777W        W19671  14.068  15.666  13.687 -0.0960  0.0500 -0.2804
 3778W        W19672   5.303   1.819   0.904 -0.0446 -0.3297 -0.1800
 3779W        W19673   8.047   0.225  12.261 -0.1993 -0.1304  0.0630
 3780W        W19674  11.023  15.501   4.782  0.2682  0.0914  0.1687
 3781W        W19675  16.557   6.858   4.055  0.3449  0.0432 -0.2412
 3782W        W19676   8.385   8.249  13.545  0.2309  0.3365  0.1725
 3783W        W19677   3.504  10.463   1.664  0.1886  0.1476 -0.2620
 3784W        W19678  11.128   3.614  11.011 -0.1140 -0.1459 -0.0591
 3785W        W19679  18.681  17.314   1.244  0.1069 -0.1348  0.4277
 3786W        W19680   4.924  13.410   0.433  0.0080  0.0241  0.1485
 3787W        W19681   7.493   0.779   4.702  0.2345 -0.2476 -0.0398
 3788W        W19682   9.096  10.457   3.305  0.2542 -0.1969 -0.0830
 3789W        W19683   7.709   3.321  10.821  0.0325 -0.3450  0.3291
 3790W        W19684   1.382   3.870  11.809 -0.1778  0.1830 -0.0101
 3791W        W19685  10.349  17.238   4.877 -0.0823 -0.0758 -0.2415
 3792W        W19686  14.435  15.580   4.263 -0.0958  0.1017 -0.2473
 3793W        W19687   9.354   5.681  15.279  0.0991 -0.0939  0.2188
 3794W        W19688  12.632  15.802   4.517 -0.0428 -0.1352  0.1288
 3795W        W19689   4.826  17.675   2.513 -0.0436 -0.0066  0.0067
 3796W        W19690  16.978  18.691   0.281  0.5067 -0.2628  0.0556
 3797W        W19691  13.482   1.198   4.167  0.0846  0.0948 -0.0208
 3798W        W19692   7.586   1.248   3.908 -0.0713 -0.3038 -0.1843
 3799W        W19693   6.085   9.732   1.915 -0.3074  0.0507  0.0964
 3800W        W19694  17.366   6.528  13.568  0.3387  0.1619 -0.0617
 3801W        W19695  10.496   9.966   5.239  0.0716 -0.0937 -0.0210
 3802W        W19696  17.217   9.207   4.925 -0.1615 -0.1903  0.0100
 3803W        W19697  17.010   1.018  14.034  0.2163 -0.1739 -0.1303
 3804W        W19698  11.168   1.492  15.032  0.0894 -0.1884  0.0493
 3805W        W19699  12.214  14.830  10.814  0.0960  0.2607  0.1365
 3806W        W19700  12.740   0.949   1.652  0.1656 -0.0116 -0.0410
 3807W        W19701  17.534  18.063   5.186  0.0123 -0.2933  0.2344
 3808W        W19702   4.445  11.073  14.874 -0.1599  0.2290  0.0618
 3809W        W19703  14.829  11.435   4.747  0.1248 -0.0061  0.1828
 3810W        W19704   7.001  14.436   0.886 -0.2137  0.0366  0.0577
 3811W        W19705   4.376   1.703   1.252 -0.1920 -0.2252  0.0369
 3812W        W19706  16.813   2.614   3.817 -0.1399 -0.2365 -0.0607
 3813W        W19707   9.353   9.946  12.321 -0.2301 -0.1262 -0.0606
 3814W        W19708  16.231   9.899  11.170 -0.3900  0.1084  0.0048
 3815W        W19709  11.830  14.344   4.197 -0.2140  0.1071  0.0455
 3816W        W19710   4.333   3.162  10.114  0.0038 -0.2031  0.0547
 3817W        W19711   7.401   4.646  14.527  0.3718  0.2911  0.1261
 3818W        W19712  16.567   8.543  11.462  0.2237  0.1070  0.0736
 3819W        W19713   8.886   4.573   4.760  0.2660  0.0829 -0.0800
 3820W        W19714  18.645  11.441   3.847  0.0313 -0.0603 -0.1008
 3821W        W19715   7.072  16.644   4.554 -0.1736  0.2282 -0.1455
 3822W        W19716   5.215  10.294  11.202 -0.0005  0.1007 -0.1321
 3823W        W19717   0.050  18.705   4.524 -0.1052 -0.0890 -0.0165
 3824W        W19718  18.017   3.519  11.821 -0.2487 -0.1406  0.2773
 3825W        W19719  12.536   2.493   1.145  0.0651  0.1601 -0.0832
 3826W        W19720   3.177  15.969   4.311 -0.0041 -0.0116 -0.0144
 3827W        W19721  17.510  10.902  14.823 -0.3607 -0.2139 -0.1958
 3828W        W19722   8.918  10.472   4.626  0.1893  0.0399  0.4524
 3829W        W19723  10.813  12.538   3.315 -0.0941 -0.0364 -0.0309
 3830W        W19724   8.880   7.601   0.155  0.1999 -0.0343 -0.1872
 3831W        W19725   3.715  11.319  11.256  0.0857  0.3489 -0.0934
 3832W        W19726   8.820   8.331  13.269 -0.2022 -0.0029  0.3906
 3833W        W19727   8.266  10.587   9.729 -0.0573 -0.4506 -0.3230
 3834W        W19728  10.668  14.567   3.768 -0.0150  0.3143  0.1400
 3835W        W19729   0.942  10.713   4.531  0.1713  0.0339 -0.4127
 3836W        W19730   6.903  17.471  10.502 -0.1848 -0.0673 -0.0275
 3837W        W19731   9.754   4.376   5.776  0.0193  0.1544 -0.3794
 3838W        W19732  10.819  16.206  11.374  0.0339 -0.0725  0.1257
 3839W        W19733  13.449   4.833  13.340  0.1096 -0.2934 -0.1245
 3840W        W19734  17.465  13.870   5.629 -0.3102 -0.2697 -0.1542
 3841W        W19735   7.868  16.398   1.160  0.0922  0.3116 -0.0310
 3842W        W19736  14.251  13.372   3.356 -0.1194  0.2204 -0.2361
 3843W        W19737  13.548  18.031   4.334  0.6671 -0.0826  0.1352
 3844W        W19738  16.998   6.413  13.929 -0.0993 -0.3962 -0.0798
 3845W        W19739   5.806   3.501  12.930 -0.0717  0.2760  0.3606
 3846W        W19740  13.317   5.986   0.982  0.3507  0.2322 -0.0286
 3847W        W19741  10.739  13.992   1.612  0.0597  0.0631  0.0833
 3848W        W19742   6.076  14.167   3.569 -0.3041 -0.2321 -0.1956
 3849W        W19743   1.254   2.683   1.864 -0.0144  0.0275  0.1954
 3850W        W19744   1.063  15.996  14.148 -0.3301  0.0407 -0.2101
 3851W        W19745  15.272   9.374   0.960 -0.0044 -0.1809 -0.1564
 3852W        W19746   8.219  15.449   1.574 -0.1310 -0.0985  0.3315
 3853W        W19747   4.385   0.016   4.145 -0.2777  0.0662  0.2645
 3854W        W19748  15.031   0.332  14.191  0.1788 -0.1818 -0.0018
 3855W        W19749   1.466   5.851  14.920  0.1940  0.0809  0.0824
 3856W        W19750   6.608  14.098  15.153  0.0680 -0.0857 -0.0691
 3857W        W19751  18.722   1.629  14.437 -0.0380  0.0816  0.0649
 3858W        W19752  10.217   1.272   0.572  0.1735  0.1119 -0.2168
 3859W        W19753   4.364  18.039  14.141  0.3383  0.1987  0.0331
 3860W        W19754   9.231  12.519  14.269 -0.3803  0.0289 -0.0379
 3861W        W19755   6.445  11.628   2.277 -0.1016 -0.1959 -0.2595
 3862W        W19756  15.402  12.491  12.038 -0.0562  0.0694  0.3772
 3863W        W19757   2.298   8.923  12.173  0.0898  0.2090  0.0252
 3864W        W19758   5.855   3.960  13.652 -0.0219 -0.3704  0.2713
 3865W        W19759   6.893   9.347   9.784 -0.1155 -0.2486  0.3063
 3866W        W19760  15.754  10.346   1.822  0.1756  0.0245  0.1312
 3867W        W19761  17.802  17.284   1.447  0.1710  0.0306 -0.2289
 3868W        W19762   1.150   7.690   0.559 -0.1514 -0.2248 -0.0292
 3869W        W19763  13.086  13.942  14.878  0.3573 -0.3044 -0.0844
 3870W        W19764   9.351   4.681  11.202  0.0695  0.1390 -0.0732
 3871W        W19765  11.715   0.911   1.994  0.0366  0.0436 -0.5067
 3872W        W19766   8.934   9.127  13.365 -0.2363  0.4978  0.0278
 3873W        W19767  14.012  13.343  14.571  0.0500 -0.0178 -0.0074
 3874W        W19768  13.556  12.562  12.656  0.1791 -0.0640  0.2690
 3875W        W19769   1.679  12.801   4.171 -0.0312  0.1076  0.0234
 3876W        W19770   6.472   5.259  12.572 -0.1202  0.0244 -0.1564
 3877W        W19771  15.368  13.422  13.262  0.1414 -0.2709 -0.1113
 3878W        W19772  12.298  10.200  14.017  0.1893  0.1213  0.2972
 3879W        W19773  14.202   3.038   5.847 -0.1622 -0.0828  0.0516
 3880W        W19774  15.163  15.547  15.145 -0.0795  0.0483 -0.0255
 3881W        W19775  15.811  18.739  12.822  0.0541 -0.4061  0.0712
 3882W        W19776   3.515  11.012  15.429 -0.0928  0.2917 -0.1618
 3883W        W19777   8.224  15.308  12.867  0.1895 -0.1019 -0.1557
 3884W        W19778  18.183  14.812  12.660  0.3431 -0.2919  0.2010
 3885W        W19779   8.223  11.976  11.690 -0.1519  0.1966  0.0313
 3886W        W19780  10.958  14.363  15.245 -0.0049  0.0071  0.1599
 3887W        W19781   6.552  15.976   5.143  0.2856  0.1182  0.0873
 3888W        W19782   6.995   7.323   3.348 -0.0521  0.0127  0.1877
 3889W        W19783  12.562   8.350  14.098  0.0836  0.0739  0.1195
 3890W        W19784  11.400   2.755  10.977  0.1135 -0.1669 -0.0694
 3891W        W19785   6.047   7.668   0.753 -0.0515  0.2360 -0.2702
 3892W        W19786  11.834  18.617   4.089  0.1968 -0.0699  0.0068
 3893W        W19787   4.930  10.225  15.177 -0.0858 -0.0639  0.0639
 3894W        W19788   4.270  15.801  11.758 -0.0435  0.1691  0.0468
 3895W        W19789  17.370   7.528   2.031  0.4874 -0.1589  0.3431
 3896W        W19790   4.331   9.505  13.237  0.1320 -0.2113 -0.0201
 3897W        W19791   6.163  16.437  14.577 -0.2383 -0.1582  0.1286
 3898W        W19792   6.636  10.341  14.309  0.1757 -0.0887 -0.1086
 3899W        W19793   6.141   4.668   4.124 -0.0102  0.2507  0.1833
 3900W        W19794  10.105   1.091  12.912 -0.0091  0.1964  0.1988
 3901W        W19795   6.529   6.157   1.870  0.3482  0.1356  0.0298
 3902W        W19796   9.408   9.014  11.947  0.0665 -0.4007  0.2440
 3903W        W19797   6.251  17.100   1.556  0.0180 -0.2072 -0.1139
 3904W        W19798  17.781   3.456  11.102  0.0606 -0.1942 -0.0886
 3905W        W19799   8.063  17.703   5.335 -0.1642 -0.2323  0.3410
 3906W        W19800  10.834   3.610  12.904  0.0260  0.1703 -0.2909
 3907W        W19801  15.355  17.801   0.621  0.0498 -0.0875 -0.2553
 3908W        W19802   9.285   5.242   2.847  0.2697 -0.0363  0.4113
 3909W        W19803   4.509   5.228  15.346 -0.3367 -0.0009  0.0594
 3910W        W19804  12.175  15.392   0.243 -0.0873  0.4937  0.0719
 3911W        W19805  14.119   8.366  13.194 -0.0294  0.0068  0.1047
 3912W        W19806  14.271   6.564   5.338 -0.0603 -0.0282 -0.1706
 3913W        W19807  17.810   8.282  13.244 -0.0451  0.1144  0.0062
 3914W        W19808  10.778  12.945  10.833 -0.0381  0.1821 -0.1005
 3915W        W19809  13.704   6.440  13.753 -0.2210 -0.2157  0.2129
 3916W        W19810   7.244  17.069   3.819 -0.1440 -0.0597 -0.1718
 3917W        W19811  15.472  18.492   4.180  0.1029  0.2214 -0.0840
 3918W        W19812   5.454  12.196  12.319  0.1464  0.2021  0.1259
 3919W        W19813   3.328   1.887  12.090  0.0744 -0.1902 -0.1492
 3920W        W19814   4.680   0.545  12.073  0.0023  0.1528 -0.2245
 3921W        W19815  14.944  18.163  11.096 -0.2006 -0.0149 -0.3134
 3922W        W19816   2.076   3.046  14.625 -0.1407 -0.1480 -0.2880
 3923W        W19817   3.004  16.604  12.055  0.0392  0.2419 -0.2162
 3924W        W19818   6.574   4.586   0.659 -0.2095 -0.1671 -0.1054
 3925W        W19819   1.043   7.127   5.577  0.0903 -0.2396 -0.1954
 3926W        W19820  17.384  17.790   0.055  0.0096 -0.4459 -0.1655
 3927W        W19821  17.211   5.799   0.793 -0.2913  0.1015 -0.0321
 3928W        W19822   2.915  12.766  14.696 -0.1380 -0.0965 -0.2106
 3929W        W19823  11.884  17.306  12.192 -0.0938 -0.1566 -0.0839
 3930W        W19824   4.638   3.713   3.973 -0.1211 -0.1211  0.2158
 3931W        W19825   1.771   6.309   1.334 -0.1407 -0.0028 -0.1352
 3932W        W19826  12.999   3.462  13.204  0.2686  0.1095  0.2231
 3933W        W19827   9.288   0.115  15.572  0.1208 -0.0908  0.1109
 3934W        W19828  16.179   2.853  12.355  0.1796  0.2809  0.1703
 3935W        W19829  18.668   1.585   0.623 -0.1155 -0.1266 -0.2387
 3936W        W19830   9.731   3.436  13.101  0.4486  0.0589  0.1511
 3937W        W19831   9.357   1.260  11.084 -0.2349 -0.0252  0.1938
 3938W        W19832   2.827   7.912   1.814 -0.0179  0.0822 -0.1208
 3939W        W19833  17.064  16.478  14.396  0.3036 -0.0857  0.1668
 3940W        W19834  12.743   3.406   3.562 -0.1125  0.0100  0.0126
 3941W        W19835  15.974  17.948  14.339 -0.2614  0.0796  0.0556
 3942W        W19836   6.480   5.190  11.155  0.1700 -0.0109 -0.0366
 3943W        W19837  13.046   3.891   5.801 -0.0395  0.0434 -0.0669
 3944W        W19838  11.262  18.084   4.672  0.0172  0.0433 -0.1411
 3945W        W19839   4.475  18.307  13.285 -0.2015 -0.4496  0.1133
 3946W        W19840   9.719   4.626   3.265  0.1733 -0.0693  0.4509
 3947W        W19841   1.402  16.141  15.526 -0.0105  0.2986 -0.1233
 3948W        W19842   8.282   1.875   1.439  0.1724 -0.0164  0.3962
 3949W        W19843  15.290   8.899   0.837  0.0531 -0.0946 -0.1682
 3950W        W19844   9.855  16.304  15.098 -0.1399  0.2136  0.2965
 3951W        W19845  11.752  11.038   1.583  0.0049 -0.0687  0.1605
 3952W        W19846  15.349   0.673   2.869  0.0274 -0.0260 -0.1968
 3953W        W19847  15.009   7.731   1.446  0.0332 -0.0803  0.1236
 3954W        W19848   1.057   1.625   0.376  0.2000 -0.1568 -0.0685
 3955W        W19849  16.192   7.901   0.668  0.0012  0.1872 -0.3090
 3956W        W19850   8.155   5.800   1.460  0.2326 -0.1017 -0.1807
 3957W        W19851  18.023   1.683  11.056 -0.3029  0.1554  0.2756
 3958W        W19852  14.027  17.930   2.701  0.3865  0.0324 -0.0413
 3959W        W19853  18.114  15.774   5.275  0.0752  0.0652 -0.1117
 3960W        W19854   4.115   3.159  10.892 -0.0229 -0.2533  0.0595
 3961W        W19855  17.814  16.289   2.949  0.1561 -0.2982 -0.1832
 3962W        W19856   3.385   8.568  15.436  0.1271  0.2388 -0.1540
 3963W        W19857  17.362  10.368   2.286 -0.0699  0.1536 -0.0870
 3964W        W19858   9.740   9.506   3.501 -0.0683  0.2328 -0.0299
 3965W        W19859  12.068   6.827   1.048 -0.1989 -0.0374 -0.2471
 3966W        W19860  17.668   7.795   2.496  0.3101 -0.0332  0.0181
 3967W        W19861  14.408  14.096  15.076  0.1388 -0.0894 -0.0212
 3968W        W19862   9.042  14.854   2.332  0.0718 -0.0050 -0.0490
 3969W        W19863   7.718  11.427  12.275  0.0459  0.1474 -0.1396
 3970W        W19864  15.623   5.415   3.380 -0.3695 -0.0374  0.0335
 3971W        W19865  15.029  11.506  14.469 -0.0324 -0.2368  0.1803
 3972W        W19866   5.304   3.496  11.560  0.1501  0.0508 -0.1757
 3973W        W19867  13.089  13.102   5.588  0.1268 -0.1663  0.0734
 3974W        W19868  14.244  13.770   2.136 -0.2215 -0.0178 -0.1590
 3975W        W19869   3.970   4.082   9.862 -0.0434 -0.4111  0.0162
 3976W        W19870  11.364  16.615   4.572 -0.0181  0.0755  0.3170
 3977W        W19871   7.036   9.099   3.038  0.2922 -0.1054 -0.1469
 3978W        W19872   2.235   6.680  13.113  0.0389  0.1207  0.1835
 3979W        W19873   2.628   6.251   1.538 -0.0873  0.2099  0.2135
 3980W        W19874   4.823  11.525   2.888 -0.1244 -0.0865 -0.0321
 3981W        W19875   2.016   2.445  11.113 -0.0466 -0.2107 -0.0748
 3982W        W19876  10.095  12.536  11.401 -0.3325 -0.2671  0.1564
 3983W        W19877   7.896  17.486   1.518  0.2327 -0.0377  0.2149
 3984W        W19878  10.833   3.406   1.489  0.0915  0.1991 -0.0780
 3985W        W19879   6.618   2.213  15.569  0.2256 -0.5531 -0.0126
 3986W        W19880  10.237   1.294   3.101  0.0460 -0.1544  0.0130
 3987W        W19881   6.205   8.226   2.009 -0.0891  0.0743  0.2586
 3988W        W19882  13.515  18.646   0.792  0.0834  0.1107 -0.1066
 3989W        W19883  11.703  17.837   2.015  0.1187  0.1992 -0.2458
 3990W        W19884  14.782   8.334  13.007  0.5100  0.1264 -0.3570
 3991W        W19885   6.215   3.335   3.620 -0.2764  0.1471  0.0583
 3992W        W19886  14.914  14.277   4.880 -0.0761 -0.0192  0.0965
 3993W        W19887  16.648   3.542  13.982 -0.0098  0.0012  0.0596
 3994W        W19888   2.427   3.505   0.794 -0.1750 -0.0347 -0.0225
 3995W        W19889   7.789  16.482  13.354 -0.3594  0.2382 -0.0575
 3996W        W19890  16.082   2.538  10.942  0.4085 -0.0502 -0.1443
 3997W        W19891  18.655   9.404  11.906 -0.0359  0.0434 -0.1171
 3998W        W19892  10.755  13.852  11.748 -0.1140 -0.1583 -0.0156
 3999W        W19893   9.720   8.815   0.861  0.2618 -0.1583  0.3020
 4000W        W19894  12.968   1.415   4.229 -0.2180  0.1244  0.0844
 4001W        W19895   8.412   8.697   1.914  0.0824  0.3177 -0.1095
 4002W        W19896  14.371   7.761   5.950  0.2835  0.2028 -0.2419
 4003W        W19897  13.450  15.478  11.718  0.0470 -0.0689 -0.1597
 4004W        W19898   6.267   7.014   1.409  0.4419  0.0934 -0.3107
 4005W        W19899   0.643  18.436   0.312  0.1209 -0.0969 -0.0752
 4006W        W19900   3.618   9.018  11.966  0.0389 -0.2620  0.3204
 4007W        W19901  16.799   9.720  12.181 -0.0305  0.3469 -0.0695
 4008W        W19902   6.978   0.594   2.261  0.0984  0.0651 -0.2367
 4009W        W19903   3.037  14.717  12.201  0.1136  0.1836 -0.0152
 4010W        W19904   3.670   3.302  12.916  0.1847  0.1007  0.1614
 4011W        W19905   4.627  17.954  12.247  0.1133  0.3779  0.0131
 4012W        W19906   6.781  11.836  14.244 -0.1333 -0.4047  0.1378
 4013W        W19907   6.388   6.822  15.373  0.1353  0.2553  0.1137
 4014W        W19908  17.258  12.780  11.612  0.1651 -0.3895  0.2793
 4015W        W19909   4.556   5.118   0.666 -0.0197  0.0136 -0.1958
 4016W        W19910  12.626   8.590  15.093  0.1614 -0.1986  0.2133
 4017W        W19911   7.805   4.099   2.924  0.0234 -0.2404 -0.2022
 4018W        W19912   7.141   1.370   3.735  0.0896 -0.0503  0.0280
 4019W        W19913  15.332   6.598  10.572 -0.2869  0.0832  0.2158
 4020W        W19914   0.090  18.611  10.066  0.2105 -0.0578  0.0319
 4021W        W19915  18.153   1.794   3.474 -0.1536  0.1318  0.0855
 4022W        W19916  15.185   8.344   5.087 -0.1917 -0.4244  0.4265
 4023W        W19917   4.242   8.397   3.326  0.1735 -0.1056 -0.2314
 4024W        W19918   3.494  14.158   0.832  0.0389  0.0735  0.1629
 4025W        W19919   2.503  10.327   0.121  0.1831 -0.0920  0.1723
 4026W        W19920  13.562  18.208  10.048 -0.1725  0.3050 -0.1352
 4027W        W19921  14.773  12.080   4.714  0.0610  0.0430 -0.1119
 4028W        W19922   4.845  14.186  14.423  0.1204 -0.0006 -0.1357
 4029W        W19923  11.071  17.775   9.763 -0.4101 -0.2336  0.0193
 4030W        W19924  14.093  11.743  14.792 -0.1909 -0.1763  0.1690
 4031W        W19925  12.423  15.383  14.963 -0.2180  0.3680  0.0072
 4032W        W19926  16.064   6.871   2.645  0.2344  0.0170  0.1230
 4033W        W19927   6.731   3.938  13.839  0.1284 -0.1513 -0.1683
 4034W        W19928   2.798  17.995   1.393  0.1391  0.1887  0.3992
 4035W        W19929   8.088   9.355  13.684 -0.2834  0.0479  0.2897
 4036W        W19930   0.368   4.543  12.179 -0.1353  0.1176  0.0154
 4037W        W19931   6.292   1.381  13.966  0.6756  0.1953 -0.1145
 4038W        W19932   4.977  15.943  11.911  0.0992  0.2994  0.0648
 4039W        W19933   0.831   0.119   1.173  0.0923 -0.1946  0.0836
 4040W        W19934  15.539   6.665   3.944  0.3320 -0.1571 -0.0974
 4041W        W19935  10.992  13.326  14.294 -0.0963  0.1854  0.0511
 4042W        W19936  14.179   6.152  15.355  0.0383  0.1510 -0.0372
 4043W        W19937  17.953   8.208   4.047 -0.0445 -0.1139  0.0440
 4044W        W19938   5.669   0.946  14.647 -0.0184  0.2517  0.0299
 4045W        W19939   5.034   5.411   4.186  0.2570 -0.0666  0.1889
 4046W        W19940  16.413  11.488   5.127 -0.1103  0.2960 -0.2011
 4047W        W19941  12.721  14.699   1.329  0.0436 -0.0884  0.1465
 4048W        W19942  12.441  17.003  13.005 -0.2249 -0.2166 -0.0867
 4049W        W19943   9.406   8.407   4.767 -0.2285 -0.3159 -0.0630
 4050W        W19944   3.688  18.182   0.999 -0.0606 -0.5846 -0.0922
 4051W        W19945   2.432   8.672   0.943 -0.1368  0.2495 -0.0226
 4052W        W19946  15.914  15.638   0.531 -0.1624  0.3236  0.2839
 4053W        W19947   6.974   8.606   0.666 -0.0044 -0.0336  0.3218
 4054W        W19948   7.698   5.821   3.942 -0.0532  0.1869 -0.2254
 4055W        W19949   5.953   3.788   3.691 -0.1207  0.0377  0.0839
 4056W        W19950   4.332   7.405  14.346  0.2178  0.1759  0.2282
 4057W        W19951   4.976  12.164  12.843  0.1792  0.0259  0.2325
 4058W        W19952  17.310   4.107  14.309 -0.0467  0.0178  0.3050
 4059W        W19953   3.638   9.440   3.882 -0.1725  0.0240 -0.3260
 4060W        W19954  14.396  11.819   2.497 -0.0695 -0.0485  0.0359
 4061W        W19955  15.997   8.490   0.207 -0.1045  0.2964 -0.1047
 4062W        W19956   2.562   2.568  12.893 -0.0437  0.1099  0.1989
 4063W        W19957   2.195   0.001  11.339 -0.2825 -0.0366  0.1638
 4064W        W19958   5.288   0.315  14.229  0.4347  0.0117 -0.2058
 4065W        W19959   9.243   6.831  10.719 -0.2342  0.1373  0.2627
 4066W        W19960   6.819  16.226   4.799  0.1038 -0.2540  0.2370
 4067W        W19961   0.454   7.649  11.957 -0.0155  0.1975 -0.0561
 4068W        W19962   4.475  10.268  15.497 -0.1999 -0.0395 -0.1835
 4069W        W19963  16.073   3.342  13.139  0.0262  0.0646  0.1271
 4070W        W19964   3.035  10.093  11.943 -0.0959  0.0673  0.0555
 4071W        W19965   6.572  15.937   3.870  0.1535 -0.0306  0.1818
 4072W        W19966   9.403   9.802   4.032 -0.5440 -0.1749 -0.0839
 4073W        W19967   0.429   3.827  13.791 -0.3915  0.1356 -0.2147
 4074W        W19968   0.771  15.761  13.015 -0.4139  0.4080  0.1797
 4075W        W19969  16.786   1.545   1.595 -0.0673  0.0626 -0.4458
 4076W        W19970   4.036   1.979  11.114  0.0108  0.1066  0.3601
 4077W        W19971   1.268  16.401   2.798 -0.0208 -0.0644 -0.1905
 4078W        W19972   4.112  10.022  15.148 -0.1883  0.0589  0.1869
 4079W        W19973  14.652  11.503   4.280  0.0576 -0.0516  0.2938
 4080W        W19974   9.244  17.139  13.386 -0.0577  0.2559 -0.2633
 4081W        W19975   6.799   4.205  11.934  0.2048  0.2008  0.2950
 4082W        W19976   8.375   5.277  13.565  0.0719  0.3178 -0.1687
 4083W        W19977   5.979   9.877   1.214  0.0576  0.2876  0.3194
 4084W        W19978  10.686   9.788   3.243 -0.2173 -0.3063  0.3429
 4085W        W19979  11.454  17.053  12.271  0.1778 -0.1777 -0.0064
 4086W        W19980   7.021  18.400  14.966  0.5054 -0.3404 -0.1498
 4087W        W19981   1.470  12.458  12.064  0.1034 -0.0324 -0.1921
 4088W        W19982   0.709  17.157  11.962  0.0083  0.0989 -0.3321
 4089W        W19983  11.344  18.764  12.386  0.1015  0.1111 -0.1736
 4090W        W19984  18.101  13.025  12.740 -0.3377  0.2291  0.0419
 4091W        W19985   6.274   8.591   0.173  0.0792  0.1103  0.0197
 4092W        W19986  12.154  11.943   2.984  0.0533  0.4342  0.2293
 4093W        W19987   9.106  12.511   1.264 -0.3403 -0.1548  0.1254
 4094W        W19988   8.421  11.872  15.281  0.0937 -0.1398 -0.0434
 4095W        W19989   1.133   4.610   1.254 -0.3099  0.2484  0.1956
 4096W        W19990  17.321   8.343  15.150 -0.2286 -0.0789 -0.1963
 4097W        W19991   9.571   2.332  11.876  0.2296  0.1466 -0.1802
 4098W        W19992   7.111   7.261   1.574 -0.1206  0.1737 -0.1227
 4099W        W19993   8.325   7.501   1.001  0.1815  0.0895 -0.0591
 4100W        W19994  10.354   1.225  11.113 -0.0912  0.1479  0.1006
 4101W        W19995  12.244  14.244   5.886  0.0125 -0.0348  0.1574
 4102W        W19996   7.498   1.306   4.691  0.0956 -0.1274 -0.1611
 4103W        W19997   2.878  12.557   0.124  0.0974 -0.3942  0.0625
 4104W        W19998   6.822  11.487   2.037 -0.1329  0.1627 -0.2056
 4105W        W19999   4.752  17.114  15.561  0.1091  0.0362  0.0730
 4106W        W20000  16.151  13.490  15.056 -0.1707 -0.0978  0.2461
 4107W        W20001   8.515  11.560  11.174 -0.2338 -0.1016 -0.2347
 4108W        W20002   2.064  18.474  13.920  0.0686  0.1468  0.1028
 4109W        W20003   5.211   5.819  10.702  0.0082  0.2287 -0.0926
 4110W        W20004   9.808   6.636  13.326  0.0705 -0.0434  0.1978
 4111W        W20005   1.467   8.475  13.107 -0.2131 -0.0108  0.3300
 4112W        W20006   1.948   7.421  15.159 -0.0300  0.0999  0.0911
 4113W        W20007  11.389  15.529   5.181 -0.0494  0.0066 -0.3039
 4114W        W20008   5.596  12.997  11.102  0.2082 -0.4829  0.2180
 4115W        W20009   5.611   8.191   9.665 -0.3846  0.1331  0.0104
 4116W        W20010   3.678  16.709   4.267  0.1827  0.0633 -0.4663
 4117W        W20011  17.999  17.396  14.733 -0.1498 -0.2536  0.0146
 4118W        W20012  12.886  12.535  13.087 -0.1016  0.0759  0.1350
 4119W        W20013   1.417  18.185   2.460 -0.0478  0.0230 -0.0329
 4120W        W20014  14.581   4.367  13.342 -0.2948  0.1323 -0.1236
 4121W        W20015  16.344  17.486   2.909  0.3235 -0.1449  0.0478
 4122W        W20016   4.039   2.978   2.107 -0.3410  0.0239 -0.1834
 4123W        W20017   8.911   0.452   1.307 -0.2482  0.0603  0.0650
 4124W        W20018  17.544  10.815   4.377 -0.1018 -0.0207  0.0624
 4125W        W20019  16.253   6.093   3.611  0.2423  0.1709  0.0021
 4126W        W20020   0.964   3.055  14.789  0.0217 -0.1934  0.0018
 4127W        W20021  17.077   8.969  14.091  0.1088  0.1102 -0.1758
 4128W        W20022  11.343   6.988   0.330  0.2556  0.1579  0.0595
 4129W        W20023   3.066   4.244  13.086  0.1459  0.2730 -0.3405
 4130W        W20024   2.321  11.276   2.534 -0.0629 -0.1912  0.2593
 4131W        W20025  18.743   7.311   1.822 -0.3248  0.1959  0.1388
 4132W        W20026   2.037   0.050  10.224 -0.0175 -0.0856 -0.2043
 4133W        W20027   9.260  13.458  14.430  0.2669  0.2494  0.1438
 4134W        W20028  13.304   7.004   0.782 -0.1350 -0.2222  0.0508
 4135W        W20029  16.605  12.915   2.395 -0.1093 -0.0634 -0.1199
 4136W        W20030  10.050   8.642  15.145  0.3343 -0.2898 -0.0120
 4137W        W20031  11.910   8.476  13.602  0.0959 -0.0287  0.0749
 4138W        W20032   8.132  15.572   9.913  0.1857  0.1828  0.0829
 4139W        W20033   4.151  15.082   5.427  0.1109 -0.1781 -0.2505
 4140W        W20034  15.965   5.348  15.162 -0.1159  0.0119  0.0597
 4141W        W20035  12.911  14.565   1.837  0.1234 -0.1395  0.5082
 4142W        W20036  10.020  11.854  10.978  0.5398  0.2255  0.3023
 4143W        W20037  11.408   8.482   4.655 -0.0973  0.1582  0.1845
 4144W        W20038  10.374  16.337   4.797  0.2348  0.0945  0.0511
 4145W        W20039  10.323   0.709   0.455  0.0347 -0.3221  0.1572
 4146W        W20040  17.527   8.279   5.138  0.0257  0.0550  0.1529
 4147W        W20041   0.097   6.001   4.867 -0.1972 -0.1135 -0.1492
 4148W        W20042  15.167  15.339   1.658 -0.3794  0.0859  0.3365
 4149W        W20043   2.637   1.303  15.525 -0.0240  0.0623 -0.2852
 4150W        W20044   9.253  16.388   0.462  0.0524  0.0947  0.1066
 4151W        W20045  11.925  12.716   4.030  0.2118  0.1137 -0.1344
 4152W        W20046   7.324  12.793  11.473 -0.0772  0.1688 -0.3789
 4153W        W20047   3.507  11.910  10.539 -0.0152  0.0115  0.1345
 4154W        W20048   9.543   2.933   0.920  0.1157 -0.0289 -0.1911
 4155W        W20049  14.437   5.347   4.475  0.3982  0.0487  0.0888
 4156W        W20050   0.883   4.151   0.341 -0.2758  0.2070  0.0181
 4157W        W20051   7.417  12.322  12.860 -0.0336 -0.1825  0.3663
 4158W        W20052   0.504   2.495   4.931  0.2136  0.1405  0.3672
 4159W        W20053  11.378  17.032  14.976  0.2364 -0.0123 -0.0334
 4160W        W20054   9.338  17.427  13.838  0.2974  0.0733  0.0603
 4161W        W20055  10.874   9.794  15.071  0.1220 -0.0770 -0.2201
 4162W        W20056  10.059  15.072  11.136  0.3791 -0.0046  0.0662
 4163W        W20057  18.364   7.438   3.760  0.1732 -0.5396 -0.1339
 4164W        W20058   3.342  13.301   1.394  0.1417 -0.0018 -0.5633
 4165W        W20059   4.111   3.701   3.275 -0.2902  0.0810 -0.0904
 4166W        W20060  10.563   5.519  14.793  0.0030  0.1239 -0.0794
 4167W        W20061   0.247  17.706   1.694  0.2885  0.1495  0.1626
 4168W        W20062   3.835  13.845   4.032 -0.0511  0.1877  0.2666
 4169W        W20063   7.702   8.615   3.970  0.0576 -0.1955 -0.0165
 4170W        W20064   2.285  14.440   2.817  0.0640  0.0441  0.1998
 4171W        W20065  14.604   5.331   0.614 -0.1224  0.0188  0.0031
 4172W        W20066   4.023   5.512  14.201 -0.0243  0.1565  0.1607
 4173W        W20067   0.998   3.209  12.691  0.1141  0.0919  0.1285
 4174W        W20068  12.529   5.700   2.173  0.0475  0.1711  0.1601
 4175W        W20069   6.384  17.813  12.826  0.1299 -0.1239  0.2136
 4176W        W20070   6.280   8.501  10.302 -0.0107  0.1205 -0.0119
 4177W        W20071  16.215  18.013   1.994  0.1278 -0.0342 -0.1178
 4178W        W20072  13.576  12.051  12.834  0.1711 -0.3587  0.2683
 4179W        W20073  18.766  13.512   1.529 -0.0214 -0.2352 -0.2617
 4180W        W20074   7.449  12.761   2.702  0.0047 -0.1325  0.2341
 4181W        W20075   3.767  18.705   3.562  0.4205  0.1714  0.1911
 4182W        W20076   3.199   1.752   2.153  0.1035  0.1102 -0.0013
 4183W        W20077  14.816  17.933   1.928  0.2215  0.2094  0.2082
 4184W        W20078   6.439   2.441  14.061 -0.3524 -0.0118 -0.0414
 4185W        W20079   4.323  10.004   2.930 -0.2511 -0.0985 -0.2842
 4186W        W20080  12.529  13.727  14.506 -0.1002  0.2108  0.1175
 4187W        W20081   5.514  14.594   1.070 -0.0450 -0.2133 -0.0413
 4188W        W20082  17.921  17.826  14.969  0.2048  0.1375 -0.0437
 4189W        W20083  18.612   4.938   4.436 -0.2372  0.1695 -0.3577
 4190W        W20084  15.959   0.033  11.478 -0.1185  0.1826  0.3215
 4191W        W20085  13.659   4.033  12.790  0.0580 -0.2159 -0.2218
 4192W        W20086  13.505   1.446  14.960  0.1228 -0.3413 -0.0756
 4193W        W20087  18.491   9.616  13.188  0.0051  0.2469  0.1141
 4194W        W20088   2.768  17.374   3.091  0.0946 -0.0106  0.1644
 4195W        W20089  18.139   5.426   0.519 -0.1151  0.1064  0.0512
 4196W        W20090   3.857  17.281   4.034 -0.1595  0.0558 -0.1622
 4197W        W20091   2.454  16.258  15.617  0.0708 -0.0906 -0.0528
 4198W        W20092  16.943   6.144   1.067  0.2665  0.1615 -0.0618
 4199W        W20093   3.183   0.947  14.903  0.1053  0.1138 -0.1494
 4200W        W20094  16.956   5.735  12.479  0.0454 -0.1343  0.0740
 4201W        W20095  18.367  16.786   4.130 -0.5343 -0.1411 -0.2232
 4202W        W20096  17.790  12.266   0.356  0.5141  0.0663  0.0740
 4203W        W20097   8.767   0.763  14.450  0.0896  0.0266  0.1457
 4204W        W20098  10.828   2.387  13.475 -0.1530 -0.1583 -0.1214
 4205W        W20099  13.707   1.479  14.456  0.1960 -0.1319 -0.2207
 4206W        W20100  15.748  15.237   0.924 -0.2626  0.1899  0.0198
 4207W        W20101  11.448   7.965   3.835 -0.2608 -0.1077  0.1086
 4208W        W20102   2.068   2.882  13.628 -0.0977 -0.2037 -0.2077
 4209W        W20103  18.214  14.177   4.052 -0.1272  0.2935  0.3257
 4210W        W20104  17.323  12.270  11.020  0.1362 -0.0192 -0.0045
 4211W        W20105  13.100  11.707  12.690  0.3201 -0.0733 -0.1592
 4212W        W20106  11.047   5.336  11.690  0.0927 -0.0875  0.1024
 4213W        W20107  10.441   3.218   0.683 -0.0417  0.0094 -0.2766
 4214W        W20108   8.015  12.385   0.330  0.0402 -0.4534  0.0264
 4215W        W20109  16.578  17.766   1.122  0.0105 -0.2144  0.2945
 4216W        W20110   2.846   6.989   2.349 -0.3687  0.0639 -0.3150
 4217W        W20111   8.346   9.190  10.573  0.1187  0.0206  0.0753
 4218W        W20112   0.945   4.543   1.927  0.1686  0.2334 -0.0294
 4219W        W20113  12.953  10.284  13.339  0.1711  0.1135 -0.0093
 4220W        W20114   3.506   7.653  13.670 -0.1756  0.0624 -0.0812
 4221W        W20115  11.258   0.950   1.791  0.1102  0.2584 -0.0018
 4222W        W20116  12.530  17.014   0.359  0.2121  0.1585  0.5568
 4223W        W20117   0.892   7.479  13.844 -0.0597 -0.4518 -0.0668
 4224W        W20118   7.818   7.206  13.238 -0.4103 -0.2477 -0.3273
 4225W        W20119  11.975   2.231   3.252 -0.1381  0.1694  0.0452
 4226W        W20120   0.917   6.430  11.340 -0.3243  0.1191  0.0973
 4227W        W20121  14.918  11.828   2.436 -0.1332  0.1407 -0.1373
 4228W        W20122  10.051   2.977  10.550 -0.0803 -0.1650  0.2118
 4229W        W20123   5.351   0.165   4.772  0.0988 -0.4150  0.0453
 4230W        W20124   1.210   4.533   2.470 -0.3073 -0.1760 -0.2277
 4231W        W20125   5.199   0.597   2.520 -0.1836 -0.3958  0.1063
 4232W        W20126  15.282  17.979   0.178 -0.2929 -0.3338  0.1894
 4233W        W20127   9.205   9.368  11.022 -0.0006 -0.2536  0.0888
 4234W        W20128  18.442  17.263   4.282 -0.3320 -0.1680  0.1818
 4235W        W20129   0.755  12.642  11.165  0.0287 -0.0627 -0.3048
 4236W        W20130   1.931   9.638   1.769 -0.0898  0.1635 -0.0719
 4237W        W20131   3.154  15.168  14.674 -0.0150 -0.0036  0.0866
 4238W        W20132  15.797   4.090   0.771  0.0682 -0.1301  0.1997
 4239W        W20133  12.501   3.685  13.748 -0.0784  0.1520  0.2373
 4240W        W20134  12.042  10.357  13.609  0.0837  0.0285 -0.1159
 4241W        W20135   8.424  10.588   5.332 -0.1588 -0.2329 -0.1639
 4242W        W20136  18.738  16.740   1.754 -0.3556 -0.1441  0.2373
 4243W        W20137   7.303   5.676  10.817 -0.0590 -0.0622  0.0971
 4244W        W20138   0.033  16.718  11.288  0.1023  0.1400  0.2958
 4245W        W20139   3.310  13.222   4.291  0.2314 -0.0830 -0.3681
 4246W        W20140   5.540   6.938  14.480  0.2152  0.2111  0.1907
 4247W        W20141  13.125  16.740   1.894  0.1527  0.1220 -0.1634
 4248W        W20142  12.234   1.913   0.460  0.0266  0.2421 -0.1474
 4249W        W20143   9.001  17.302  14.164  0.0346  0.2824  0.0589
 4250W        W20144  17.874  10.200   2.424  0.1210  0.3297  0.2313
 4251W        W20145  18.190  11.277  15.140  0.1275  0.1234 -0.1309
 4252W        W20146  15.213  16.002   2.771 -0.3784 -0.0322 -0.0795
 4253W        W20147  11.441   1.158   2.834  0.1107 -0.2196  0.1740
 4254W        W20148  16.095  12.925   1.522  0.1354 -0.0151  0.3042
 4255W        W20149  16.015   0.545  14.048 -0.1733  0.3432 -0.1779
 4256W        W20150  12.821  13.703   0.685  0.1980  0.1810 -0.1997
 4257W        W20151  16.685   6.612   5.407  0.2235 -0.1707 -0.2075
 4258W        W20152   1.631   2.065  10.793  0.1880 -0.0102 -0.0741
 4259W        W20153   7.258   6.456  14.932 -0.0189 -0.0515  0.1634
 4260W        W20154   3.004   2.532   5.762  0.1632  0.2685 -0.4004
 4261W        W20155   4.617   7.191   3.006 -0.1449  0.1604  0.0633
 4262W        W20156  13.917   6.723   0.565  0.1797 -0.0630  0.3376
 4263W        W20157   2.362  17.862  15.592 -0.0519 -0.0991 -0.1014
 4264W        W20158  16.874  16.475   4.677 -0.5488  0.2123  0.0230
 4265W        W20159  13.836   2.580   3.242  0.2299  0.1780  0.1088
 4266W        W20160  14.204   5.708  13.180 -0.2014  0.0969  0.0357
 4267W        W20161  13.414  18.625   3.739 -0.1780  0.0391 -0.2005
 4268W        W20162   8.704   5.637  13.418 -0.2784  0.0388 -0.0261
 4269W        W20163  10.431   2.207   0.555 -0.2147 -0.1304  0.2766
 4270W        W20164   7.796  13.131   4.339 -0.1101 -0.1065  0.1134
 4271W        W20165   3.356   3.235  12.400  0.0285 -0.0401  0.0093
 4272W        W20166  11.225  14.105  11.881  0.1017 -0.2185 -0.3025
 4273W        W20167   7.952   7.173  11.966  0.0974 -0.0174  0.1910
 4274W        W20168  14.298   4.623   3.337 -0.0184 -0.2379  0.1695
 4275W        W20169  18.180   9.137   0.632 -0.2206 -0.1482 -0.3524
 4276W        W20170   2.105  17.109  12.439 -0.2687  0.0008  0.3519
 4277W        W20171  15.933   5.386   0.992 -0.2700  0.0337 -0.1766
 4278W        W20172   3.134   6.337   0.250  0.1142 -0.1672 -0.0869
 4279W        W20173   7.816   2.269  12.749  0.1196  0.1365 -0.0055
 4280W        W20174   0.255   9.813  11.293  0.1278  0.0727 -0.0097
 4281W        W20175   5.790  15.994   4.441 -0.0454  0.0093 -0.0972
 4282W        W20176  16.974  14.734  12.121  0.0267  0.0629 -0.1069
 4283W        W20177   5.119   2.831  14.390 -0.0953  0.0831  0.1737
 4284W        W20178   3.126  18.649   4.334 -0.0966  0.1249 -0.2864
 4285W        W20179  15.644   6.233   0.925 -0.1802 -0.0653  0.1319
 4286W        W20180  10.969   2.738   3.889  0.1106  0.1878 -0.4669
 4287W        W20181  13.343  13.799  14.178 -0.0635  0.5233  0.0109
 4288W        W20182   9.273  11.556   5.035  0.0789  0.1003 -0.1823
 4289W        W20183   5.909   8.069   2.608  0.0544 -0.0031  0.0426
 4290W        W20184   8.832   6.923   2.500 -0.1081 -0.0837 -0.0683
 4291W        W20185   5.033  12.932   3.358  0.0562 -0.1516 -0.0219
 4292W        W20186   6.327   1.759  13.614  0.1343 -0.2823  0.1901
 4293W        W20187   5.797  16.253  13.109  0.0043  0.0031 -0.0715
 4294W        W20188  12.207   2.510   3.818 -0.0202  0.2106 -0.0153
 4295W        W20189   0.626   8.358  11.605  0.0940  0.3151 -0.0917
 4296W        W20190   9.382   7.605  13.061 -0.0437  0.0364 -0.1289
 4297W        W20191  18.156  14.341  13.091 -0.0922  0.2462 -0.0687
 4298W        W20192   0.081  18.347  14.839  0.0827  0.0176  0.0402
 4299W        W20193   7.050   3.739   1.556 -0.2314  0.0974  0.1226
 4300W        W20194  11.631   7.210  11.279 -0.0277 -0.2615  0.2268
 4301W        W20195   5.942   9.439  12.556 -0.0375  0.0228  0.0905
 4302W        W20196   3.669   2.679   4.271  0.2253 -0.0090 -0.1214
 4303W        W20197  14.835   7.682   4.244 -0.0032 -0.3070 -0.2316
 4304W        W20198   8.169   6.536   3.072 -0.0149 -0.1261 -0.1533
 4305W        W20199   4.006   9.806  13.573 -0.0434  0.0898  0.0492
 4306W        W20200  17.256   5.381   0.467  0.0156  0.1141  0.1585
 4307W        W20201   8.655   2.471   0.758  0.0358 -0.0234  0.2203
 4308W        W20202  13.058   0.969   4.578 -0.1063  0.0353 -0.4752
 4309W        W20203  17.559   3.569   0.708  0.2965  0.1104  0.1524
 4310W        W20204   5.575  15.911  10.527  0.1814 -0.0645  0.1687
 4311W        W20205   4.987  11.107   2.567 -0.3151 -0.1804  0.2013
 4312W        W20206   4.100  12.320   0.291 -0.2620  0.1460  0.1097
 4313W        W20207  15.549   6.162  15.490 -0.0313 -0.0946 -0.0787
 4314W        W20208   4.474  11.255  13.215 -0.1200 -0.0836 -0.0936
 4315W        W20209  16.017   0.104   0.131  0.4073 -0.0273 -0.3685
 4316W        W20210  16.770   4.210  15.584 -0.2291  0.1993 -0.1061
 4317W        W20211   7.786   9.445   2.017  0.0002 -0.1509  0.1096
 4318W        W20212   3.181  16.750   3.467 -0.0257  0.0461 -0.0161
 4319W        W20213  14.663   1.963  14.605  0.0177 -0.2906 -0.1485
 4320W        W20214  17.352   9.086  12.510  0.0221 -0.1355  0.2480
 4321W        W20215  13.957   1.204  13.962 -0.0842  0.0115 -0.0162
 4322W        W20216   9.046  12.053   3.010  0.1468  0.0432 -0.1792
 4323W        W20217  12.414  15.127   3.261  0.0930 -0.2047 -0.0703
 4324W        W20218   1.280  15.735   0.696 -0.0564  0.3640 -0.1095
 4325W        W20219   5.561   0.917   2.803  0.1001 -0.0396  0.1750
 4326W        W20220  10.519   6.037   3.460 -0.1837 -0.0616 -0.0604
 4327W        W20221   7.956  10.547  15.023  0.2504 -0.1704  0.1592
 4328W        W20222  15.322   2.433   2.022  0.2623 -0.1437 -0.0501
 4329W        W20223   7.140  12.705   3.496 -0.1282 -0.1863 -0.1400
 4330W        W20224   6.741   7.751  13.526  0.2344  0.1672 -0.0679
 4331W        W20225   8.145   0.359   5.380 -0.0049  0.2746  0.1120
 4332W        W20226  13.231  14.155  10.296  0.0861  0.0188  0.0338
 4333W        W20227  12.345   3.140   1.238  0.1408 -0.1335  0.0157
 4334W        W20228   5.019  15.159  13.877  0.5956 -0.0484  0.0426
 4335W        W20229  10.875  17.362   3.001 -0.0256 -0.3017  0.1660
 4336W        W20230   0.783  17.366   0.025  0.0105  0.1928  0.1866
 4337W        W20231  12.957   7.453   2.210  0.1863 -0.0504 -0.0646
 4338W        W20232  13.620  11.250   0.053  0.1390  0.0918  0.0194
 4339W        W20233   2.225  13.317  14.053  0.1264  0.1569  0.4195
 4340W        W20234   1.215   0.055  11.487 -0.2393  0.2692  0.3696
 4341W        W20235   0.459  16.532  11.107 -0.2581  0.0791 -0.0512
 4342W        W20236  17.007   4.262  12.467 -0.1858  0.1745  0.0508
 4343W        W20237   1.083  13.574  14.213 -0.2579 -0.2311  0.3207
 4344W        W20238  10.322   3.581  12.313  0.0248  0.0519 -0.0654
 4345W        W20239   7.093  10.527   2.909 -0.0901  0.2367 -0.3191
 4346W        W20240   2.708   5.035  11.029 -0.0871  0.0100  0.0277
 4347W        W20241   2.663  12.543   3.793 -0.0470  0.0465  0.1823
 4348W        W20242   2.449  17.830   1.708  0.1291  0.3558  0.1079
 4349W        W20243   0.305  18.644   0.657  0.3339  0.2233 -0.0837
 4350W        W20244  18.610  14.678  13.672  0.1731 -0.3382 -0.2785
 4351W        W20245  13.079   8.356  11.831 -0.0210 -0.0600 -0.0767
 4352W        W20246   0.669  17.869   3.656 -0.4459 -0.1265  0.0201
 4353W        W20247  15.056   4.003   2.394 -0.2377 -0.1274 -0.1041
 4354W        W20248  17.740   6.210  14.975 -0.0139  0.1505  0.1946
 4355W        W20249  16.941   6.040  12.016 -0.0205  0.0731  0.3935
 4356W        W20250   3.945   3.075  11.880  0.0889  0.3282 -0.0560
 4357W        W20251   3.557  11.579  12.685  0.0933 -0.0670  0.1560
 4358W        W20252  14.396  14.308   4.946  0.2787 -0.1399 -0.0448
 4359W        W20253   0.843  13.001   2.696 -0.3910  0.3664 -0.3042
 4360W        W20254  10.317  12.179  12.510 -0.3997  0.0755  0.2470
 4361W        W20255  15.531   3.517  14.061 -0.1318  0.0128  0.3118
 4362W        W20256   3.672  14.670   0.097  0.2506  0.0811 -0.0033
 4363W        W20257   3.502  16.245  12.730 -0.0417  0.1283 -0.5340
 4364W        W20258   0.038   0.830   4.765  0.0124 -0.2887 -0.1191
 4365W        W20259   4.781   9.049   0.287  0.1246  0.1011  0.2445
 4366W        W20260   0.416   7.173   1.504  0.3057 -0.2151 -0.0813
 4367W        W20261   8.150   7.583   2.266  0.1997  0.0755  0.0660
 4368W        W20262  16.201  17.531  12.700  0.4704  0.1611  0.2819
 4369W        W20263   6.743  12.302   2.225 -0.2827 -0.2570  0.0541
 4370W        W20264  10.595   4.272   2.979 -0.0293  0.0751 -0.3494
 4371W        W20265  16.721   4.117  14.204 -0.1434  0.5739  0.2364
 4372W        W20266  12.638  16.428  14.362 -0.3372  0.2720 -0.0202
 4373W        W20267  10.736  10.698   0.343 -0.0745 -0.0060  0.0244
 4374W        W20268  11.456  16.617  13.938 -0.1640 -0.4915 -0.3166
 4375W        W20269   0.925   3.977  12.226 -0.0215  0.0688  0.2216
 4376W        W20270   3.432   6.601  11.369  0.0484  0.1002 -0.2498
 4377W        W20271   2.857  13.950  10.830  0.1733  0.2992 -0.1155
 4378W        W20272   2.473   2.866   4.466 -0.3051  0.1201 -0.2483
 4379W        W20273  17.607  16.872   4.793  0.1609  0.1941  0.2033
 4380W        W20274   8.999  13.633  10.962 -0.1384 -0.0676  0.0106
 4381W        W20275   0.336  14.826  14.719  0.0729 -0.1200 -0.0100
 4382W        W20276   0.606  14.804  12.470  0.0793  0.0209  0.0946
 4383W        W20277  13.077  16.280   2.179 -0.1090  0.1504  0.0379
 4384W        W20278  13.257   1.600  13.868 -0.3994  0.0067  0.2355
 4385W        W20279   9.428  11.406  13.069 -0.2948  0.1992 -0.0450
 4386W        W20280  11.107  17.720   2.713 -0.1771  0.3183  0.1036
 4387W        W20281   3.459   7.781   0.494  0.0678  0.3186 -0.1824
 4388W        W20282   5.305  14.968   4.162 -0.0539  0.2600 -0.3048
 4389W        W20283   8.780  17.517   2.332  0.1356 -0.0188 -0.0825
 4390W        W20284   5.830  16.017  12.565 -0.1378 -0.1669  0.1763
 4391W        W20285  16.350  10.988  14.635 -0.1298 -0.0573  0.1232
 4392W        W20286  14.216  10.390  12.855  0.0895 -0.0002  0.3065
 4393W        W20287   5.632   3.999  11.675  0.3700  0.2721 -0.1289
 4394W        W20288   7.183  12.154   1.245  0.1375  0.2264 -0.2153
 4395W        W20289   1.690  13.229   1.603  0.4508  0.0548 -0.1746
 4396W        W20290   4.197  13.038   1.170  0.2157  0.0764 -0.1691
 4397W        W20291   9.717   5.516  15.553 -0.0700 -0.0504 -0.2559
 4398W        W20292  10.935  12.767  13.164 -0.2291 -0.0618 -0.2198
 4399W        W20293   9.140   0.033  12.378 -0.0844  0.1743 -0.1203
 4400W        W20294   8.863   4.600   1.145  0.1024 -0.1248  0.0272
 4401W        W20295   6.549   2.576  14.530  0.1708 -0.1907  0.0763
 4402W        W20296   9.525  17.183  10.460 -0.0509  0.0628 -0.0808
 4403W        W20297   3.203  16.514   3.061 -0.1381  0.2553 -0.0406
 4404W        W20298   3.209  18.110  15.328  0.5252  0.1232  0.0815
 4405W        W20299  17.440   8.345  11.307  0.2583 -0.1585 -0.0163
 4406W        W20300   8.986   4.652   1.619  0.1632  0.0314 -0.0312
 4407W        W20301   0.920   7.821  12.010  0.2941  0.1440  0.5030
 4408W        W20302   1.517   3.616  15.285 -0.0012 -0.1323  0.0877
 4409W        W20303  13.990  17.595  11.977 -0.0825 -0.0965 -0.0518
 4410W        W20304  16.197   9.389   1.617  0.0038  0.1250 -0.2465
 4411W        W20305  11.076   3.737   1.745 -0.3308  0.1062 -0.4694
 4412W        W20306   9.145  12.063  11.287 -0.1293 -0.1067  0.0923
 4413W        W20307   6.035   1.904   4.768 -0.0111  0.0167  0.1860
 4414W        W20308  15.240   7.398   1.683  0.0960  0.1298  0.0505
 4415W        W20309  12.259   5.279   1.929  0.0887  0.4026  0.2107
 4416W        W20310  11.399  16.164  10.857 -0.1845  0.1151 -0.1495
 4417W        W20311  12.087  10.318   1.793 -0.0013  0.3501  0.3323
 4418W        W20312  17.683  16.973  13.937  0.0834  0.1182  0.0078
 4419W        W20313  13.504  18.063   2.311  0.2598  0.3366 -0.0303
 4420W        W20314   2.582   2.222  11.979 -0.0699 -0.0514 -0.3644
 4421W        W20315  13.366   9.001   3.697  0.3364 -0.0609  0.0652
 4422W        W20316  18.655  12.473   5.294 -0.0160  0.2972 -0.1829
 4423W        W20317   9.875   9.870  11.720  0.0305 -0.2468 -0.0384
 4424W        W20318   6.162   1.821   2.798  0.4290 -0.1867 -0.1683
 4425W        W20319  18.338  15.169  11.887  0.0136 -0.0235  0.0162
 4426W        W20320   6.494  15.591  11.404  0.3586  0.3324 -0.2313
 4427W        W20321  10.591   8.184  12.251 -0.0338 -0.0002 -0.0749
 4428W        W20322  16.433  14.893   0.725 -0.0352 -0.0522 -0.2336
 4429W        W20323  17.082  18.452  11.976 -0.1643  0.1628 -0.1590
 4430W        W20324   5.269   4.732   3.123  0.3410 -0.1128 -0.2243
 4431W        W20325  12.449   7.930   0.255  0.2616  0.0027  0.2216
 4432W        W20326   8.751   7.580  12.836  0.0627  0.0744  0.3372
 4433W        W20327  13.378  18.311  12.937 -0.3273 -0.0609  0.0054
 4434W        W20328  18.681   9.450  14.982  0.0601  0.0000 -0.1023
 4435W        W20329  14.401  18.751  14.493  0.1506  0.1798  0.0057
 4436W        W20330   5.866   4.746  12.260  0.1114 -0.5078  0.2515
 4437W        W20331  15.019   3.746  14.877 -0.4132  0.1139 -0.1811
 4438W        W20332  18.442  18.268  11.965  0.1554 -0.0508  0.0800
 4439W        W20333  13.895  15.832  14.933 -0.0703 -0.0868 -0.1734
 4440W        W20334   8.971   2.289  12.643 -0.0669 -0.5920  0.1733
 4441W        W20335  14.712   9.902  14.664 -0.3803  0.0166  0.1007
 4442W        W20336  12.074   4.780   5.595  0.2998 -0.1713  0.2626
 4443W        W20337   6.795  15.775   1.117 -0.0244  0.0226 -0.4430
 4444W        W20338  15.110   6.186  11.553 -0.2042  0.0492 -0.0740
 4445W        W20339   4.065   8.099  10.547 -0.0678 -0.3650  0.1262
 4446W        W20340  11.790   2.224  15.118 -0.2126 -0.2196 -0.1973
 4447W        W20341   4.920   6.744  14.200 -0.0961  0.0714  0.0777
 4448W        W20342  14.788  10.983   5.533 -0.0230  0.1787 -0.1211
 4449W        W20343   4.472  15.474   5.302 -0.1140 -0.1586 -0.0710
 4450W        W20344   5.554  12.657  12.966  0.0647  0.2122  0.1252
 4451W        W20345  10.996  13.165   1.951  0.0596  0.2193  0.1224
 4452W        W20346  11.022   0.013  10.904  0.2257  0.1484  0.3175
 4453W        W20347   9.584   9.862  11.313  0.0397 -0.0001 -0.0228
 4454W        W20348   2.548  15.690   1.356  0.2697 -0.2682 -0.2430
 4455W        W20349   4.916  14.875   1.798 -0.0287  0.0786  0.0945
 4456W        W20350   8.179  16.886   5.795 -0.2598  0.0224  0.0463
 4457W        W20351  15.647  18.487  10.488 -0.2266  0.2787  0.0275
 4458W        W20352  15.749   5.856   1.385 -0.0539 -0.2035  0.0126
 4459W        W20353  15.376   0.083   3.825  0.0849 -0.0310  0.2734
 4460W        W20354  10.547   8.473   0.742  0.0708 -0.0468 -0.2121
 4461W        W20355   2.810  18.348  13.842  0.0184  0.1579 -0.0113
 4462W        W20356  15.081  11.104   3.755  0.1399 -0.0073  0.1040
 4463W        W20357   9.954  13.355   5.576  0.0400  0.0987  0.3953
 4464W        W20358   4.943  18.179   4.249  0.2364  0.3370  0.0856
 4465W        W20359  15.069   7.350  12.665  0.0599  0.1864 -0.1095
 4466W        W20360   0.646  10.071   3.272 -0.1988 -0.1776 -0.0388
 4467W        W20361   4.044  14.835   3.318  0.0623 -0.0750  0.1678
 4468W        W20362   0.649  16.609   2.558  0.0730  0.1754 -0.2626
 4469W        W20363   4.578  17.574  11.219 -0.1419  0.0078 -0.0755
 4470W        W20364  15.433   5.112   0.750  0.0330 -0.2051 -0.0253
 4471W        W20365   9.468   9.327   4.847 -0.0462 -0.0351  0.0156
 4472W        W20366   1.943  14.038   0.003 -0.1833 -0.1157  0.2047
 4473W        W20367  16.892  13.145  15.035  0.0505 -0.0601  0.0160
 4474W        W20368   0.474  17.352   2.073  0.0016 -0.0345  0.3544
 4475W        W20369  18.173   8.008  12.379  0.1408  0.0413 -0.1755
 4476W        W20370   4.276   3.598   2.604  0.1839 -0.3622 -0.0337
 4477W        W20371  11.006  15.343   2.809 -0.1514 -0.0380  0.1047
 4478W        W20372   3.549  17.058  12.801 -0.2968  0.0825 -0.2049
 4479W        W20373  15.441   7.882   1.735  0.0940  0.1037 -0.4087
 4480W        W20374   3.125   4.888   4.896 -0.3307 -0.0623  0.1891
 4481W        W20375  16.500  18.362   1.827  0.0665  0.1216  0.0467
 4482W        W20376   2.796  13.009  13.323 -0.0381 -0.1468  0.3941
 4483W        W20377  17.003   2.639  14.534  0.0950 -0.1966  0.0704
 4484W        W20378   9.061   1.878   4.088 -0.1285 -0.1011  0.1445
 4485W        W20379   8.369   4.825  15.166  0.3224 -0.0166  0.0424
 4486W        W20380  18.435  16.324   2.385 -0.1568  0.0498 -0.3745
 4487W        W20381  15.264  13.377   4.462 -0.1060 -0.2554  0.1475
 4488W        W20382  11.807   7.621  10.527 -0.0575 -0.0669 -0.0797
 4489W        W20383  14.354   9.329   4.820 -0.0256 -0.1228  0.1097
 4490W        W20384   9.538  15.444   1.539  0.1343 -0.0481 -0.1708
 4491W        W20385   4.134   3.914  10.642 -0.1195 -0.0200 -0.0598
 4492W        W20386   5.690   7.986  14.853 -0.1169 -0.1112 -0.1122
 4493W        W20387  18.441  12.029   5.223 -0.1162  0.0883  0.1445
 4494W        W20388   8.004  12.061  15.582 -0.0017  0.0786 -0.1067
 4495W        W20389  13.366   0.910  13.033 -0.0035  0.1516  0.2931
 4496W        W20390   6.274   7.775   2.992  0.0391  0.1098  0.2553
 4497W        W20391  10.598   5.193   3.288 -0.3105  0.1113 -0.0272
 4498W        W20392  13.561  15.474   2.904 -0.1201 -0.0609  0.0291
 4499W        W20393   8.216   6.883   2.716  0.0006  0.0131 -0.0274
 4500W        W20394  16.926   6.679  13.234  0.1489  0.0637  0.0611
 4501W        W20395   2.169   7.643  10.890  0.0396  0.0030  0.1730
 4502W        W20396   7.816   6.309  12.645  0.2386 -0.1048 -0.1480
 4503W        W20397  10.253   8.016   4.729 -0.1917  0.0468  0.1008
 4504W        W20398  12.214  13.522   4.405 -0.0223  0.5537 -0.3076
 4505W        W20399   6.462  17.630  10.815 -0.1321  0.2427 -0.1358
 4506W        W20400  17.755  15.920   4.905  0.2098  0.0642  0.0818
 4507W        W20401  15.219   6.827  13.057 -0.2084  0.3645  0.0873
 4508W        W20402  12.449  14.986   9.914  0.1645 -0.1637  0.0205
 4509W        W20403  12.497   0.495  14.492 -0.4280  0.0528  0.1644
 4510W        W20404  18.142   1.701  13.523 -0.2864  0.1554 -0.0452
 4511W        W20405  14.663   4.772   4.702  0.0953 -0.1947  0.1815
 4512W        W20406  15.728  16.871  11.340 -0.3035 -0.0148 -0.0857
 4513W        W20407  13.127   0.115  11.866 -0.2351  0.1143 -0.0016
 4514W        W20408  15.339   5.027  13.925  0.1582  0.0746 -0.0992
 4515W        W20409  13.828   2.457  13.101 -0.4461 -0.2651  0.0135
 4516W        W20410   6.165  17.228  14.569  0.0033  0.0097 -0.0143
 4517W        W20411  13.516  11.777   0.000  0.0285 -0.0443 -0.2264
 4518W        W20412   3.220   9.503  12.547 -0.0701 -0.3343 -0.3062
 4519W        W20413  16.633   9.099   1.572  0.3922  0.1929  0.1623
 4520W        W20414   0.724  18.566   2.954  0.0661  0.1814 -0.0336
 4521W        W20415   8.387   6.834   5.565 -0.1853 -0.0410 -0.1769
 4522W        W20416   5.087   2.191  11.964 -0.0179  0.0457  0.0703
 4523W        W20417  16.178   7.523  13.889  0.0652  0.0432  0.1140
 4524W        W20418   7.496   8.003   4.579  0.0605 -0.3571 -0.0267
 4525W        W20419   1.564   7.266  12.706 -0.0528  0.1099  0.0717
 4526W        W20420  18.709   4.994  12.752 -0.0095 -0.1181  0.1388
 4527W        W20421  15.842   2.385  14.633 -0.3370 -0.0994 -0.0437
 4528W        W20422  12.463   2.472  11.564  0.1434  0.0049 -0.3272
 4529W        W20423   6.966  13.496   4.102 -0.2255  0.0898  0.1232
 4530W        W20424  16.750   0.645  11.922 -0.0032  0.2572  0.3510
 4531W        W20425   7.386  12.692   5.218  0.1043  0.0402 -0.1273
 4532W        W20426  17.611  14.935  13.506  0.1140 -0.0993 -0.1880
 4533W        W20427   0.902  11.684   4.692 -0.1834  0.3113 -0.1087
 4534W        W20428  16.481  13.559   5.872 -0.4172  0.1388 -0.1910
 4535W        W20429  11.494   7.466   0.630 -0.1281 -0.0145  0.0170
 4536W        W20430   9.876  10.275   0.905  0.1125 -0.2046 -0.0938
 4537W        W20431  15.979   1.894   1.265  0.2830 -0.2604 -0.1529
 4538W        W20432  14.903   4.145   3.203 -0.1975  0.1743 -0.0590
 4539W        W20433  11.253  17.865   3.781  0.1120 -0.1633 -0.1512
 4540W        W20434  16.807   2.213  11.357 -0.0733  0.0281  0.1106
 4541W        W20435   1.330  13.306   4.649 -0.4225 -0.1301  0.0488
 4542W        W20436   1.993   3.546  14.358 -0.0074  0.1486 -0.0380
 4543W        W20437  10.453  14.263   2.590  0.1693 -0.1995  0.0940
 4544W        W20438  13.658   4.478   4.634 -0.0484 -0.0578  0.2105
 4545W        W20439  11.379   3.876  12.662  0.1259  0.0005  0.0826
 4546W        W20440   5.428   0.431  10.459  0.0306 -0.2987 -0.2552
 4547W        W20441  18.162   6.593   2.461 -0.1279  0.0564  0.3334
 4548W        W20442  12.756   2.277  10.298  0.4185  0.3257  0.1607
 4549W        W20443  13.938   4.771  15.068 -0.0332  0.0890 -0.1110
 4550W        W20444  15.083  10.049  14.942  0.1120 -0.0224 -0.0747
 4551W        W20445  15.880  15.256  13.128  0.0664  0.1490  0.1003
 4552W        W20446   8.898  14.105   2.885 -0.2236 -0.2046  0.0403
 4553W        W20447  11.776  10.117  11.845 -0.1337 -0.2375  0.0581
 4554W        W20448  11.220  17.368   1.010  0.1483  0.0156  0.3280
 4555W        W20449   3.802   5.414  11.726 -0.1125  0.1477 -0.2217
 4556W        W20450   8.015  16.984   3.350 -0.0374 -0.0128  0.0025
 4557W        W20451  13.891  16.841   4.915  0.2236  0.1619 -0.0720
 4558W        W20452  12.956   9.129   1.538 -0.0390  0.0180 -0.1323
 4559W        W20453   1.303  12.038   4.856 -0.0198 -0.1407  0.1206
 4560W        W20454  15.593   5.379   1.720  0.4019 -0.0123  0.0821
 4561W        W20455  14.857   8.684  15.191  0.0305 -0.2601 -0.0109
 4562W        W20456  15.954  15.407   3.647 -0.3393 -0.0524 -0.0667
 4563W        W20457   0.238   8.570  11.868  0.1186  0.0802  0.1913
 4564W        W20458   2.750  14.203  11.282 -0.0285  0.0165 -0.0492
 4565W        W20459  11.902  17.354  11.404 -0.1147  0.0267  0.3648
 4566W        W20460   5.430  10.728  11.295 -0.3333  0.0235  0.1651
 4567W        W20461  18.311   0.738   4.308  0.3664  0.0771  0.0324
 4568W        W20462   2.327   0.434   0.397  0.1466 -0.1182  0.1197
 4569W        W20463   7.905  16.558   3.155 -0.0284  0.2516 -0.1735
 4570W        W20464  16.214   8.374   2.409  0.0797  0.1133  0.0548
 4571W        W20465  18.504   4.873  15.195 -0.1875  0.1681 -0.1448
 4572W        W20466  11.672   8.939   4.404 -0.1074 -0.0865  0.3643
 4573W        W20467   0.190   3.600   2.910  0.3385  0.1980 -0.4326
 4574W        W20468   3.376   7.841   3.467  0.0010  0.0913 -0.1478
 4575W        W20469  10.014  12.701  15.573  0.0724  0.1177  0.2204
 4576W        W20470   0.063   8.204  10.932 -0.4977 -0.0544 -0.3701
 4577W        W20471  10.296  17.938   3.215  0.1643 -0.0408  0.1755
 4578W        W20472   4.455  17.430  13.444  0.1713 -0.0327 -0.0708
 4579W        W20473  14.292  15.252   3.291 -0.0901 -0.2163  0.1897
 4580W        W20474   0.551  11.684  11.542 -0.1807 -0.1164 -0.0634
 4581W        W20475   4.882  16.541   4.899 -0.1895 -0.1958  0.0704
 4582W        W20476   8.531  13.693   0.000 -0.0472  0.1171  0.0096
 4583W        W20477   3.502  12.300  14.087  0.0523  0.3708  0.0606
 4584W        W20478   4.256  10.070  13.941 -0.0815 -0.0249 -0.0475
 4585W        W20479   1.868   6.922   9.714  0.2354  0.1056  0.0625
 4586W        W20480  13.977  17.460  14.335  0.2518  0.1029  0.2277
 4587W        W20481   2.375   3.185   2.853  0.0025 -0.2074 -0.0225
 4588W        W20482  14.110  14.993  14.674  0.1929 -0.0285  0.0811
 4589W        W20483  10.874  15.122  13.467  0.1228  0.1749  0.2128
 4590W        W20484   0.239  15.555  14.663  0.3707 -0.0197  0.2636
 4591W        W20485   5.124  15.655  12.295  0.1416  0.2721  0.2601
 4592W        W20486  17.597  17.459  12.593  0.0995 -0.1170  0.0080
 4593W        W20487   5.120   7.772  14.628 -0.0846  0.2977 -0.0524
 4594W        W20488   3.019   5.514   2.980 -0.4293 -0.1099  0.1850
 4595W        W20489  16.255  16.823   5.249 -0.0446 -0.2068 -0.0562
 4596W        W20490   7.092  13.559  11.231 -0.1457  0.2040  0.0993
 4597W        W20491  14.845  16.744   0.016 -0.0674 -0.2835 -0.1760
 4598W        W20492  10.259   9.815   4.378 -0.0682 -0.2379  0.0960
 4599W        W20493   3.507   3.223  11.087 -0.0364  0.1773 -0.2248
 4600W        W20494  14.564   8.880   1.346  0.1104  0.2633  0.4967
 4601W        W20495  17.284  14.416   0.977 -0.3068  0.0299 -0.2098
 4602W        W20496  13.884  12.544   1.602  0.2230  0.1022  0.0905
 4603W        W20497  11.268   2.082  13.430  0.3702  0.1188  0.0265
 4604W        W20498   5.230   8.582  14.624  0.1915  0.0910  0.2670
 4605W        W20499   3.283  12.765  13.393 -0.1419  0.3394 -0.3381
 4606W        W20500   2.972  10.515  11.406  0.0400 -0.0485  0.1420
 4607W        W20501  14.355   1.867   4.454  0.0796  0.1152 -0.0931
 4608W        W20502  16.908   6.787  14.289  0.1283  0.1015 -0.0067
 4609W        W20503   0.533   6.674   0.065  0.0301 -0.4041 -0.1761
 4610W        W20504  15.222  13.635  11.330 -0.0569  0.0135  0.0756
 4611W        W20505   1.978  18.559  12.313  0.2034  0.0871 -0.1288
 4612W        W20506  16.749   1.156   4.865  0.0809  0.4542  0.0330
 4613W        W20507  10.857  12.301  12.374 -0.1823 -0.1878  0.1052
 4614W        W20508   5.583   7.964   3.530  0.2179  0.2780  0.1774
 4615W        W20509  13.413   0.235   4.705 -0.2343  0.2564 -0.1652
 4616W        W20510   4.266  11.714  13.367 -0.1165  0.0525  0.1237
 4617W        W20511  16.529  12.345  14.874 -0.0752 -0.0410  0.1391
 4618W        W20512  12.627   7.784   2.771 -0.1156  0.0968 -0.0529
 4619W        W20513  14.278   9.745   1.100 -0.0666  0.1928  0.0641
 4620W        W20514  12.776  14.503   3.832 -0.1210  0.4179 -0.1098
 4621W        W20515  10.286  11.075  14.806  0.1045  0.1393 -0.0048
 4622W        W20516   1.896  11.113  13.662 -0.0434  0.1873  0.0996
 4623W        W20517   6.000  10.535   5.038  0.1461 -0.1200  0.3134
 4624W        W20518  14.492  16.334  11.737 -0.0442 -0.1807  0.3735
 4625W        W20519  17.999  17.253  12.847 -0.0260 -0.0458  0.2817
 4626W        W20520   0.647   2.146   4.632 -0.1990 -0.1387  0.1280
 4627W        W20521   4.271   9.570   0.388  0.0194  0.2822 -0.0839
 4628W        W20522   3.739   3.559   3.794  0.0034  0.1282  0.2003
 4629W        W20523   8.094   6.066  14.242  0.2481  0.2320  0.3326
 4630W        W20524  11.068   2.867  11.395 -0.1084  0.2314 -0.0605
 4631W        W20525   3.529   3.586  12.008 -0.4326 -0.1386 -0.0184
 4632W        W20526   5.999   4.934  14.050 -0.0369  0.2108  0.0777
 4633W        W20527  10.428   8.473  13.037  0.1744  0.1305  0.1521
 4634W        W20528   4.904   6.013   0.328 -0.0128 -0.2116  0.0023
 4635W        W20529   2.949  16.759  13.433  0.1641 -0.1032 -0.2618
 4636W        W20530   0.356  11.210   5.271  0.1637  0.0610  0.2070
 4637W        W20531   4.626  11.910   2.035  0.1035  0.1725  0.0081
 4638W        W20532  15.849   3.147   1.745  0.2846  0.0488 -0.0988
 4639W        W20533  12.878  14.571  12.919 -0.0721  0.0257  0.3562
 4640W        W20534  17.221   2.125  14.490  0.0813 -0.0316 -0.1911
 4641W        W20535  12.893  16.138   0.045  0.0524 -0.3067 -0.1622
 4642W        W20536  12.161  17.386  13.195  0.3839  0.4286 -0.1948
 4643W        W20537  16.521  15.206   0.081  0.1140 -0.1518 -0.0798
 4644W        W20538  11.255  15.294  13.009 -0.2752 -0.2357 -0.1158
 4645W        W20539   7.699  17.751   4.114  0.1609  0.0381 -0.2286
 4646W        W20540  12.289   1.170   4.206  0.2640 -0.1606  0.2037
 4647W        W20541  14.818  16.386   2.859  0.0156  0.0384 -0.2510
 4648W        W20542   4.841  13.440   3.359  0.2023 -0.1197 -0.2385
 4649W        W20543  10.588   8.263   2.676  0.0069 -0.0564  0.2083
 4650W        W20544  13.988   1.198  15.084  0.1436 -0.1810  0.0529
 4651W        W20545   0.819   9.723   4.692  0.0108  0.2335 -0.3071
 4652W        W20546   1.863  15.570  12.410  0.0950 -0.0902  0.0494
 4653W        W20547  11.919  16.216  14.588  0.2706  0.0740  0.0633
 4654W        W20548  18.715   9.231  14.100  0.0515 -0.1075 -0.3220
 4655W        W20549   4.509  14.357  12.050 -0.2365 -0.0478 -0.0059
 4656W        W20550   0.306  13.000   2.602 -0.0806  0.1637 -0.0134
 4657W        W20551  13.837  10.923   3.236  0.0707 -0.1019 -0.1821
 4658W        W20552  10.691  13.136   0.133  0.1399 -0.1108 -0.2313
 4659W        W20553   9.916  15.661  12.187  0.0975 -0.1809  0.0628
 4660W        W20554   9.773   5.866  13.795 -0.0189  0.2059  0.0382
 4661W        W20555  12.262   8.433   0.937 -0.0662  0.0359 -0.3227
 4662W        W20556   8.662   3.262  12.296 -0.2736 -0.1285  0.0946
 4663W        W20557  14.788  12.562  14.350 -0.0688 -0.0957  0.0529
 4664W        W20558  15.904   5.225   3.752  0.5271  0.2759 -0.0041
 4665W        W20559   2.027   3.653  10.982  0.0171  0.1109 -0.0050
 4666W        W20560   8.556   1.453  12.232  0.2321  0.0151 -0.0229
 4667W        W20561   6.069  10.934   0.305 -0.3372 -0.0448 -0.2297
 4668W        W20562   5.328  12.868  15.056  0.2113  0.1460 -0.1096
 4669W        W20563   8.578  16.315  11.098 -0.2185  0.1568 -0.0528
 4670W        W20564   5.592   9.437  13.489  0.1577  0.0715  0.1237
 4671W        W20565   8.610  12.327  12.840 -0.0557 -0.1498 -0.0545
 4672W        W20566  15.778  10.401  12.126 -0.3205 -0.4001  0.3728
 4673W        W20567   7.347   0.320  14.259  0.0464 -0.1119  0.0988
 4674W        W20568   0.260  14.812   2.740 -0.1573  0.1915 -0.2244
 4675W        W20569   1.211   4.302  12.662 -0.3539 -0.1158  0.1440
 4676W        W20570  11.096   0.566  11.735 -0.0231 -0.1203 -0.0762
 4677W        W20571   7.935  14.289   0.764  0.1500  0.1227 -0.1632
 4678W        W20572  15.361  11.335   4.878  0.0843 -0.2865 -0.0105
 4679W        W20573   5.955  15.760  11.820  0.0289 -0.2847 -0.2412
 4680W        W20574  13.123  13.041  11.730  0.0249  0.1501  0.0989
 4681W        W20575  15.857   8.771  10.888 -0.0229  0.3278  0.0472
 4682W        W20576   8.994  10.496  14.141  0.4627  0.1420  0.1010
 4683W        W20577   9.861  18.194   1.482 -0.0758  0.2097 -0.1874
 4684W        W20578  10.262   4.558   4.697 -0.3600 -0.1615  0.3873
 4685W        W20579   6.515   8.523   1.709  0.0987  0.2485  0.1586
 4686W        W20580  17.220   0.536  14.065  0.1585  0.0474  0.1258
 4687W        W20581   7.309   6.043   3.147  0.0114  0.2398 -0.1418
 4688W        W20582   2.490   5.576  15.607 -0.0187 -0.0180 -0.0344
 4689W        W20583   9.588  10.231  13.928 -0.3553  0.2719 -0.1478
 4690W        W20584   7.634  11.231  11.423 -0.0082  0.1552 -0.0982
 4691W        W20585   9.441  15.933   1.335 -0.0606  0.0729 -0.2488
 4692W        W20586   7.837   3.230   0.397  0.0673  0.1998 -0.1834
 4693W        W20587   3.272   9.389   0.755  0.0559  0.1848 -0.3579
 4694W        W20588   7.471   7.604   4.278  0.2483 -0.0956 -0.4653
 4695W        W20589   1.005  15.422   3.130 -0.1534  0.3032 -0.0982
 4696W        W20590   0.206  18.112   3.911 -0.0104  0.1788 -0.3059
 4697W        W20591   4.635   5.648   2.510 -0.3807  0.1260  0.0519
 4698W        W20592   7.800   5.915   0.567 -0.0854 -0.0675  0.1278
 4699W        W20593   6.510   8.959   4.310  0.1051 -0.3045 -0.2784
 4700W        W20594   9.170  15.406  14.406  0.2180 -0.1690 -0.3540
 4701W        W20595  17.649  14.288   3.219 -0.0603 -0.1155 -0.1900
 4702W        W20596   1.335   5.470   2.182 -0.0135  0.1257  0.0723
 4703W        W20597   4.009  14.522  10.723  0.0015 -0.4486 -0.0094
 4704W        W20598   7.843  10.851   1.612  0.0687 -0.1717  0.0795
 4705W        W20599   0.640  12.377   1.091  0.0707  0.1319  0.1035
 4706W        W20600  10.027   4.270  13.402 -0.3775 -0.1148  0.0059
 4707W        W20601  10.883   4.088  12.993  0.5897  0.1084  0.2526
 4708W        W20602  11.996  18.445  12.821 -0.0200  0.2086 -0.1656
 4709W        W20603  10.315  13.975  14.309 -0.0935 -0.2070 -0.0584
 4710W        W20604  15.814  10.902  12.463  0.3589 -0.0250 -0.3561
 4711W        W20605  17.009  14.843   4.100  0.1374 -0.0913  0.1431
 4712W        W20606  16.576   2.980   3.683 -0.0971  0.0972  0.0090
 4713W        W20607   1.234   9.107   2.471  0.1731  0.1374  0.2526
 4714W        W20608   4.203  10.448  12.991  0.1330  0.3393 -0.0377
 4715W        W20609   6.605   5.685  10.662  0.2159 -0.3155 -0.2634
 4716W        W20610  16.754  16.860  13.031 -0.1263  0.2436 -0.0481
 4717W        W20611   8.756  16.987   4.772 -0.4178 -0.1062  0.1511
 4718W        W20612   9.850  15.216   3.829  0.2367 -0.1725 -0.2159
 4719W        W20613   4.340   4.610   4.451  0.3222 -0.0099 -0.0138
 4720W        W20614  12.400   2.182  10.701  0.0312 -0.0851  0.0642
 4721W        W20615  13.623  13.715  11.268  0.2314 -0.0967 -0.3322
 4722W        W20616   3.699   3.887  13.721 -0.1391 -0.0933  0.0123
 4723W        W20617   5.617  11.318  12.626 -0.1670 -0.3319 -0.2149
 4724W        W20618  17.705   9.448   1.642  0.2724 -0.1351 -0.3389
 4725W        W20619  16.971   6.529   4.094 -0.1105  0.1911  0.1270
 4726W        W20620  17.657   2.377   2.996  0.0813  0.1813 -0.0515
 4727W        W20621   9.224   9.443  12.356  0.1662  0.1715  0.0855
 4728W        W20622   0.007  17.372   0.222  0.0744  0.0912 -0.2663
 4729W        W20623  10.397  13.619  15.066 -0.0865  0.0285 -0.1778
 4730W        W20624  17.944   5.542   4.508  0.1122 -0.0109  0.1673
 4731W        W20625  12.943  10.335   1.552 -0.2718  0.1408  0.2873
 4732W        W20626   1.220   8.643  15.393 -0.1555  0.0039  0.0817
 4733W        W20627  17.354   9.115  14.882  0.1375  0.1014  0.3583
 4734W        W20628  17.449   2.500  15.421 -0.0260 -0.1255 -0.3918
 4735W        W20629   5.442   1.619   9.206 -0.3090 -0.2376 -0.0525
 4736W        W20630  12.820  18.255  12.901  0.0954 -0.0095  0.0799
 4737W        W20631  12.080  12.135  11.397 -0.1183  0.0106 -0.0397
 4738W        W20632   6.738   9.876  10.865 -0.0410  0.1404  0.1050
 4739W        W20633   3.681  17.879  15.315 -0.3166 -0.0268  0.2451
 4740W        W20634  10.808   4.712  12.916 -0.3010 -0.1365  0.0293
 4741W        W20635  18.708   9.517  11.069  0.2947  0.3009 -0.0146
 4742W        W20636   7.228  17.107   0.505 -0.1560 -0.1984  0.1050
 4743W        W20637   1.069  16.560  15.135 -0.1331  0.3418  0.3517
 4744W        W20638  15.022   0.623  13.783  0.1431  0.0337 -0.0167
 4745W        W20639   4.741   2.096   0.208  0.1111  0.1647  0.0264
 4746W        W20640  11.662  10.060  15.584  0.0955 -0.3258 -0.1159
 4747W        W20641  10.344  12.650   2.441 -0.0323 -0.0401  0.1723
 4748W        W20642   2.054   9.674   0.461  0.1233 -0.0649 -0.0714
 4749W        W20643   9.234  10.561  13.711  0.2082  0.3040 -0.0944
 4750W        W20644   5.228  13.211  12.467  0.3002  0.1760 -0.0465
 4751W        W20645  14.089   2.594   4.480  0.0454 -0.0192  0.2977
 4752W        W20646   8.425   0.993   0.535  0.0496  0.0015 -0.2921
 4753W        W20647   9.232  14.526   3.554  0.1283  0.2235 -0.2575
 4754W        W20648   7.753   0.106   1.801  0.3508 -0.0432  0.2688
 4755W        W20649  10.516  14.915  11.061  0.2058 -0.2525  0.1302
 4756W        W20650   1.526  14.687  14.640  0.0599  0.2016 -0.0093
 4757W        W20651   1.000   1.800  14.230 -0.1062  0.3040  0.0617
 4758W        W20652  12.448   6.949   3.744  0.0449 -0.0636  0.2784
 4759W        W20653   8.547   3.121   1.082 -0.1006  0.0151  0.2830
 4760W        W20654   8.880   5.406  14.428 -0.1570 -0.0866 -0.2439
 4761W        W20655   4.259   5.144   3.344  0.2704 -0.0887  0.0364
 4762W        W20656  16.633  10.007   0.518  0.0163  0.0170  0.3023
 4763W        W20657  16.208   7.512  12.026 -0.1543 -0.1164  0.0130
 4764W        W20658   2.607   6.758   1.381  0.2670  0.0482 -0.3790
 4765W        W20659   7.031   8.328   3.644  0.0150 -0.0364 -0.1794
 4766W        W20660   1.324   0.058   4.271  0.0843 -0.0809  0.1894
 4767W        W20661  18.618   9.243   4.070  0.2532  0.1771 -0.0962
 4768W        W20662  12.009   7.960   5.310 -0.0594  0.1112 -0.1344
 4769W        W20663   9.762  11.702   5.233  0.3027 -0.4002 -0.0438
 4770W        W20664  18.386   9.624   0.686 -0.0343 -0.1137 -0.0011
 4771W        W20665  16.448   6.709   4.566 -0.1033 -0.2160  0.4248
 4772W        W20666   1.166  16.878   4.556  0.1164 -0.1235  0.1094
 4773W        W20667  13.655  14.887   3.286 -0.1084  0.0227 -0.3251
 4774W        W20668   5.372  12.972   2.609 -0.1729 -0.0835 -0.4217
 4775W        W20669  17.002  11.757  15.289 -0.1385  0.4012  0.1872
 4776W        W20670   2.458   8.890  15.543  0.1412 -0.1411  0.2954
 4777W        W20671   8.209   0.946  15.254 -0.0151 -0.3304  0.0902
 4778W        W20672   6.069   0.292  13.998  0.2686 -0.1872 -0.0449
 4779W        W20673   9.421  13.771  15.308  0.1531 -0.1298  0.0201
 4780W        W20674   5.597  13.800  11.285  0.0102 -0.1037 -0.2432
 4781W        W20675  16.159  14.972   3.591  0.0360 -0.0527  0.3200
 4782W        W20676   5.480  13.349   9.522  0.0855  0.0160 -0.1226
 4783W        W20677   6.432  17.294   3.536  0.1648 -0.2883 -0.0151
 4784W        W20678   0.256   5.178   3.690  0.1427  0.3119 -0.1432
 4785W        W20679  10.883  15.112   4.525  0.1892  0.1310 -0.1559
 4786W        W20680  17.211  12.874   3.143  0.1032 -0.0898 -0.1382
 4787W        W20681  16.863  16.540   0.129  0.0797  0.3040 -0.3500
 4788W        W20682   6.395   2.101   4.011  0.0480  0.2748 -0.3016
 4789W        W20683  14.458   9.525   1.986  0.1312 -0.1335 -0.0516
 4790W        W20684  15.087  11.958  10.740  0.2227  0.1711  0.0882
 4791W        W20685  11.483   3.823   5.471  0.1689  0.1683 -0.2524
 4792W        W20686  14.724   6.126  11.184  0.0611  0.2779 -0.0705
 4793W        W20687  13.891  16.589  13.727 -0.0256  0.1426 -0.3248
 4794W        W20688   1.102  15.527  14.944 -0.3164 -0.2522 -0.1341
 4795W        W20689   8.887   9.459  15.033  0.1121  0.2815 -0.1037
 4796W        W20690  15.142  14.657   5.589  0.4697 -0.0105 -0.0521
 4797W        W20691   9.408   1.054   0.174 -0.0404 -0.1588  0.0634
 4798W        W20692   5.509   4.652   0.518  0.0757 -0.1837 -0.2577
 4799W        W20693   6.035   4.083   1.276  0.1191  0.1897 -0.0241
 4800W        W20694   7.022   5.908  13.779  0.1624 -0.0901 -0.0081
 4801W        W20695   2.113   2.494   1.672  0.0024  0.5210  0.2699
 4802W        W20696   4.246   8.171  13.209  0.1180  0.0110 -0.6014
 4803W        W20697   6.740  17.019   3.790 -0.2616  0.0936 -0.1042
 4804W        W20698  12.099   3.804  12.971 -0.2793  0.5529  0.1776
 4805W        W20699  15.789   5.084  15.565  0.2187 -0.1481  0.0395
 4806W        W20700  18.526   4.665   0.125 -0.0755  0.1114 -0.0614
 4807W        W20701   0.684  18.244  14.175 -0.4921 -0.0234  0.1054
 4808W        W20702   1.352  18.721   5.107  0.1548 -0.5420  0.0113
 4809W        W20703  11.846   6.968  13.064 -0.1635 -0.2440 -0.4309
 4810W        W20704  15.278   8.550   5.617  0.0747 -0.1227 -0.1705
 4811W        W20705  15.581  15.057   5.251  0.1467 -0.2263  0.1070
 4812W        W20706   5.062   5.835  12.416 -0.2029  0.2600 -0.3460
 4813W        W20707  10.001  13.757  13.319 -0.1339 -0.0389 -0.3160
 4814W        W20708  16.194  18.763   2.041 -0.0697  0.0518  0.1025
 4815W        W20709   6.103  15.195   3.647  0.0283 -0.1034  0.2820
 4816W        W20710  15.710  17.713   1.009 -0.6077 -0.2503 -0.0170
 4817W        W20711  16.193  12.083  15.290  0.2357  0.1970  0.0810
 4818W        W20712   5.351  13.945   1.479 -0.0917  0.0019 -0.3456
 4819W        W20713   7.166  17.256   2.856  0.1979  0.0803 -0.1342
 4820W        W20714   9.494  18.159   0.380 -0.0958 -0.0720 -0.0722
 4821W        W20715   5.947   2.035  12.487  0.2179  0.0372 -0.1079
 4822W        W20716   1.641  11.293   3.763 -0.1162 -0.0021  0.0258
 4823W        W20717   5.652  16.886   0.428  0.2892 -0.2369  0.1030
 4824W        W20718   1.854  12.541  14.057  0.0650 -0.6008  0.0521
 4825W        W20719  13.309  11.930   0.698 -0.5465 -0.3113  0.1599
 4826W        W20720  14.374   5.806  14.868  0.1683  0.3083 -0.1391
 4827W        W20721   7.035   7.535  14.926  0.0622  0.3249 -0.4910
 4828W        W20722  10.448   6.530   2.194 -0.0306  0.1690 -0.3026
 4829W        W20723   9.483  16.362   9.909  0.1330 -0.1423  0.0373
 4830W        W20724  14.784   2.486   4.761 -0.1470 -0.0821 -0.0820
 4831W        W20725  11.404  11.294   3.132  0.0380  0.1512 -0.1529
 4832W        W20726  15.589   2.026   2.172  0.1747  0.1498  0.2431
 4833W        W20727   4.244   8.244  14.921  0.2431  0.0032  0.0153
 4834W        W20728   5.301   4.341   3.416  0.2120 -0.2221  0.1301
 4835W        W20729   5.623   2.739  13.176 -0.1787  0.2309  0.1131
 4836W        W20730   1.020  14.935   2.272  0.1033 -0.1967 -0.1277
 4837W        W20731  14.740  11.002   4.155 -0.1536  0.1414 -0.1534
 4838W        W20732   3.643  15.674   3.700 -0.1115 -0.1156  0.0431
 4839W        W20733  13.430   0.089   2.871  0.0745 -0.0275 -0.2745
 4840W        W20734  16.358  11.493   1.542  0.4194 -0.1467  0.3315
 4841W        W20735  11.549   6.623  11.444  0.0881 -0.0747 -0.0184
 4842W        W20736  14.286   3.093   2.015 -0.0686 -0.4174 -0.3527
 4843W        W20737  14.725   4.294   4.488  0.2522 -0.2372  0.1155
 4844W        W20738  10.681   0.900  12.388  0.0671  0.0285  0.1524
 4845W        W20739   7.049  18.100  13.395  0.1361 -0.1040  0.1946
 4846W        W20740   9.692  18.334   3.805 -0.0055 -0.2443  0.1274
 4847W        W20741   4.589  16.419  11.867  0.1089  0.1545  0.0318
 4848W        W20742  13.241   0.746   3.437 -0.2888 -0.0560  0.1361
 4849W        W20743  14.111   9.707  11.573 -0.4265 -0.1419  0.1973
 4850W        W20744   7.238  13.180  10.575 -0.1244 -0.1658 -0.0793
 4851W        W20745   8.208  12.496  15.309 -0.0455  0.2967  0.1688
 4852W        W20746   0.920   5.782   3.849  0.2272 -0.0631  0.0128
 4853W        W20747  11.151  12.447   1.053  0.0540  0.0062  0.0113
 4854W        W20748  18.051   0.689  12.460  0.0447  0.4211  0.2831
 4855W        W20749   9.631  12.191  14.175 -0.0959  0.2313  0.0259
 4856W        W20750   9.648   4.876   3.644  0.0623  0.2944 -0.0698
 4857W        W20751  13.776  15.900   6.134 -0.0638 -0.0274  0.1111
 4858W        W20752  12.943   0.319   2.151 -0.2844 -0.1242  0.0976
 4859W        W20753  10.264  10.166   2.375  0.1075 -0.2392  0.0868
 4860W        W20754   8.064   0.723   2.347 -0.0059  0.2706  0.3499
 4861W        W20755   4.774   7.330  12.168 -0.0279  0.1826  0.0823
 4862W        W20756   9.163   6.493   2.160  0.1686 -0.0554 -0.1816
 4863W        W20757   8.654   0.575   2.271  0.0907 -0.1077 -0.3349
 4864W        W20758  10.528  12.641  13.353 -0.2423  0.1689  0.1674
 4865W        W20759   5.523  17.820   0.126  0.1616  0.1900  0.0575
 4866W        W20760   2.611   2.531  12.372  0.0139 -0.0193  0.2059
 4867W        W20761  13.883   3.008   1.259  0.2443  0.0787 -0.0627
 4868W        W20762  15.849   7.149  12.089  0.1369  0.1879 -0.1670
 4869W        W20763  17.311   5.334   3.199  0.1072  0.0924  0.0018
 4870W        W20764  12.080  15.754   4.470  0.0346 -0.0025 -0.0106
 4871W        W20765  18.435   7.540   1.378  0.1433  0.3933  0.2887
 4872W        W20766   8.308   4.670   4.599  0.0820  0.1822  0.0744
 4873W        W20767  15.818   9.284  14.582  0.3999  0.1725 -0.3994
 4874W        W20768  14.598  15.413   1.898  0.1671 -0.1810  0.0461
 4875W        W20769   8.480   0.974  13.587 -0.1380  0.1046  0.0718
 4876W        W20770   6.526   0.170   4.256 -0.1627 -0.7387 -0.0668
 4877W        W20771  12.074  10.809  11.258  0.3574  0.0644  0.0132
 4878W        W20772  11.173  12.241  15.387 -0.1363 -0.3442 -0.3637
 4879W        W20773   1.696  16.420  11.939  0.0046 -0.1122  0.3913
 4880W        W20774  14.400   3.138   3.192 -0.3094 -0.2832  0.1085
 4881W        W20775  16.641  15.300  12.646 -0.3600  0.1581 -0.3688
 4882W        W20776   5.750  16.079   3.619 -0.2989  0.1259  0.4000
 4883W        W20777  12.620   6.206   0.454 -0.1380  0.1374  0.4299
 4884W        W20778   6.445  10.474   1.610  0.0390 -0.3179 -0.0575
 4885W        W20779  17.339   7.566  13.580  0.2586  0.3835 -0.3261
 4886W        W20780   2.650   4.144   2.000 -0.0280 -0.1349  0.1938
 4887W        W20781  13.670  13.816  15.054  0.2504 -0.2764 -0.2487
 4888W        W20782  18.753  11.162  14.270  0.0715 -0.0243 -0.2767
 4889W        W20783  11.977   3.686   3.087 -0.0991  0.1036 -0.1591
 4890W        W20784   9.188  16.452  12.473 -0.1468 -0.1674 -0.0927
 4891W        W20785  17.975   5.186  15.390 -0.2426 -0.1164 -0.0204
 4892W        W20786  15.380  15.334  12.898  0.0087  0.0318  0.1769
 4893W        W20787   6.965   2.896  12.956 -0.2200 -0.1430  0.2369
 4894W        W20788   2.927  17.732   3.941 -0.3874 -0.3009  0.2639
 4895W        W20789  10.579  11.216  12.985 -0.2663 -0.2862  0.2382
 4896W        W20790  17.899  12.664  12.325  0.0258 -0.1369 -0.3579
 4897W        W20791   2.951  18.040   5.667 -0.0963 -0.0698 -0.3267
 4898W        W20792   3.891   4.555   1.149  0.0157 -0.0378  0.2286
 4899W        W20793   5.858   7.173   0.837  0.1816  0.3087  0.3271
 4900W        W20794  18.130  12.215   3.898 -0.1430  0.0086 -0.0181
 4901W        W20795   3.247   4.861   2.399 -0.0209  0.0325 -0.0496
 4902W        W20796  18.148   8.923   2.205 -0.0910  0.1465  0.1360
 4903W        W20797   9.188  14.529  14.796  0.1530 -0.0980 -0.0444
 4904W        W20798  18.610  14.579  13.172 -0.1738  0.1306 -0.2013
 4905W        W20799   7.783  12.253  15.183  0.1561 -0.0171  0.1249
 4906W        W20800  14.643   5.815   0.849 -0.2564  0.2843  0.0752
 4907W        W20801  13.339   1.732   5.069  0.4125 -0.1279 -0.0800
 4908W        W20802   6.115   9.757   3.919  0.0221 -0.1153  0.1375
 4909W        W20803  17.757  11.609  15.318  0.0537  0.1871 -0.0187
 4910W        W20804   1.041  12.300  10.907  0.1200 -0.0447 -0.2578
 4911W        W20805  11.251  17.566   1.510  0.2557 -0.0040 -0.0057
 4912W        W20806  12.774   8.645   3.951 -0.0665  0.2301  0.2567
 4913W        W20807  11.068   9.164   2.910 -0.3293 -0.2431  0.1745
 4914W        W20808  16.890  13.728   2.158 -0.2615  0.0655  0.0559
 4915W        W20809   3.334   3.278  14.276  0.0374 -0.0483  0.0121
 4916W        W20810   5.990  14.576  14.567 -0.0668 -0.1941  0.0139
 4917W        W20811   8.337   5.620   0.952 -0.0452 -0.0592  0.0573
 4918W        W20812   3.309  11.174  13.808  0.1999  0.0421 -0.0333
 4919W        W20813   9.576  12.755   0.187  0.0562 -0.0935  0.0679
 4920W        W20814   8.658   9.844   0.544 -0.0206  0.1372  0.4089
 4921W        W20815  10.932  16.483   4.210 -0.0139 -0.2915 -0.2506
 4922W        W20816  18.138  14.698  11.304  0.0359  0.0388 -0.2562
 4923W        W20817   2.219   2.525  14.537  0.0180 -0.1432  0.2935
 4924W        W20818  18.477   0.359   5.622 -0.1095 -0.2932 -0.0458
 4925W        W20819  12.367  11.376   2.556 -0.1912  0.1129  0.1186
 4926W        W20820   4.486   9.034   4.192 -0.0129 -0.2036 -0.1472
 4927W        W20821   9.361   0.453  14.696 -0.2863 -0.2190  0.1541
 4928W        W20822  18.009  10.559   0.325 -0.0979 -0.0474  0.0253
 4929W        W20823  17.464  15.200  10.605 -0.1532 -0.0401  0.2672
 4930W        W20824  14.770   0.334  12.758  0.0893 -0.1872  0.1308
 4931W        W20825  11.043   5.729  15.001 -0.2157  0.0843  0.0459
 4932W        W20826   3.464  16.219  15.219 -0.0346 -0.0496  0.1649
 4933W        W20827   4.216  14.093  12.876  0.0122  0.2537  0.1127
 4934W        W20828   9.039  16.201  11.816  0.0788 -0.3729 -0.1688
 4935W        W20829   4.011  12.413  12.696  0.0740 -0.0356  0.2453
 4936W        W20830   1.779   4.850  14.135  0.1689 -0.0484  0.0356
 4937W        W20831  17.873   4.467  13.633 -0.0675  0.1250  0.0617
 4938W        W20832   1.141   4.384  10.434  0.0991  0.2052  0.0265
 4939W        W20833  15.121   6.000  10.551  0.1792  0.1577 -0.1838
 4940W        W20834  16.753   2.302   2.449  0.0175  0.0378 -0.0703
 4941W        W20835   5.528   7.080  15.455  0.0290  0.0717 -0.1122
 4942W        W20836  15.154   8.857   4.298  0.0257  0.0739 -0.2469
 4943W        W20837   5.047   0.893  12.106  0.2237  0.1003  0.0940
 4944W        W20838  17.678   2.557  10.884  0.0294 -0.1700  0.0891
 4945W        W20839   6.403  10.870  12.871 -0.0369 -0.0012 -0.2519
 4946W        W20840  11.850  18.602  15.180  0.2696  0.1719  0.0387
 4947W        W20841   8.385  16.442   4.030  0.2772 -0.1055 -0.0105
 4948W        W20842  15.833   6.071   2.322 -0.3342  0.0506  0.3145
 4949W        W20843   5.726   4.628  14.887  0.2192  0.3271 -0.1306
 4950W        W20844   5.798  17.012  11.893 -0.0373 -0.0080 -0.1951
 4951W        W20845   1.057  14.676   2.802  0.1808 -0.0005 -0.0325
 4952W        W20846  17.322   0.485   2.522 -0.0920  0.3652 -0.1331
 4953W        W20847  16.444  14.181  10.782 -0.0177 -0.1721  0.4002
 4954W        W20848   7.888  10.391  13.329 -0.3205 -0.0210 -0.1935
 4955W        W20849  12.524   8.405   1.407  0.1020  0.1201 -0.0975
 4956W        W20850   2.885  12.185  15.406 -0.0804 -0.0705  0.0739
 4957W        W20851   2.064   2.378   2.836 -0.0348 -0.3443  0.1637
 4958W        W20852  17.814  15.281  12.991  0.3702  0.2324  0.0049
 4959W        W20853   3.383   1.356  11.771  0.2021  0.2183  0.1093
 4960W        W20854  17.794  17.333   2.934 -0.1711  0.0657  0.0458
 4961W        W20855   0.409   6.355  15.241  0.4069  0.0608  0.1815
 4962W        W20856  14.998  10.646   4.786  0.1724 -0.1425 -0.1854
 4963W        W20857  18.640   7.896   1.034 -0.0738 -0.3045 -0.2255
 4964W        W20858   8.225   3.414   1.920  0.3204  0.1897  0.0807
 4965W        W20859  15.646   0.245  10.555 -0.1674  0.0235  0.2202
 4966W        W20860   9.410   4.464  13.060 -0.0733 -0.4612  0.4110
 4967W        W20861   8.564   2.229  15.626  0.0285  0.2762 -0.0358
 4968W        W20862  10.994  12.814  15.547  0.2789  0.0661 -0.0055
 4969W        W20863  13.661  14.001  11.731  0.2595  0.5481  0.3321
 4970W        W20864   1.186  10.765   1.627  0.2403 -0.1225  0.0847
 4971W        W20865   3.823   5.438   0.370 -0.0538 -0.1289  0.4518
 4972W        W20866   1.426   4.202   0.694  0.3242 -0.1034 -0.0636
 4973W        W20867   1.934  16.865  14.540  0.1150  0.3407 -0.4009
 4974W        W20868   5.308  13.555   2.090 -0.2723  0.0034 -0.0912
 4975W        W20869   7.637   9.947   2.354 -0.0142  0.0319  0.1773
 4976W        W20870   9.960   2.659  12.401  0.4151  0.1865 -0.0432
 4977W        W20871  15.915   0.517  14.612 -0.1188 -0.4348 -0.3218
 4978W        W20872  18.386  11.657  12.474  0.1994  0.1279  0.1809
 4979W        W20873   1.823   1.332   5.289  0.0630 -0.0071  0.1559
 4980W        W20874  11.931  13.593  11.266 -0.2015  0.0165 -0.2204
 4981W        W20875  12.958  13.324  12.075 -0.2665 -0.3470 -0.1264
 4982W        W20876   3.166  18.091   0.942  0.2596 -0.0954 -0.1361
 4983W        W20877  17.163  11.296   3.230 -0.1691 -0.1411  0.1201
 4984W        W20878   2.632  17.190   0.462 -0.2254  0.1868 -0.0189
 4985W        W20879   9.240  17.702   2.285  0.3160  0.0436  0.0578
 4986W        W20880   6.450   7.533  11.400 -0.2385  0.0741 -0.0845
 4987W        W20881  10.925  15.331   3.793 -0.0908 -0.0113 -0.0451
 4988W        W20882  13.893   0.127   0.991  0.1199  0.4456 -0.2648
 4989W        W20883  16.479   2.509   3.461 -0.0461  0.0685  0.0837
 4990W        W20884  12.878   7.244   5.159  0.0633  0.2067  0.1210
 4991W        W20885  17.636   4.368   0.044 -0.3584 -0.1190  0.1648
 4992W        W20886   6.147   8.006  12.509 -0.0205 -0.0408  0.0993
 4993W        W20887  11.987  13.204   4.851  0.2978 -0.2770 -0.2288
 4994W        W20888   6.297  13.699  10.158 -0.1913 -0.0121  0.2660
 4995W        W20889  14.292   6.660  15.485  0.1843 -0.0306 -0.1865
 4996W        W20890   9.874  13.261  13.164  0.0869 -0.0586  0.0329
 4997W        W20891  18.746   0.998   2.040 -0.0292 -0.2504 -0.2712
 4998W        W20892  15.046   3.117  14.071  0.2188  0.0996  0.1928
 4999W        W20893   5.370  10.230   0.706 -0.3323  0.3659 -0.3372
 5000W        W20894   6.975  13.183   2.305 -0.1211  0.0621 -0.4405
 5001W        W20895   8.404   3.457  11.376 -0.2841 -0.0456 -0.0222
 5002W        W20896   4.104  15.269   1.209  0.2131  0.1480  0.0727
 5003W        W20897  14.778   0.142   4.716 -0.1307 -0.2588  0.2601
 5004W        W20898  12.013   0.050  14.733 -0.1188 -0.1101  0.3414
 5005W        W20899   3.459  11.505   1.745  0.1147  0.1252 -0.1107
 5006W        W20900  10.117   0.282  15.216  0.1511 -0.1097 -0.0069
 5007W        W20901   7.595  12.961  13.959  0.0137  0.0423 -0.2100
 5008W        W20902   8.047  15.842   2.899  0.1573  0.5118  0.1281
 5009W        W20903  10.166   9.271  10.043  0.0218 -0.0935  0.1569
 5010W        W20904  10.304   0.275  14.078  0.0486 -0.1952  0.0430
 5011W        W20905  10.789  11.844  13.850 -0.4140  0.2675  0.2261
 5012W        W20906   7.984  12.621   5.234 -0.1724  0.0904 -0.3077
 5013W        W20907  12.066  14.780   4.291 -0.1576 -0.0959 -0.2938
 5014W        W20908  17.037  16.720   2.689  0.5683  0.1898 -0.0355
 5015W        W20909   1.732   5.812   0.736  0.0623  0.1341 -0.1060
 5016W        W20910   1.088  18.339  13.789  0.2936  0.2682  0.2860
 5017W        W20911  13.763  10.467  14.910 -0.1169 -0.0539 -0.1788
 5018W        W20912   4.201  12.201   4.537 -0.0613  0.0645 -0.0550
 5019W        W20913   8.830   6.995   1.686 -0.0829  0.0480 -0.3772
 5020W        W20914   2.761   7.194   3.846  0.0459 -0.0450 -0.1404
 5021W        W20915   8.621   6.658   2.866  0.2445 -0.4097  0.1593
 5022W        W20916  16.233  13.172  13.456 -0.0631  0.1289 -0.3083
 5023W        W20917   3.624   5.624  12.907  0.5478 -0.3772 -0.0714
 5024W        W20918  13.877   2.137   1.657 -0.1868  0.0375 -0.0533
 5025W        W20919   7.320   2.667   0.924 -0.0901 -0.2578 -0.3244
 5026W        W20920  17.238   9.338   0.484 -0.4040 -0.1414  0.2373
 5027W        W20921   2.150   2.660   1.155  0.1669 -0.1760  0.0691
 5028W        W20922  11.430   3.966   9.762 -0.0395 -0.2263 -0.1976
 5029W        W20923  12.459   4.118  12.891 -0.4945  0.2840 -0.1227
 5030W        W20924   1.574   9.322   2.107  0.1399 -0.0531  0.0236
 5031W        W20925  14.582   6.334   4.968 -0.0642  0.0756 -0.1060
 5032W        W20926   9.261   8.514  12.132 -0.1184 -0.1024  0.0710
 5033W        W20927   3.795   2.394  10.853  0.0972  0.1226  0.0202
 5034W        W20928  11.344   1.090  13.062  0.3490  0.1474 -0.0339
 5035W        W20929   8.730   1.677  15.472 -0.0757 -0.1292 -0.3595
 5036W        W20930  14.398  12.224  15.464  0.3177 -0.1285  0.0160
 5037W        W20931   6.618   7.801   0.517  0.2251 -0.5277  0.2109
 5038W        W20932   3.818  17.941  13.320  0.1277 -0.0169  0.2624
 5039W        W20933   7.182  13.557   1.366  0.1673  0.1198  0.0486
 5040W        W20934  12.767   3.826   3.229  0.0324 -0.1510  0.2708
 5041W        W20935   5.573   2.470   1.826 -0.1953  0.0578  0.0086
 5042W        W20936  11.582  12.600   2.516 -0.1976 -0.0076 -0.1411
 5043W        W20937  12.010   4.575   4.596  0.0667  0.0429 -0.0118
 5044W        W20938   7.282  16.966   2.053  0.0600 -0.0257 -0.2357
 5045W        W20939  15.974  11.923   3.047  0.0870  0.5085  0.0158
 5046W        W20940  14.852  17.130  15.318  0.0345  0.0015  0.1325
 5047W        W20941   8.392  15.238   2.058  0.0808  0.1216  0.0592
 5048W        W20942   5.203   3.325  12.589  0.0295 -0.1020  0.1578
 5049W        W20943   4.461   6.924   1.015 -0.1108 -0.1807  0.1683
 5050W        W20944   1.546  13.190  14.574  0.0355 -0.0919 -0.1145
 5051W        W20945   5.389   6.701  11.006  0.1821  0.0593 -0.1517
 5052W        W20946  18.438   4.413  12.796  0.3028 -0.1817  0.2532
 5053W        W20947  14.409  14.605  13.784  0.0577  0.1042  0.0134
 5054W        W20948   0.769  17.229  13.654 -0.3007 -0.3513  0.0425
 5055W        W20949   6.540   9.755  14.346  0.1376 -0.0227  0.2929
 5056W        W20950   2.201  13.717   2.175 -0.0669 -0.2767 -0.1032
 5057W        W20951  12.626   5.603   1.576  0.0084 -0.0073 -0.1916
 5058W        W20952  17.414   9.984   4.857  0.0669 -0.0148  0.0072
 5059W        W20953   9.823  16.439   5.556 -0.1194  0.0758  0.2783
 5060W        W20954  14.656  18.217   3.005  0.1588 -0.0473 -0.1752
 5061W        W20955  15.742   4.919   4.835 -0.1518  0.1124  0.0159
 5062W        W20956   8.604  12.287  15.080 -0.0108  0.3333 -0.0493
 5063W        W20957   3.262   8.130   0.153  0.2006 -0.1826 -0.1802
 5064W        W20958   8.984  11.758  10.045  0.2232  0.1322  0.0684
 5065W        W20959   0.017   7.954   1.603  0.1361  0.4215 -0.0744
 5066W        W20960  18.580   4.055  13.659  0.1224  0.1786 -0.2113
 5067W        W20961  13.051  14.611   4.377 -0.1590  0.1344  0.0457
 5068W        W20962  10.259   9.526  15.182  0.2155  0.0137 -0.1118
 5069W        W20963  15.443  15.352   3.454  0.1373  0.0192  0.3047
 5070W        W20964  14.633   1.314   3.074  0.2302 -0.3267  0.1489
 5071W        W20965   9.180   3.889  13.641 -0.0047 -0.1181  0.2730
 5072W        W20966   5.856   5.228  12.516  0.0877 -0.3783 -0.1097
 5073W        W20967  12.278   5.517   4.742 -0.1833 -0.3319  0.0340
 5074W        W20968   1.972   9.229   4.250 -0.2146  0.2115  0.2337
 5075W        W20969  10.034  11.650   2.772  0.0890  0.0363 -0.0112
 5076W        W20970   9.066   7.304  15.252  0.0420  0.0492  0.0252
 5077W        W20971  12.927  16.621  10.807 -0.1126 -0.1098 -0.0937
 5078W        W20972   6.924   7.861   2.808 -0.3474 -0.3191  0.1693
 5079W        W20973  11.176   8.733  12.088 -0.3796 -0.2829 -0.2787
 5080W        W20974  13.831   8.454  11.530 -0.1144 -0.0661 -0.1570
 5081W        W20975   4.792  17.828  11.778 -0.0045  0.1019  0.0236
 5082W        W20976  11.171  15.896  14.603  0.1367  0.1875  0.0204
 5083W        W20977  10.252   0.122   0.373  0.2463  0.0633  0.1578
 5084W        W20978  16.986   9.774  11.687 -0.1126  0.3341 -0.2620
 5085W        W20979  16.261   3.033   2.181 -0.0925 -0.0286 -0.1401
 5086W        W20980  16.401  18.005  14.582  0.1750 -0.0136 -0.1516
 5087W        W20981   2.171  14.842  14.111  0.5036 -0.2322 -0.0238
 5088W        W20982   3.096   7.274  12.556  0.0063  0.0777  0.3415
 5089W        W20983   0.090   6.332   0.167  0.0053 -0.2884 -0.1046
 5090W        W20984   6.621  16.212  13.083 -0.1190 -0.2299  0.3080
 5091W        W20985  15.485  16.172  14.047 -0.0992 -0.0154  0.0524
 5092W        W20986  14.467  17.778   2.889 -0.2578  0.0352  0.1355
 5093W        W20987   3.159   4.071   1.395 -0.3068  0.2325  0.1270
 5094W        W20988   1.847  13.685   1.741  0.3174 -0.0226  0.0935
 5095W        W20989  13.401  13.411  15.542  0.1676  0.1409  0.0582
 5096W        W20990  15.925  10.048   5.127  0.3805  0.2386 -0.3193
 5097W        W20991  12.486  18.347   1.100  0.0092  0.2032 -0.1795
 5098W        W20992   5.138   9.894  15.538  0.1768  0.4220  0.0615
 5099W        W20993   7.150  15.810  15.146  0.0224  0.1141  0.0614
 5100W        W20994  12.212   7.954   0.690  0.1806 -0.1995 -0.0788
 5101W        W20995   6.772  15.322  12.700 -0.1167 -0.1752 -0.0871
 5102W        W20996   0.599  16.216  14.102  0.0396  0.2376  0.0062
 5103W        W20997  10.603  13.600  12.136  0.2657  0.0912  0.0855
 5104W        W20998   6.444   5.240   4.693  0.0974  0.2026 -0.3617
 5105W        W20999  10.302  17.827   1.521  0.3235 -0.0508  0.0328
 5106W        W21000   0.491  12.193  11.879  0.1639  0.1772  0.0628
 5107W        W21001  10.888   5.463   1.990 -0.5148  0.1020 -0.1396
 5108W        W21002   0.300  10.748  13.538  0.0853  0.1784 -0.3267
 5109W        W21003   2.086  16.586  12.192  0.0843 -0.4698  0.0191
 5110W        W21004   6.189   0.611  11.723 -0.2332 -0.0610 -0.1281
 5111W        W21005   5.224   0.972  15.479 -0.1302  0.0660  0.0791
 5112W        W21006  13.249   6.633  13.989 -0.0201 -0.1514 -0.1525
 5113W        W21007  16.739  17.979  11.104  0.2086 -0.1320 -0.1577
 5114W        W21008   8.504  12.415  11.605  0.0788 -0.0857  0.1275
 5115W        W21009   9.188  14.856  14.315  0.2934  0.0722 -0.0271
 5116W        W21010   2.665   5.283  12.398 -0.2868 -0.2056 -0.0143
 5117W        W21011  14.865   0.331   1.843  0.0665  0.2927 -0.2830
 5118W        W21012  15.088  13.873  13.467  0.1880 -0.0686 -0.0424
 5119W        W21013   4.422  12.458   4.917 -0.0953 -0.0536 -0.0785
 5120W        W21014  15.118  15.601  13.615 -0.0702 -0.0653 -0.2003
 5121W        W21015   4.212   2.772   4.057  0.0414  0.1082  0.2279
 5122W        W21016   6.495   4.353   4.171 -0.0314  0.0067 -0.1321
 5123W        W21017   5.068  14.402   2.502 -0.2677  0.1779  0.1336
 5124W        W21018  13.827  16.338   4.806  0.0240  0.2881  0.2196
 5125W        W21019   5.846  17.533   3.173 -0.0760  0.0696  0.2815
 5126W        W21020   3.926   9.232  11.163 -0.1663 -0.1100 -0.1397
 5127W        W21021  18.365  14.334  15.037 -0.0412  0.2782  0.1888
 5128W        W21022   2.652  14.326   2.366 -0.1001 -0.2572 -0.2999
 5129W        W21023  18.229   4.797   4.790  0.2786  0.0625  0.0023
 5130W        W21024  18.541   4.053  15.056 -0.2283  0.1394 -0.3108
 5131W        W21025   9.097   3.775  10.941  0.0133  0.1126  0.1400
 5132W        W21026   9.147   3.250  12.307  0.2230  0.0203  0.3623
 5133W        W21027  13.361  17.970  10.916  0.2339 -0.1777  0.2081
 5134W        W21028   2.632   9.281  14.625 -0.0518  0.1749  0.1650
 5135W        W21029   4.124  10.680  12.558 -0.4275  0.0042 -0.1184
 5136W        W21030   0.154   0.417  15.592  0.2855  0.4164 -0.2219
 5137W        W21031   7.430  15.767  12.008  0.0702  0.1397 -0.1007
 5138W        W21032   5.354  13.878  10.339  0.0768  0.0772  0.1352
 5139W        W21033   7.257   9.712  13.532  0.0047 -0.0093 -0.1266
 5140W        W21034   7.767  18.100  11.051 -0.3485  0.1338  0.2005
 5141W        W21035   9.956   7.248  14.203 -0.2073 -0.0694  0.2218
 5142W        W21036  16.472  18.697  14.648  0.1042  0.4734 -0.4317
 5143W        W21037   0.959  17.217   3.103 -0.5266  0.3125  0.2626
 5144W        W21038   3.974   3.810  14.510 -0.1558 -0.1408 -0.1600
 5145W        W21039   9.978   2.972   3.308 -0.3612  0.1122 -0.0225
 5146W        W21040   0.670   8.294  12.111 -0.1270  0.0451  0.1657
 5147W        W21041   7.882   2.960  12.901  0.0627  0.3588 -0.0429
 5148W        W21042  12.539   7.108   4.210 -0.0695  0.0282 -0.1286
 5149W        W21043  12.525  16.367   0.474  0.3269  0.0423  0.2969
 5150W        W21044   9.312   9.238  14.800 -0.1605  0.1092 -0.1364
 5151W        W21045  15.507  10.773  13.684 -0.2648  0.2020 -0.1017
 5152W        W21046   3.765   8.189   0.131 -0.1153  0.0427 -0.3575
 5153W        W21047  14.049  10.695   4.011 -0.1624 -0.2918  0.1904
 5154W        W21048   6.665   3.104  13.464 -0.0766 -0.2683  0.2654
 5155W        W21049  18.109  11.119   4.662 -0.0291 -0.0436  0.0269
 5156W        W21050  17.917  10.934   5.722 -0.1129 -0.1481  0.1885
 5157W        W21051   5.320  17.309  12.666  0.0869 -0.1711 -0.3794
 5158W        W21052   0.127  12.017  14.555 -0.3139 -0.1513  0.0081
 5159W        W21053   0.951  12.226   2.985 -0.1386  0.2186  0.2299
 5160W        W21054  18.057  18.315   2.842 -0.0007  0.1861 -0.1578
 5161W        W21055  16.443  12.816  15.100 -0.0056  0.0995  0.0773
 5162W        W21056   1.283   0.546  11.178  0.2426 -0.1760  0.1457
 5163W        W21057   8.049   6.688  13.447  0.0803 -0.0109 -0.0599
 5164W        W21058   7.130  18.327   3.380  0.1643  0.0726  0.1667
 5165W        W21059  10.024   3.625  12.722  0.1772 -0.2564 -0.3774
 5166W        W21060  10.364   6.328  10.372  0.2150 -0.2787  0.2533
 5167W        W21061  15.920  13.818  12.814 -0.1480 -0.2500  0.3374
 5168W        W21062   9.330  18.109  11.099  0.3440 -0.0441 -0.1930
 5169W        W21063  17.574   1.053   1.649  0.0409 -0.0966 -0.2816
 5170W        W21064  13.922   8.860   3.562 -0.0896 -0.1031  0.1781
 5171W        W21065   3.099  11.129  12.051  0.1136 -0.3172  0.3012
 5172W        W21066  18.554  10.673  11.476  0.4023  0.1558  0.3100
 5173W        W21067  10.386  12.516   4.037  0.2585  0.3356  0.3421
 5174W        W21068   2.438  16.234  14.572  0.4471 -0.3905  0.0985
 5175W        W21069  12.826  15.671  14.789  0.0299  0.1275  0.1318
 5176W        W21070   5.600   8.598  15.001 -0.2341 -0.1255  0.1924
 5177W        W21071   5.753  12.010   3.880  0.3419  0.0653 -0.2311
 5178W        W21072   1.881   2.278  14.181 -0.1678 -0.0086  0.2292
 5179W        W21073   1.001   2.871  12.280  0.1488 -0.2988 -0.1333
 5180W        W21074  10.852  17.201  12.826  0.0877 -0.3108  0.0887
 5181W        W21075  10.703   0.997   0.534  0.1858 -0.0781 -0.2647
 5182W        W21076   4.668   1.923  10.553  0.0387  0.0221 -0.0467
 5183W        W21077  11.396  11.680  14.619 -0.2463  0.3074 -0.2275
 5184W        W21078  17.626   3.753  15.330  0.0804 -0.2334  0.1607
 5185W        W21079  10.329   9.918  14.907 -0.0287 -0.0161 -0.0539
 5186W        W21080   4.282  14.892  11.645 -0.2809 -0.0252  0.1937
 5187W        W21081  16.320   6.565   1.695  0.1040 -0.1675 -0.2200
 5188W        W21082  10.450   4.773   2.098 -0.1167 -0.1553 -0.3932
 5189W        W21083  11.555  13.910   2.048  0.0203 -0.1894 -0.0890
 5190W        W21084  10.461   2.544  12.288 -0.3459 -0.5186  0.1520
 5191W        W21085  14.949   9.953  10.602  0.0025  0.0675 -0.0324
 5192W        W21086  11.793  15.836   3.218  0.1217  0.1742  0.1441
 5193W        W21087   8.080   3.946  15.570  0.1478 -0.2080  0.3264
 5194W        W21088  15.856   5.071  12.306  0.2523  0.1897  0.0303
 5195W        W21089   4.974  14.544  11.931  0.0853  0.0051  0.0692
 5196W        W21090   4.109   1.708   4.920  0.1417 -0.0495  0.1774
 5197W        W21091  11.877   2.454   1.484  0.0836 -0.3442  0.0720
 5198W        W21092  15.490  16.150  14.505 -0.2560 -0.2642 -0.0501
 5199W        W21093  16.453  16.087   3.655 -0.3154 -0.1091  0.0390
 5200W        W21094  17.712  15.360   3.833  0.2208 -0.0074 -0.1162
 5201W        W21095   4.430  16.979   3.207 -0.0759  0.1814  0.3218
 5202W        W21096   8.050  13.592  11.886 -0.2771 -0.2609  0.0052
 5203W        W21097   9.930   8.385   4.954 -0.1914 -0.0611 -0.0752
 5204W        W21098  10.703   1.509  14.590  0.1963 -0.1322  0.1234
 5205W        W21099   5.761   9.178   3.948 -0.0651 -0.0923  0.1547
 5206W        W21100  16.587  15.388  13.156  0.1176  0.0230  0.0267
 5207W        W21101  10.364   6.897   0.755  0.0389 -0.1647 -0.1234
 5208W        W21102  10.691  15.971  12.060  0.1776 -0.1223  0.1390
 5209W        W21103  18.541  14.145  13.423  0.1610  0.0174  0.0032
 5210W        W21104  11.979   1.206   1.081 -0.1680  0.2540 -0.1542
 5211W        W21105  17.946   8.038   1.765  0.0456 -0.1038 -0.2880
 5212W        W21106   3.738   1.599  13.866 -0.2907 -0.2183  0.4907
 5213W        W21107  17.226  18.306  15.583 -0.0158  0.2705  0.1942
 5214W        W21108   6.272   6.037   4.139  0.1478  0.4094  0.1016
 5215W        W21109  13.101   8.572   5.435 -0.0873 -0.0708 -0.2920
 5216W        W21110   6.329   3.428  15.337 -0.0418 -0.0788 -0.0611
 5217W        W21111   9.041  12.631   3.059 -0.0593 -0.2247 -0.2515
 5218W        W21112   0.934  14.915   5.704 -0.0305  0.0016 -0.0109
 5219W        W21113   5.139  16.720  10.494 -0.1125  0.0239  0.0607
 5220W        W21114   5.876   7.160  13.985  0.1632  0.3145 -0.2087
 5221W        W21115   3.486   0.893  11.577  0.4306  0.1256 -0.0055
 5222W        W21116  16.720   2.227  14.357  0.1344 -0.1623  0.0350
 5223W        W21117   8.901   3.382  15.584  0.0491  0.1046 -0.0109
 5224W        W21118   4.612   4.015  13.365  0.1284 -0.1415 -0.1663
 5225W        W21119   0.999   9.067  12.487 -0.0096 -0.1127  0.0484
 5226W        W21120  18.441  17.481  12.885 -0.0754  0.0293  0.1240
 5227W        W21121   0.422  18.036   4.749 -0.0890 -0.0310 -0.1958
 5228W        W21122   2.334   7.388   3.713 -0.1934  0.3668  0.3550
 5229W        W21123  13.665  16.066  10.344 -0.0838  0.0734 -0.0936
 5230W        W21124   0.823   2.143  11.887  0.1104 -0.1401 -0.0176
 5231W        W21125   4.673   1.633  13.508 -0.2888  0.0397  0.1407
 5232W        W21126  16.852  17.692  13.804  0.0934 -0.1336  0.2489
 5233W        W21127   5.512  18.214   3.001 -0.0707 -0.0522  0.2816
 5234W        W21128  12.202  18.150   3.491  0.0294 -0.2746  0.0703
 5235W        W21129   3.761   7.196  13.547 -0.2384 -0.1130 -0.0259
 5236W        W21130  12.464  15.276  13.635  0.0567  0.0695 -0.0159
 5237W        W21131  13.470  15.963  13.101 -0.0741 -0.2699 -0.2140
 5238W        W21132   7.652   7.195   4.694  0.4250  0.2105 -0.1461
 5239W        W21133   7.108   9.018  11.210  0.1551 -0.3563 -0.2249
 5240W        W21134  12.498  14.994   0.149 -0.1290 -0.2610  0.0358
 5241W        W21135  11.397   9.415   4.390  0.3658 -0.2012  0.1217
 5242W        W21136   3.196  17.866   0.369  0.3003 -0.3196  0.0856
 5243W        W21137  16.453  16.270  12.492  0.0588 -0.1877 -0.2091
 5244W        W21138   2.091   6.247   4.435  0.1072 -0.3087 -0.3157
 5245W        W21139  18.082  17.592  12.408  0.2079  0.3138  0.0369
 5246W        W21140  15.426  17.945   3.884 -0.1219  0.0277 -0.0255
 5247W        W21141   4.240   1.080   0.669 -0.2408  0.1165 -0.2722
 5248W        W21142  15.356  12.250   5.933  0.0815  0.1116 -0.1824
 5249W        W21143   2.269  17.657   4.028  0.0697 -0.1418 -0.4941
 5250W        W21144   6.275   8.476   2.451  0.0985 -0.0207  0.1191
 5251W        W21145   1.454   7.914   1.102 -0.1756  0.0152  0.3909
 5252W        W21146  17.879   2.728  15.429  0.0304 -0.0458 -0.1917
 5253W        W21147   7.436  10.396   2.504  0.3120  0.0078  0.2190
 5254W        W21148   8.891  14.713   2.854  0.3156  0.0384  0.1400
 5255W        W21149   5.447  15.904   1.329  0.0980 -0.2663 -0.2345
 5256W        W21150  12.608  15.646   1.586  0.3837 -0.0800 -0.1783
 5257W        W21151   7.168   2.964  15.520  0.3079 -0.1621  0.3189
 5258W        W21152   6.503   6.405   5.833 -0.1187 -0.3363  0.3329
 5259W        W21153   2.193   0.723  11.760 -0.0764 -0.0620  0.2413
 5260W        W21154  13.634  12.387  14.094 -0.4581  0.1182  0.1415
 5261W        W21155  10.314  12.686   3.303  0.0075 -0.2067 -0.2832
 5262W        W21156   4.406   1.222   1.135 -0.1284  0.2229 -0.1072
 5263W        W21157  11.467  14.904  14.817 -0.2231 -0.0384  0.0428
 5264W        W21158  12.867   9.262  13.554  0.0408 -0.2904 -0.0476
 5265W        W21159   6.539   1.561   3.772  0.2816 -0.1922 -0.0912
 5266W        W21160   0.662   5.457  11.856 -0.1586 -0.1449 -0.1939
 5267W        W21161   5.966   3.025   3.946 -0.1622  0.2919  0.0640
 5268W        W21162   1.054  16.703  14.591  0.0258  0.0700  0.1068
 5269W        W21163   9.782   3.722  11.513 -0.1815 -0.3388  0.1809
 5270W        W21164  17.609  12.129   3.867 -0.1891 -0.0061 -0.0707
 5271W        W21165   7.532   9.183  10.999  0.0899 -0.0352 -0.1356
 5272W        W21166   6.552  14.558   1.105  0.1955  0.4451 -0.3582
 5273W        W21167  16.686  17.785   5.062 -0.2125 -0.1230 -0.1407
 5274W        W21168   4.898  12.691  14.801  0.0484  0.0326 -0.1628
 5275W        W21169  15.530  13.209   4.935  0.3521 -0.1351  0.1665
 5276W        W21170  12.304  10.805   5.063 -0.1257 -0.1298  0.1473
 5277W        W21171   8.404  12.549  13.812  0.0134 -0.2551 -0.5770
 5278W        W21172  15.462   3.868  12.676 -0.2637 -0.1566  0.2296
 5279W        W21173  10.054   1.202  14.382 -0.0881 -0.0506  0.1873
 5280W        W21174   7.963   7.915   0.012  0.2007 -0.2162  0.0731
 5281W        W21175  16.802   2.023  14.848  0.0404 -0.0447 -0.1930
 5282W        W21176  11.251  15.158   0.339 -0.5183  0.2543  0.4773
 5283W        W21177  13.611   4.785   1.014  0.0311 -0.1814  0.1450
 5284W        W21178   2.682   9.096  10.919 -0.0924 -0.4394 -0.0291
 5285W        W21179  14.153  12.081  13.345 -0.2809 -0.0300  0.1438
 5286W        W21180  15.382  13.583  13.811 -0.0171 -0.0933 -0.0035
 5287W        W21181   0.785   8.345   3.651  0.0130  0.0277 -0.0431
 5288W        W21182   9.016   8.201   2.760  0.2929  0.0662  0.2185
 5289W        W21183   8.378  10.266  12.992 -0.0176 -0.1476 -0.4191
 5290W        W21184  12.515   6.895   4.902  0.0183 -0.0040  0.2006
 5291W        W21185  18.443  17.572   3.669 -0.0878 -0.0650 -0.1779
 5292W        W21186  18.696   3.988   4.330 -0.0452  0.0046 -0.0369
 5293W        W21187  18.128   9.955  13.149  0.1689  0.0383 -0.1113
 5294W        W21188  18.006  13.650  11.131  0.2296  0.2026 -0.0054
 5295W        W21189  16.026  13.466   6.154 -0.0813 -0.0642 -0.0936
 5296W        W21190   7.916  15.432   2.013 -0.1937 -0.1834  0.2262
 5297W        W21191  13.992   4.117   1.115 -0.1086  0.1758  0.1131
 5298W        W21192   9.100  11.702   4.379  0.0786  0.1216 -0.1577
 5299W        W21193   4.551  11.664  10.729  0.5073 -0.4752 -0.1831
 5300W        W21194   2.591  16.859   3.412  0.0595 -0.0181 -0.2142
 5301W        W21195  12.270   9.402   0.350 -0.0898 -0.1253 -0.0606
 5302W        W21196  10.502  14.105  12.083 -0.1060  0.1036 -0.2427
 5303W        W21197   5.068  13.191  14.568 -0.2067 -0.0230 -0.1832
 5304W        W21198   5.773   2.305   2.746 -0.0710 -0.0088 -0.0593
 5305W        W21199  14.761   5.701   4.288  0.1414 -0.0671 -0.1879
 5306W        W21200   4.697  11.580   1.083  0.3304 -0.1944  0.0632
 5307W        W21201   8.558  16.848  15.058  0.1167  0.0842 -0.4093
 5308W        W21202  14.682   6.603   3.960  0.1398  0.0787 -0.0899
 5309W        W21203  10.827  15.605  13.294  0.2287  0.1155  0.2070
 5310W        W21204  11.785   3.437   5.678 -0.0797  0.0783  0.3624
 5311W        W21205   2.759   2.349   2.791 -0.1140 -0.0581 -0.0771
 5312W        W21206   1.175   6.058   0.989 -0.0847  0.2643  0.1534
 5313W        W21207   8.210   2.168   4.593  0.0685  0.2183 -0.2887
 5314W        W21208  16.109   8.890   0.694 -0.0830  0.1160 -0.1030
 5315W        W21209  14.562  13.488  12.635  0.0782  0.0278  0.0151
 5316W        W21210   3.871  11.574   0.691  0.0635 -0.1223  0.0953
 5317W        W21211   2.898   8.490  10.870  0.0373 -0.0700  0.0899
 5318W        W21212  11.843   4.729   1.528 -0.0457 -0.1409  0.0384
 5319W        W21213  13.262   9.704  11.639 -0.0722 -0.1100  0.2629
 5320W        W21214  14.475   7.833  11.891  0.0956 -0.0146  0.0667
 5321W        W21215  10.963   3.175   5.012  0.3314  0.0732  0.2193
 5322W        W21216  10.528   9.451   1.158 -0.1358 -0.0612  0.0431
 5323W        W21217  12.390   9.957   2.633  0.1073  0.0437 -0.2383
 5324W        W21218   7.000   8.657   1.538 -0.1680  0.1148  0.3213
 5325W        W21219   0.654   5.410   2.802 -0.1737  0.1013 -0.0269
 5326W        W21220  12.714  12.287  12.220 -0.1139 -0.0611 -0.2770
 5327W        W21221  12.327  12.857   5.328  0.2588  0.0177  0.2310
 5328W        W21222  10.197   1.422   1.705  0.0361  0.0626 -0.3582
 5329W        W21223   9.103  17.536  13.093 -0.1314 -0.0700  0.1368
 5330W        W21224   2.230   5.173   3.790  0.0380  0.1728  0.2836
 5331W        W21225   6.058   0.161  11.988 -0.2166 -0.2494  0.0459
 5332W        W21226   8.266   2.065  15.237  0.1354  0.0916  0.1267
 5333W        W21227  10.242  13.044   5.846  0.1302 -0.2082 -0.0366
 5334W        W21228   5.083   7.881  14.043 -0.2213 -0.0077 -0.1814
 5335W        W21229  13.098  11.270  12.021 -0.1429 -0.0831 -0.0970
 5336W        W21230   1.730  17.055   1.508 -0.1250 -0.0606 -0.3310
 5337W        W21231   3.612  17.700   2.225 -0.2357 -0.1470  0.0809
 5338W        W21232  15.196  14.534   0.943 -0.2424  0.2001 -0.1508
 5339W        W21233   1.769   5.021  12.697  0.1914  0.1858 -0.0025
 5340W        W21234   1.153   7.860  14.790  0.1835 -0.3839 -0.2164
 5341W        W21235   5.854  11.477  10.178  0.0185 -0.1250  0.0901
 5342W        W21236   5.405  12.557   2.242 -0.0073  0.3137 -0.2259
 5343W        W21237   4.148   1.644  11.741 -0.2260 -0.0831  0.1882
 5344W        W21238   0.701  18.385  15.401 -0.1986 -0.2163 -0.1613
 5345W        W21239  13.074  12.830  11.300  0.0242 -0.1943 -0.1111
 5346W        W21240  14.300  17.714  12.395  0.4011  0.1482  0.3979
 5347W        W21241   6.510   0.149   3.743  0.1420 -0.0109 -0.1582
 5348W        W21242  12.690  10.609   3.161  0.0361  0.0868  0.0508
 5349W        W21243   0.947  13.838  11.955  0.2286 -0.2520  0.0279
 5350W        W21244   2.668   4.837  13.653 -0.0845 -0.0382  0.2546
 5351W        W21245  13.014   0.770  13.547  0.0765 -0.2007 -0.1367
 5352W        W21246   4.432   3.711  15.577  0.0533 -0.1705 -0.1146
 5353W        W21247   4.606  12.570  11.247 -0.1743  0.0470  0.1381
 5354W        W21248  12.158   3.967  12.491  0.3842  0.0620  0.1424
 5355W        W21249  16.818   7.428  15.083 -0.0222 -0.2614  0.0707
 5356W        W21250   3.696   4.974   3.285 -0.3153 -0.0458 -0.0359
 5357W        W21251  10.935   4.013   3.550 -0.0694 -0.1794  0.2091
 5358W        W21252   2.412   3.093   1.138  0.0048  0.1500 -0.3766
 5359W        W21253   4.935  12.796   2.404 -0.0091  0.0405  0.1703
 5360W        W21254   2.844   1.598   1.718 -0.2217  0.1461  0.2951
 5361W        W21255   5.761  16.216   0.036 -0.0605 -0.1078  0.1359
 5362W        W21256   7.783  17.403  14.479  0.2095  0.0768  0.0924
 5363W        W21257   9.530  11.639  12.583 -0.0166  0.0269 -0.2921
 5364W        W21258  14.406  14.446   2.545  0.0596 -0.0412  0.0571
 5365W        W21259   6.080   1.031  10.457  0.1108 -0.2023 -0.1626
 5366W        W21260  18.600   0.631   3.064 -0.1640 -0.0249 -0.3265
 5367W        W21261   0.692  12.903   0.977  0.1755 -0.1493 -0.1750
 5368W        W21262   4.948   5.151   1.934 -0.6752 -0.0086  0.0688
 5369W        W21263   9.285   3.318   3.502  0.0908  0.2843  0.1336
 5370W        W21264  13.863  16.162  13.361 -0.0052 -0.0539  0.1287
 5371W        W21265  15.365   8.901  11.993  0.0748 -0.1047 -0.0476
 5372W        W21266  14.765  13.331   4.166 -0.0558  0.0782  0.1106
 5373W        W21267  12.151   1.549  12.101  0.1313  0.3619  0.1831
 5374W        W21268   1.430   1.123  14.500  0.0010  0.0914  0.2370
 5375W        W21269   7.579  11.827  15.249 -0.0806 -0.0819 -0.0098
 5376W        W21270   8.017  18.397   0.220 -0.1031 -0.1947 -0.1045
 5377W        W21271   6.386  10.082  15.249 -0.0043 -0.1219 -0.3961
 5378W        W21272  11.079  16.506   2.117 -0.0814 -0.1251 -0.2979
 5379W        W21273  10.045   8.934  12.881  0.2492 -0.0449 -0.1785
 5380W        W21274  11.177   1.838   5.681 -0.0997  0.3067 -0.0173
 5381W        W21275   0.713   9.220   4.853 -0.1000 -0.5014 -0.0525
 5382W        W21276   8.527   4.380  11.184  0.1106 -0.0252 -0.0241
 5383W        W21277   1.269  15.359   2.247 -0.0407 -0.0677 -0.0454
 5384W        W21278   7.316  15.672   4.155  0.0185 -0.1527  0.1470
 5385W        W21279  10.439  18.550   0.766  0.0452  0.1065 -0.1684
 5386W        W21280  18.679  12.139   1.567 -0.1331 -0.0987  0.1759
 5387W        W21281   0.826  11.201   1.706  0.1844  0.1699  0.2546
 5388W        W21282  16.495   0.122  10.195 -0.0144 -0.5095  0.0388
 5389W        W21283  10.234  10.824   4.107 -0.2200  0.0354 -0.2045
 5390W        W21284  11.398   8.093  13.208 -0.2098 -0.3968 -0.1732
 5391W        W21285  10.121   3.416  10.337  0.3683  0.0982 -0.0335
 5392W        W21286  17.724  11.150   3.425 -0.0048  0.3943  0.3001
 5393W        W21287   1.512   6.372  14.855 -0.0166 -0.3246  0.0210
 5394W        W21288  17.041   4.350   5.454 -0.0678 -0.1680  0.2378
 5395W        W21289  10.791   4.667  15.184 -0.1447  0.2297 -0.3410
 5396W        W21290   0.182   3.776  12.870 -0.2110  0.0308 -0.0244
 5397W        W21291  15.116  11.014   4.432 -0.1767  0.0072  0.2116
 5398W        W21292   2.547  14.716  13.742  0.0107  0.1886 -0.0292
 5399W        W21293   8.011   5.956   2.822  0.1366 -0.0947  0.0179
 5400W        W21294   1.656  10.855   1.909  0.0514  0.1808  0.2303
 5401W        W21295  17.150   5.042  15.300 -0.1867  0.0033 -0.0086
 5402W        W21296  14.420   3.994   0.304 -0.1483  0.1562 -0.1624
 5403W        W21297  17.902   0.686  12.924  0.2031 -0.0018 -0.0963
 5404W        W21298   5.403   3.456   4.652  0.1685 -0.5170  0.0593
 5405W        W21299  10.133   3.344   4.524 -0.1982 -0.2320 -0.0250
 5406W        W21300  17.240   2.774  10.758  0.0814 -0.1464 -0.0563
 5407W        W21301   2.376  11.116  11.319  0.2389  0.1714  0.1285
 5408W        W21302  18.097  13.070   1.008 -0.0881  0.1351  0.1286
 5409W        W21303   3.313  13.760   9.491  0.4636 -0.1523 -0.1179
 5410W        W21304   2.504   6.475   2.035  0.1726 -0.0265 -0.1729
 5411W        W21305  11.350   8.400  15.055 -0.4407 -0.0940  0.0765
 5412W        W21306  17.975  17.347  14.194  0.0291  0.3401  0.1615
 5413W        W21307   7.357  14.726  12.259  0.0906 -0.0751  0.2570
 5414W        W21308  17.242   8.095  12.648  0.0351  0.0942  0.1653
 5415W        W21309   7.569  17.642  12.226  0.1031  0.1705  0.0245
 5416W        W21310   8.165   8.361  14.837  0.2023  0.0511 -0.0716
 5417W        W21311   8.754   5.873   2.618  0.0825 -0.3725 -0.1084
 5418W        W21312   4.182   6.716  10.557 -0.3108 -0.0195 -0.1030
 5419W        W21313   0.959   4.102   2.255  0.2276  0.1179  0.1048
 5420W        W21314   7.693  15.511  15.040 -0.0716  0.1991  0.2083
 5421W        W21315  17.572  17.140  11.049  0.3565 -0.2344  0.2495
 5422W        W21316  18.739  13.002   1.741  0.1300  0.2500  0.1099
 5423W        W21317  16.169   5.808   4.478  0.1413 -0.2615 -0.0196
 5424W        W21318  18.424  11.383   2.118 -0.2822  0.2903 -0.1815
 5425W        W21319   6.113  15.633  14.391  0.1546  0.2187 -0.2820
 5426W        W21320  10.545   9.622   4.704 -0.0481  0.0423 -0.0808
 5427W        W21321  15.875   9.235   6.212 -0.0811 -0.1817 -0.1109
 5428W        W21322   7.946  14.931   3.132 -0.1523  0.2339  0.2431
 5429W        W21323   1.805  16.629   1.214  0.0307 -0.1124 -0.0417
 5430W        W21324  11.447   6.935   4.002  0.4360 -0.1360 -0.1008
 5431W        W21325   3.510   8.255  10.598 -0.1633  0.1510 -0.0153
 5432W        W21326   5.050   9.481  13.678  0.1898 -0.0263  0.1357
 5433W        W21327  14.434   8.040   2.483  0.4407 -0.0312  0.0462
 5434W        W21328   1.565  13.780   3.152 -0.3634 -0.5521  0.0798
 5435W        W21329  16.695   7.119   2.571  0.0833 -0.3689  0.1250
 5436W        W21330   3.343   8.346  14.677  0.0080  0.2978  0.0272
 5437W        W21331   9.990   3.989   1.857  0.0265 -0.0030 -0.0217
 5438W        W21332  15.981  13.337  12.542 -0.0036  0.0666  0.0163
 5439W        W21333   1.642  17.313  12.527 -0.1578  0.0104  0.1315
 5440W        W21334   4.053   8.212  11.049  0.0558 -0.0708 -0.0625
 5441W        W21335   1.480   8.064  14.506 -0.0063  0.0003 -0.0155
 5442W        W21336  14.890  17.613   0.437  0.2554 -0.3431 -0.3266
 5443W        W21337  12.114  16.290   4.598 -0.0775  0.1911  0.4673
 5444W        W21338  14.768  16.942  11.682 -0.1950  0.0746  0.1495
 5445W        W21339  17.382  13.929  15.344  0.1021 -0.1170  0.1684
 5446W        W21340   5.587  15.356   3.751  0.0190  0.0653  0.2698
 5447W        W21341  15.086  16.350   1.380  0.0450  0.2440 -0.1469
 5448W        W21342   1.802   3.580   5.545 -0.1636 -0.0588  0.3076
 5449W        W21343   9.781   5.713  11.980 -0.1054  0.0406  0.0526
 5450W        W21344   3.050  10.617  11.883  0.1033  0.4138  0.2774
 5451W        W21345   0.453   8.634  14.483  0.0631  0.0335  0.0501
 5452W        W21346   3.115  13.704  11.214 -0.0237  0.2537 -0.1816
 5453W        W21347  10.182   9.521  14.632 -0.0921  0.1639  0.2165
 5454W        W21348   3.366   4.372   1.044  0.1518  0.0714  0.3660
 5455W        W21349   2.096  12.808   1.536  0.1140 -0.1022  0.0646
 5456W        W21350   0.130   0.067  14.893  0.2805 -0.2365  0.0231
 5457W        W21351   2.012   3.453  15.428  0.0534  0.1621  0.1313
 5458W        W21352  15.290   0.024   3.286  0.2472 -0.1022 -0.1329
 5459W        W21353   5.114   0.212   2.793  0.0652  0.1168 -0.0462
 5460W        W21354   4.987   3.241  10.427  0.1560  0.1605  0.5863
 5461W        W21355  10.320   9.203   1.788  0.1926 -0.0577 -0.0764
 5462W        W21356   3.823   2.914   1.024 -0.1486 -0.0167  0.0783
 5463W        W21357  14.172  11.319  12.099 -0.1832 -0.2445 -0.0187
 5464W        W21358   5.572   7.396   4.029 -0.0434  0.0481 -0.2904
 5465W        W21359  18.322  13.778  12.048 -0.1480 -0.0667 -0.3874
 5466W        W21360  13.747   9.135   1.170 -0.1747 -0.1233 -0.0603
 5467W        W21361   8.425   0.082  14.261 -0.0952  0.2200  0.1416
 5468W        W21362   5.085  11.456  11.768  0.2681  0.1673  0.1318
 5469W        W21363  14.366  11.761  15.274 -0.1052 -0.0143  0.4018
 5470W        W21364   6.624   0.435  11.873 -0.1277 -0.1090 -0.2155
 5471W        W21365   3.782  15.414   2.436 -0.0517  0.2581  0.1694
 5472W        W21366   1.837   4.257  11.844 -0.0487 -0.1835  0.0776
 5473W        W21367  13.342  18.177   0.161  0.2667  0.2509  0.2803
 5474W        W21368   5.555  14.372  14.278 -0.1205 -0.0065 -0.1952
 5475W        W21369   8.501  16.867   4.358 -0.3840  0.1065 -0.0213
 5476W        W21370  16.153   1.428  13.695  0.1674 -0.1399 -0.1250
 5477W        W21371  14.579   8.743   1.938 -0.1494 -0.2617  0.2000
 5478W        W21372   1.434  12.163   1.699 -0.0380 -0.4033 -0.2580
 5479W        W21373   5.635   3.526  11.904  0.1292  0.3060 -0.2861
 5480W        W21374   7.794   2.611  11.444  0.0925  0.4460 -0.1316
 5481W        W21375   6.318   0.775  13.708 -0.1084  0.0827 -0.0302
 5482W        W21376   5.879   6.668  11.822  0.2824 -0.0149  0.1627
 5483W        W21377   2.884   4.388  13.520  0.1068  0.3226 -0.1305
 5484W        W21378   4.829   4.019   0.995 -0.0822  0.1485  0.0942
 5485W        W21379  13.881   0.065   0.495 -0.2839  0.1413 -0.0439
 5486W        W21380   8.122  15.294  14.034  0.2119 -0.0655  0.3233
 5487W        W21381  12.097   0.604   2.536 -0.3271 -0.2248  0.1458
 5488W        W21382  17.345   0.004  13.234  0.4440  0.0593 -0.2393
 5489W        W21383   3.346   1.165   5.306  0.1059  0.0641  0.4486
 5490W        W21384  13.177  14.484  11.196  0.0280 -0.2162 -0.2180
 5491W        W21385  12.130  17.490  13.944  0.0744  0.0658 -0.0062
 5492W        W21386  10.386   6.106   2.570 -0.1161 -0.2004 -0.0673
 5493W        W21387   0.175  18.523   2.815 -0.0938  0.0615 -0.0941
 5494W        W21388  13.385   7.009   3.595  0.1100 -0.0303 -0.0949
 5495W        W21389  18.012  13.881  12.376  0.1003 -0.1054 -0.2396
 5496W        W21390  15.889   4.832   4.084  0.0363  0.1171 -0.3042
 5497W        W21391   9.694   7.727  14.703 -0.2198  0.2312  0.0044
 5498W        W21392  14.437   6.270   3.581  0.0516 -0.0894  0.0973
 5499W        W21393  18.346  13.855   5.215  0.0830 -0.0204 -0.0809
 5500W        W21394   8.959   7.683  10.913  0.0670 -0.1640 -0.1046
 5501W        W21395  16.104  17.410  11.092  0.2819 -0.0166  0.1233
 5502W        W21396  11.126  11.819   5.184  0.0420  0.1331  0.0441
 5503W        W21397   8.233   3.226  10.898 -0.0653 -0.2507 -0.0637
 5504W        W21398   7.098   1.948  11.740 -0.2027 -0.3187  0.4258
 5505W        W21399  11.629   1.324   4.904 -0.2228  0.0604  0.1001
 5506W        W21400   9.075  12.146  13.303 -0.3287  0.0054  0.1505
 5507W        W21401   9.762  16.093   2.428  0.0244  0.1012 -0.0750
 5508W        W21402  18.055   1.604  12.668 -0.1200 -0.2188  0.0515
 5509W        W21403   5.521   6.916  10.520 -0.0503  0.1452 -0.0454
 5510W        W21404   5.235   5.908  13.254  0.0595 -0.2439 -0.0063
 5511W        W21405  12.422  11.625   0.645  0.0131 -0.0415  0.3275
 5512W        W21406  15.926   6.265   0.493 -0.0383 -0.0042  0.1446
 5513W        W21407   2.289  18.270   4.447  0.4751  0.0069  0.1807
 5514W        W21408   4.398  17.311   4.771 -0.0455 -0.2100  0.0539
 5515W        W21409  17.603   7.397   0.250  0.3228 -0.2639 -0.0747
 5516W        W21410  11.694   7.659  13.004  0.2411  0.2428 -0.2668
 5517W        W21411  14.931   0.935   3.507 -0.1020 -0.2907  0.1113
 5518W        W21412  13.276   0.789   0.707 -0.0492  0.0032 -0.0926
 5519W        W21413  14.343   9.515   0.321  0.0714  0.2418  0.0779
 5520W        W21414  10.742   1.595   3.825  0.0205  0.1876 -0.1937
 5521W        W21415  13.520   8.922  12.383  0.0223 -0.3737  0.0616
 5522W        W21416  17.683   1.579   2.711  0.0807 -0.0677 -0.0962
 5523W        W21417  18.502   3.846  15.570 -0.2178  0.0061 -0.0176
 5524W        W21418  14.818  17.400  13.233  0.0483  0.0058 -0.2309
 5525W        W21419   7.593   6.646  13.718 -0.0251 -0.0044 -0.0284
 5526W        W21420  10.273  17.780  12.731  0.0579 -0.1516  0.1109
 5527W        W21421   0.076  16.286   0.485 -0.0245  0.0578  0.0583
 5528W        W21422   5.692   5.555   2.938  0.2208 -0.2361  0.2342
 5529W        W21423   3.685   6.325  13.962 -0.6691  0.4294  0.0347
 5530W        W21424  18.116   1.002  15.440 -0.2590  0.0806  0.0094
 5531W        W21425   0.544   6.913  11.014 -0.3093  0.2379 -0.2389
 5532W        W21426   4.272  18.742   2.099 -0.2010 -0.0730  0.1251
 5533W        W21427  18.257   4.540   3.752 -0.0013 -0.1606  0.1359
 5534W        W21428  17.289  17.311   1.271  0.1553 -0.1820 -0.0719
 5535W        W21429   6.577   4.785   2.922 -0.0582  0.5132 -0.0538
 5536W        W21430   0.685   9.425  15.574  0.3962 -0.5335 -0.2653
 5537W        W21431  18.516  18.201   2.942 -0.1880  0.1298 -0.1705
 5538W        W21432   1.273   3.418   3.145 -0.1271 -0.2333  0.1619
 5539W        W21433   9.989   1.355   3.514 -0.2806 -0.1454  0.1298
 5540W        W21434   6.263   6.376  14.878 -0.1804  0.0325 -0.0744
 5541W        W21435   3.887   8.104  12.931 -0.1087  0.0176 -0.1958
 5542W        W21436   6.560   7.730   4.081  0.1935 -0.0921 -0.0431
 5543W        W21437   7.356  15.598   1.725 -0.2473 -0.2340  0.3700
 5544W        W21438   9.305  14.576   5.959 -0.0026  0.1719 -0.0724
 5545W        W21439   4.555  15.952   1.933  0.0168 -0.3725  0.1001
 5546W        W21440   7.176  14.718  11.614  0.0352  0.0481 -0.3482
 5547W        W21441  11.116   0.203  15.129  0.0614 -0.0331 -0.1030
 5548W        W21442   2.967  16.425  10.750  0.0176  0.0427 -0.1315
 5549W        W21443   5.761   5.698   0.273  0.1935 -0.3621 -0.1621
 5550W        W21444  11.478   0.089  12.892  0.0138  0.1707  0.1656
 5551W        W21445  11.260  17.351   4.020 -0.2054  0.4851 -0.2101
 5552W        W21446  11.642  13.621   2.486 -0.0935 -0.1177 -0.1277
 5553W        W21447   9.690   3.088  12.502 -0.0267 -0.0918  0.1293
 5554W        W21448  16.623   7.475  14.197  0.2367  0.1488  0.2903
 5555W        W21449   0.364   4.229  15.122  0.2392  0.0685 -0.2384
 5556W        W21450  14.740  16.399  11.182 -0.3537  0.1344  0.1754
 5557W        W21451  13.147  18.300   4.045 -0.2564  0.2721  0.1016
 5558W        W21452   9.914  16.170   3.955  0.0864  0.1942  0.1991
 5559W        W21453   0.701  17.286   1.562 -0.1213 -0.0985  0.0965
 5560W        W21454  10.958  16.899  12.397  0.1896  0.0925 -0.0990
 5561W        W21455  13.709   1.344   2.823 -0.0335 -0.0688 -0.1799
 5562W        W21456  16.948  11.871   1.034  0.1793  0.0668  0.0731
 5563W        W21457   6.038   4.896  13.381  0.1941  0.1853  0.0321
 5564W        W21458  14.221  10.274   4.952 -0.2493  0.0482  0.0665
 5565W        W21459  14.055   2.223   4.107  0.1519  0.1947  0.0063
 5566W        W21460  15.499   9.257   5.224 -0.0908 -0.2407  0.1866
 5567W        W21461  18.193   1.167   0.314 -0.0825  0.2063 -0.1476
 5568W        W21462  11.390   3.869   2.362  0.0312 -0.3245  0.2118
 5569W        W21463   8.467  15.471   3.755 -0.1619  0.0878 -0.0039
 5570W        W21464   7.022  18.198   2.883 -0.0482  0.1821  0.2174
 5571W        W21465   4.456   4.198   4.172 -0.1179  0.0676  0.0401
 5572W        W21466  17.839  14.631   6.261 -0.2741  0.1619  0.0450
 5573W        W21467   8.190   1.780   3.454  0.1234  0.3440  0.2103
 5574W        W21468  11.326  12.135  13.396  0.0506  0.0234  0.0431
 5575W        W21469   9.012   7.669   1.356  0.0593 -0.2208  0.1429
 5576W        W21470   6.526  11.470   3.552  0.0805  0.0691 -0.0374
 5577W        W21471   2.131   3.030   0.757 -0.1345 -0.0204  0.0923
 5578W        W21472  15.494   6.237  13.260 -0.0719  0.0612  0.0232
 5579W        W21473   0.392   4.672  11.068  0.1296 -0.0339 -0.1930
 5580W        W21474  12.215   5.437   2.450 -0.1955 -0.2272  0.1238
 5581W        W21475  13.453  14.639  10.206 -0.1637 -0.2565  0.0585
 5582W        W21476  15.030   0.238   0.017  0.0073  0.1224 -0.0361
 5583W        W21477   0.211   9.475  12.328 -0.2101 -0.2349  0.2972
 5584W        W21478  15.525  10.867   3.834  0.0405 -0.1384  0.0109
 5585W        W21479  13.678   4.360   1.435 -0.2166  0.1786  0.0537
 5586W        W21480   4.384   8.550   2.842 -0.2079 -0.1228 -0.0467
 5587W        W21481   8.587  12.134   4.676  0.0417  0.0833  0.1982
 5588W        W21482  10.815   0.424   1.234  0.2802  0.2162  0.0176
 5589W        W21483  14.998   7.636  11.726  0.1376 -0.0702  0.2623
 5590W        W21484  12.756   3.001   3.098  0.3573 -0.0171  0.1716
 5591W        W21485  10.062   7.816   2.118 -0.0605 -0.0702 -0.3107
 5592W        W21486  13.078   6.960  11.324  0.0380  0.0675 -0.2005
 5593W        W21487   8.816  13.682   3.203 -0.0506  0.2272  0.1470
 5594W        W21488   1.197   1.179   5.085 -0.0899 -0.2529 -0.0716
 5595W        W21489  11.409  18.289  13.000  0.2483  0.3743  0.1185
 5596W        W21490   8.741   0.426   4.343 -0.0571  0.1462 -0.0406
 5597W        W21491  11.562  10.821  14.943 -0.1266 -0.3925  0.0415
 5598W        W21492   6.994  12.634  12.492 -0.4993  0.0734  0.1734
 5599W        W21493  15.047   5.873  12.736 -0.3070  0.2326  0.2699
 5600W        W21494   9.919   3.731  14.703 -0.1452  0.0459 -0.0182
 5601W        W21495   5.534  13.686   2.986 -0.1056 -0.0136  0.1706
 5602W        W21496  15.465  15.960   4.464 -0.0453 -0.0658 -0.0320
 5603W        W21497   5.885   3.530   4.556 -0.2039 -0.0535  0.0958
 5604W        W21498   2.822  11.519   0.490  0.0577  0.2469  0.0284
 5605W        W21499   7.207  14.285  15.128  0.1119  0.0218 -0.1834
 5606W        W21500   0.105  11.252   4.291  0.0757 -0.0844  0.2308
 5607W        W21501   1.419  18.247  11.465 -0.0584  0.3180  0.2347
 5608W        W21502  14.556   6.518  14.188 -0.1261  0.2722  0.1229
 5609W        W21503  16.503   0.186  12.360  0.0413  0.1913  0.2682
 5610W        W21504   7.344   9.485   0.681 -0.1192 -0.1363 -0.0390
 5611W        W21505  16.458  17.099  14.510  0.0544 -0.1926 -0.0622
 5612W        W21506   3.853   3.091  15.146  0.4449  0.4258 -0.3422
 5613W        W21507  15.298  12.908   2.443 -0.0592  0.1002  0.0946
 5614W        W21508  11.249   4.034  14.501  0.1800  0.1706 -0.0246
 5615W        W21509  11.652   0.942  12.718 -0.2669  0.0157  0.0896
 5616W        W21510   1.737   4.416   4.122 -0.3947 -0.0652 -0.0736
 5617W        W21511   7.220  10.032   0.472 -0.0874 -0.1353  0.2813
 5618W        W21512  15.493  10.961  13.133 -0.0857 -0.3305  0.0787
 5619W        W21513  13.508  15.569  15.297  0.1847  0.2711  0.1070
 5620W        W21514   5.550  11.625  11.869 -0.1586  0.0853  0.2837
 5621W        W21515   7.120   5.458  11.645 -0.0443 -0.1481 -0.1320
 5622W        W21516  14.745  15.059   5.365  0.1936  0.0549 -0.0582
 5623W        W21517   6.274   0.073   1.836  0.1209  0.1726 -0.0683
 5624W        W21518   1.269   8.383   1.901  0.0875  0.0440  0.0710
 5625W        W21519  11.018   8.542   5.515  0.0368  0.0376  0.0129
 5626W        W21520   4.536   5.569   3.907 -0.0041  0.0763 -0.0589
 5627W        W21521   0.801   4.892  12.526  0.1227  0.1476  0.1817
 5628W        W21522  13.106   6.975  13.140 -0.1278  0.0389 -0.1268
 5629W        W21523   8.501  18.074  14.666  0.3270 -0.3478 -0.0913
 5630W        W21524   0.419  14.389  14.480  0.4937  0.0589  0.0595
 5631W        W21525   6.815   1.880   9.956 -0.0272  0.1774 -0.1150
 5632W        W21526  10.498   3.796   3.801  0.1398  0.0632  0.3215
 5633W        W21527   1.706  15.202  13.889 -0.2966  0.0907  0.1126
 5634W        W21528   0.247  14.097   5.750 -0.2014 -0.0119  0.1935
 5635W        W21529   0.507  11.180   0.807  0.0177 -0.3052 -0.2896
 5636W        W21530   0.499  15.844  15.453  0.0076 -0.0568  0.0625
 5637W        W21531  11.765   4.481  11.256  0.2120  0.3718  0.2194
 5638W        W21532  17.902  13.526   1.000  0.3253  0.1813 -0.1336
 5639W        W21533   9.674  14.580   2.310  0.1709 -0.1948 -0.1058
 5640W        W21534   4.812   9.910   2.482  0.0243 -0.0060 -0.2732
 5641W        W21535  12.226   7.269  14.749 -0.0613  0.1325  0.1588
 5642W        W21536  16.050   8.470  12.179  0.1014 -0.3161  0.0509
 5643W        W21537  17.584  17.131  14.448 -0.0444  0.2044 -0.0112
 5644W        W21538   1.178  10.834   4.922  0.3067 -0.2028 -0.1300
 5645W        W21539   4.690  11.756  11.937  0.0905  0.1034 -0.0423
 5646W        W21540  13.811   6.797  15.565  0.1109  0.3257  0.0906
 5647W        W21541  18.195   9.266  13.938  0.1715 -0.0475 -0.5330
 5648W        W21542   2.166   1.447   3.463  0.1082 -0.1919  0.1365
 5649W        W21543   9.733  12.235  11.281  0.1341  0.0663  0.1529
 5650W        W21544   6.904  14.945   4.815 -0.1106 -0.1215 -0.2667
 5651W        W21545   4.403  10.306   5.426 -0.0286  0.1334  0.1444
 5652W        W21546  13.392  17.521  12.671  0.1090  0.5577 -0.0320
 5653W        W21547  16.266   1.350   4.774 -0.2266 -0.2414 -0.1604
 5654W        W21548  18.127  17.660   4.053  0.0155 -0.0103  0.0250
 5655W        W21549  12.228   9.357  12.481 -0.1275 -0.1778  0.2350
 5656W        W21550  17.232  10.432  14.498 -0.0523  0.1763 -0.2174
 5657W        W21551   4.343  18.271  14.676  0.2004  0.0985  0.0080
 5658W        W21552  11.019  17.034  11.911  0.0440 -0.0886 -0.1463
 5659W        W21553   8.126   7.625   2.806  0.0185 -0.0618 -0.0806
 5660W        W21554   7.903   6.500   0.583  0.0392  0.1954  0.0891
 5661W        W21555  14.729   8.317   4.663 -0.1948 -0.0479  0.0389
 5662W        W21556  15.178  16.676   1.922 -0.0383  0.3102  0.0914
 5663W        W21557  11.653   9.272   1.078 -0.0527 -0.0297 -0.4521
 5664W        W21558  18.415   0.678   1.766  0.1389 -0.0622  0.0472
 5665W        W21559  18.301  14.968   4.627  0.0603  0.2036 -0.0530
 5666W        W21560  15.109   5.315   0.169 -0.1512  0.0225  0.2086
 5667W        W21561   2.903  18.691   2.786  0.3892 -0.4071  0.0058
 5668W        W21562  13.900  13.799   1.527 -0.2331  0.1953  0.2118
 5669W        W21563   6.841  15.863   5.537  0.2881 -0.1894 -0.4214
 5670W        W21564  15.983   2.213   1.686  0.1611  0.1713  0.2894
 5671W        W21565  13.184   9.491   3.580  0.2163  0.0903  0.2570
 5672W        W21566  12.394   4.825   1.275 -0.1050  0.1060 -0.1422
 5673W        W21567  16.217   3.946   0.980  0.0850  0.0721  0.0114
 5674W        W21568  13.991  13.784  14.135 -0.0888 -0.0590 -0.2139
 5675W        W21569   7.604   2.267  15.127  0.2006 -0.1403  0.0068
 5676W        W21570  16.022  14.739   1.058  0.1497 -0.2206  0.0912
 5677W        W21571  17.422   0.530  12.912 -0.0488  0.0226 -0.1519
 5678W        W21572  13.384   2.140   1.688 -0.0714  0.4387  0.1163
 5679W        W21573  12.781  14.391  13.434  0.1504 -0.1989  0.0527
 5680W        W21574  15.806   3.806  11.383  0.2664  0.2485 -0.3480
 5681W        W21575   8.592  14.868   4.675  0.0112 -0.0481  0.0794
 5682W        W21576  18.596  13.709  13.186  0.0727 -0.0628  0.1207
 5683W        W21577   1.834   8.478   1.535 -0.0392  0.0292  0.0404
 5684W        W21578   1.799   4.795   4.506  0.0441  0.3206  0.2133
 5685W        W21579   8.913  17.976  12.981 -0.1317  0.2727  0.0290
 5686W        W21580  11.907   2.285  14.391 -0.1972 -0.0898 -0.2734
 5687W        W21581   1.251  11.083  13.490 -0.3064  0.1186  0.1797
 5688W        W21582  18.002   6.121   5.401  0.2822 -0.1147 -0.1453
 5689W        W21583   6.784  14.484   0.418  0.1325  0.0104 -0.2154
 5690W        W21584   9.089  10.270   1.492 -0.5726 -0.4193 -0.0713
 5691W        W21585   1.564  16.875  11.657 -0.2110  0.4652  0.1894
 5692W        W21586  15.145   7.972  12.663 -0.6240 -0.1993 -0.1346
 5693W        W21587  11.510  15.571   3.566  0.0684  0.3230 -0.0347
 5694W        W21588   1.949   1.215   2.669 -0.0165 -0.1291  0.0534
 5695W        W21589   3.996   1.440   1.079 -0.2082 -0.1719  0.1670
 5696W        W21590  13.219   6.869   3.061 -0.0007  0.0480  0.0724
 5697W        W21591  14.190   0.109   0.108  0.0472 -0.1380 -0.2702
 5698W        W21592   3.124  17.132  13.796  0.2718  0.0867 -0.3119
 5699W        W21593   7.288   0.512  11.629 -0.0995  0.0567  0.2290
 5700W        W21594   3.942   9.274   0.761  0.1461  0.2015 -0.4149
 5701W        W21595  10.949  12.032   0.833 -0.0934 -0.2788 -0.1429
 5702W        W21596  16.746   1.039   1.298 -0.0665  0.4253  0.1668
 5703W        W21597   2.172   5.777  13.121  0.2501  0.1671  0.1957
 5704W        W21598   9.419  14.818  12.374  0.1975 -0.1445  0.0464
 5705W        W21599   4.070   9.200  10.500 -0.0672 -0.0484 -0.1491
 5706W        W21600   5.663   7.474   0.405 -0.3634  0.3043 -0.0913
 5707W        W21601   3.842   8.521   2.208 -0.1839 -0.2098  0.0769
 5708W        W21602  10.683  10.127   1.912 -0.0188  0.0756 -0.1810
 5709W        W21603   8.120   3.150   3.111  0.1455 -0.0800  0.0973
 5710W        W21604  10.445  14.613   1.413  0.0372  0.0116 -0.1154
 5711W        W21605   9.273   8.014  12.268 -0.1614  0.1596 -0.2440
 5712W        W21606   3.495   4.415   1.545 -0.1275 -0.1339 -0.1739
 5713W        W21607   6.916  11.943  11.128 -0.2109  0.0100  0.0337
 5714W        W21608  15.267   1.664  14.967  0.0772  0.0576 -0.0196
 5715W        W21609  16.518   6.488  13.745  0.1148  0.1273 -0.1677
 5716W        W21610   8.482   7.188  12.775  0.2130 -0.0432  0.2978
 5717W        W21611   8.816   6.768  11.813  0.3345  0.2424 -0.2288
 5718W        W21612  13.373   5.146  15.376 -0.0402  0.1801 -0.3048
 5719W        W21613  12.901  13.687  13.474  0.1775  0.0634 -0.4409
 5720W        W21614  16.301   2.974  11.844 -0.0078 -0.1385  0.1130
 5721W        W21615   4.203  11.285  11.260 -0.0602 -0.1041  0.1575
 5722W        W21616   2.093   4.051   0.623 -0.0445 -0.1980 -0.1993
 5723W        W21617   3.089   5.004   3.080  0.1688  0.1627 -0.0258
 5724W        W21618  12.284   7.543  11.665 -0.2444 -0.2631  0.0662
 5725W        W21619  14.167   7.741   1.701  0.0583  0.2539 -0.0622
 5726W        W21620  15.667  13.758   1.209  0.1253 -0.4185 -0.0991
 5727W        W21621  10.321   7.205  11.577  0.0406  0.1794  0.0309
 5728W        W21622   1.889  11.614   2.992  0.0821  0.0739 -0.0698
 5729W        W21623   6.537   1.485   0.027  0.3284  0.1150 -0.2935
 5730W        W21624   8.367  11.370  11.669  0.3651  0.0018  0.0978
 5731W        W21625   8.015  11.788  12.968 -0.0107 -0.1429  0.0643
 5732W        W21626  13.157  13.416   0.421  0.0462 -0.1295 -0.1648
 5733W        W21627   3.044   9.083  13.030 -0.0073  0.1811  0.0778
 5734W        W21628  10.367  15.246  13.434  0.0209  0.0985 -0.1029
 5735W        W21629  16.841   6.839   1.294  0.2293  0.0669 -0.0432
 5736W        W21630  18.482  16.564  15.151 -0.0821  0.1656  0.0747
 5737W        W21631   2.083   6.131   5.213  0.1469 -0.0471  0.2234
 5738W        W21632  11.758  16.869  14.432  0.0206  0.1392 -0.1521
 5739W        W21633  11.155   2.907  14.633 -0.1288 -0.1112 -0.4838
 5740W        W21634   4.891   2.945   3.341 -0.0399  0.3804 -0.0118
 5741W        W21635  10.604  15.624   3.114  0.0641 -0.2782  0.0065
 5742W        W21636  18.518  15.120  13.401  0.0316  0.1709  0.2017
 5743W        W21637   4.415  13.748  14.841 -0.0883  0.0583  0.2648
 5744W        W21638  11.595   7.763  14.004 -0.0755  0.2623 -0.1022
 5745W        W21639  12.283   7.368   2.903  0.4718 -0.1566  0.1319
 5746W        W21640  10.693   7.893  13.230  0.2140 -0.1110  0.0428
 5747W        W21641  18.100   8.309   5.074  0.0669  0.1394  0.1906
 5748W        W21642  13.559  17.016  13.130 -0.1460 -0.0485  0.1612
 5749W        W21643  11.081   1.082  12.158  0.1872  0.0064  0.2127
 5750W        W21644  11.043   1.617  12.275 -0.1498 -0.0868  0.1290
 5751W        W21645  12.539   7.356   2.499 -0.3241  0.1353 -0.0926
 5752W        W21646   3.647  10.784   5.400  0.0351  0.1746 -0.1128
 5753W        W21647   3.000   2.795   1.468  0.1523 -0.4469 -0.0607
 5754W        W21648   2.056  15.924   0.506  0.2744 -0.3875  0.0957
 5755W        W21649   0.077  15.279   1.556  0.0273 -0.1939 -0.1655
 5756W        W21650  17.487   5.074   2.653  0.0425  0.0433 -0.0475
 5757W        W21651   1.670   4.384   4.903 -0.1700  0.0066 -0.1127
 5758W        W21652   5.588  12.340   4.293  0.1945 -0.2875 -0.0738
 5759W        W21653  15.828   1.003  11.630 -0.1657  0.2169 -0.3670
 5760W        W21654   1.550  11.266   3.114 -0.2948 -0.2305 -0.1431
 5761W        W21655   0.566   4.171  11.954  0.0127  0.0142 -0.0278
 5762W        W21656   4.023   2.041   3.729  0.2700  0.4226  0.0987
 5763W        W21657   3.224  11.733  11.892  0.0297 -0.1836  0.1909
 5764W        W21658  14.952  16.603  13.242  0.0917  0.0132 -0.0342
 5765W        W21659   6.898   3.953  10.665 -0.2414 -0.0741  0.2625
 5766W        W21660   1.070  15.849  10.003  0.0397  0.1147  0.0636
 5767W        W21661  16.112  13.110  11.108 -0.2855 -0.1022  0.0599
 5768W        W21662   4.561  11.544  11.493 -0.2006  0.2322  0.3177
 5769W        W21663   5.956   9.756  15.206  0.1394 -0.1752 -0.1102
 5770W        W21664  17.525  12.380   2.768 -0.0342 -0.1296  0.2258
 5771W        W21665  12.669   2.604   3.613  0.0496  0.3498  0.0315
 5772W        W21666  16.021  10.757   3.156 -0.4982 -0.1087 -0.0101
 5773W        W21667  14.068  17.637   4.995  0.0086  0.1301 -0.1256
 5774W        W21668  17.367   0.100  15.096  0.2498  0.2039 -0.0747
 5775W        W21669  14.193   3.067   4.704  0.2053  0.4266 -0.2521
 5776W        W21670  12.843   1.429  11.233 -0.0151  0.1296 -0.0793
 5777W        W21671  11.662  17.663   4.065 -0.2812  0.1261 -0.1503
 5778W        W21672   4.323  13.770  15.446  0.2650  0.2722  0.0530
 5779W        W21673  11.732   9.791   4.507  0.0087  0.2671  0.2364
 5780W        W21674   5.836   6.048  14.616 -0.0009 -0.0259  0.1059
 5781W        W21675   3.027  10.519   1.940 -0.0363  0.2108 -0.0333
 5782W        W21676   0.372   1.517   4.192 -0.1330 -0.3092  0.1362
 5783W        W21677  17.814  18.191   1.112 -0.0020  0.2049  0.3007
 5784W        W21678  13.366  16.287  14.033  0.1320  0.2279  0.0412
 5785W        W21679  11.348  13.600   3.453 -0.4607 -0.1947  0.1343
 5786W        W21680  14.549   5.477   1.734  0.1132 -0.2001  0.0575
 5787W        W21681   4.128  16.397  11.584  0.0002 -0.0148 -0.0302
 5788W        W21682  12.603  11.640  15.144 -0.0141 -0.1326  0.3107
 5789W        W21683  18.495   2.387   4.317  0.2219 -0.2843 -0.0391
 5790W        W21684   9.609   0.265   2.885 -0.0302 -0.2544 -0.0641
 5791W        W21685   9.217   2.092  13.170  0.1000 -0.0571 -0.0957
 5792W        W21686   3.424  11.754  11.413 -0.1727 -0.0940 -0.0049
 5793W        W21687   5.850   3.467  15.580 -0.3547  0.1151 -0.1877
 5794W        W21688   7.747   3.383  10.217 -0.0735 -0.0699  0.2131
 5795W        W21689   9.819   4.615   4.530 -0.1060  0.1140  0.0306
 5796W        W21690  11.247   1.566   4.698  0.3071 -0.3395 -0.1052
 5797W        W21691   7.781  12.227  13.247  0.3666 -0.1452 -0.1734
 5798W        W21692   9.846   8.190  15.559 -0.5607 -0.2376  0.0127
 5799W        W21693   7.450  10.057  11.732  0.2643 -0.0457  0.1529
 5800W        W21694   8.929  12.599  14.668  0.0375  0.3810 -0.2442
 5801W        W21695  18.425  15.080   0.375 -0.4344  0.0007 -0.0283
 5802W        W21696   2.551   2.958  12.582  0.2226  0.3599 -0.0032
 5803W        W21697   2.827   9.718   2.103 -0.0648 -0.0261 -0.0210
 5804W        W21698   3.128  13.976   5.630 -0.2857  0.2471  0.0486
 5805W        W21699   0.997   1.434  11.072  0.1716  0.2129 -0.1621
 5806W        W21700  11.860   4.768   2.697  0.1951 -0.0171  0.0485
 5807W        W21701   2.830  11.756   5.063  0.0537  0.0172 -0.1747
 5808W        W21702  12.182   6.829   1.536 -0.1745 -0.1869 -0.1874
 5809W        W21703   5.332  18.684  14.598  0.0452 -0.1154  0.2330
 5810W        W21704   1.891   2.648  15.039 -0.1556 -0.0793 -0.3419
 5811W        W21705   9.305  16.188   2.198  0.2249  0.1224 -0.1151
 5812W        W21706   7.728  11.451   2.433 -0.1006  0.1170  0.3264
 5813W        W21707  10.547   6.989  14.719 -0.5249  0.1075 -0.2030
 5814W        W21708   8.976   3.315  10.664 -0.1479 -0.1845  0.3797
 5815W        W21709  17.285   7.346   3.058  0.3036  0.3113  0.0466
 5816W        W21710  11.532   5.941   3.360  0.0558 -0.3749  0.3256
 5817W        W21711  13.432  14.557   4.715  0.1029 -0.5737 -0.2229
 5818W        W21712  16.990   4.470   4.417 -0.1782  0.1071 -0.0192
 5819W        W21713  13.514  14.948  11.729 -0.1834  0.1515  0.0729
 5820W        W21714   6.203   2.462  15.375 -0.0154 -0.1496 -0.2990
 5821W        W21715   1.503   1.103   1.469  0.0886  0.0116 -0.0230
 5822W        W21716   8.513   7.745  11.158  0.0613  0.0892  0.0029
 5823W        W21717  10.936   8.846  11.095 -0.1976  0.0810 -0.1183
 5824W        W21718   0.451  17.449   2.694  0.1983  0.2424 -0.1990
 5825W        W21719   6.475   3.454   2.610  0.2306 -0.0533  0.1548
 5826W        W21720  14.427  11.881  12.795  0.2261 -0.0547  0.2836
 5827W        W21721  17.147  17.223  11.278  0.0472  0.1794  0.1549
 5828W        W21722  14.317  12.274  11.795 -0.2087 -0.4314  0.0046
 5829W        W21723   7.544   6.997  12.742 -0.1703 -0.0368  0.1252
 5830W        W21724  18.284  10.154   5.057  0.0967 -0.2614  0.0059
 5831W        W21725   1.032   5.260  14.467  0.1860 -0.2656 -0.2143
 5832W        W21726   1.539   3.277   0.062 -0.0326  0.0989 -0.0033
 5833W        W21727  14.044  16.433   4.240 -0.1125 -0.0493 -0.3393
 5834W        W21728  16.419   8.647  12.463 -0.1090  0.2213  0.0077
 5835W        W21729   4.010  17.501   0.255 -0.0256 -0.1537  0.0792
 5836W        W21730   9.116   6.627  12.743 -0.1338 -0.0172  0.2149
 5837W        W21731   5.536   0.723  14.197  0.0087 -0.5905  0.0859
 5838W        W21732   8.014   9.050  14.095 -0.2498 -0.1804 -0.0272
 5839W        W21733   8.521   8.003   3.630 -0.0086 -0.1063 -0.1342
 5840W        W21734  16.791  12.286   1.348 -0.2033  0.0633 -0.1730
 5841W        W21735   1.329   4.572  11.089 -0.0158  0.0768 -0.1055
 5842W        W21736   3.567  14.714  12.805  0.0354 -0.3102  0.0912
 5843W        W21737   6.083   8.977   0.969  0.0259 -0.0432  0.0742
 5844W        W21738  18.310  16.403   4.697 -0.0287  0.0053  0.0758
 5845W        W21739   4.826  14.303   3.647 -0.2163 -0.3201  0.2542
 5846W        W21740   4.356   9.322   1.145  0.2212 -0.1976 -0.2016
 5847W        W21741  12.428   6.021  11.856  0.1052  0.0870  0.2747
 5848W        W21742  12.250  14.867   2.451  0.0555  0.0276 -0.0096
 5849W        W21743   7.673  11.108  10.863 -0.3545 -0.0230 -0.0971
 5850W        W21744  13.484  13.948   5.085  0.1015  0.0327 -0.1103
 5851W        W21745  15.430  10.303  11.774 -0.2124 -0.0241  0.1700
 5852W        W21746   6.815   8.358  11.865  0.2530  0.1084  0.0916
 5853W        W21747   3.299  10.488  13.434 -0.2947  0.0561  0.0750
 5854W        W21748   8.936  14.675   4.006  0.2535  0.2121  0.3008
 5855W        W21749   8.353  17.730   2.450  0.0160  0.0863  0.0291
 5856W        W21750  17.189  11.193  13.440 -0.3566 -0.0163 -0.0557
 5857W        W21751   9.459  18.459   5.378  0.2379 -0.1588  0.1178
 5858W        W21752   3.827  16.011  13.649  0.0510 -0.0349  0.1920
 5859W        W21753   6.526   8.834  11.973  0.1415 -0.0931  0.1233
 5860W        W21754   1.926   5.529  10.685 -0.0341  0.0597 -0.1179
 5861W        W21755   3.688  14.247  14.087  0.1929 -0.0927 -0.2096
 5862W        W21756   0.349   8.529   3.489  0.2153 -0.0799  0.0517
 5863W        W21757   9.419   2.211   5.700 -0.1727 -0.0122 -0.0049
 5864W        W21758  17.830  15.173   4.250  0.1087  0.0079 -0.0707
 5865W        W21759   5.877   1.627  11.719 -0.1078  0.1253 -0.0477
 5866W        W21760  15.780   2.116   3.070 -0.1031 -0.3072  0.0628
 5867W        W21761   7.187   7.940   5.101  0.4335  0.0338  0.0384
 5868W        W21762  12.983  12.449   4.986  0.3095 -0.1105 -0.1568
 5869W        W21763  12.105  17.882  11.420 -0.1495 -0.2277  0.0516
 5870W        W21764   6.680   1.896  12.024  0.0733  0.0672 -0.0552
 5871W        W21765  18.186   2.431   4.738  0.2662 -0.0845  0.2852
 5872W        W21766  12.341   3.034   2.327 -0.1272  0.2346 -0.1010
 5873W        W21767  18.763   4.672   3.642  0.1775  0.2409  0.3055
 5874W        W21768   3.084   6.566   3.043  0.1354 -0.2427 -0.1888
 5875W        W21769   5.087   3.886  13.361  0.0613  0.0660  0.0106
 5876W        W21770   6.041   4.278  15.021 -0.1736 -0.1456 -0.0310
 5877W        W21771   7.077   6.200   1.552 -0.0763  0.1116 -0.0249
 5878W        W21772   6.894   0.824  11.643  0.0829 -0.0987  0.1967
 5879W        W21773   9.001   9.102   0.064  0.0000 -0.2563  0.5035
 5880W        W21774  16.550  18.731  11.064 -0.0202  0.0218  0.3973
 5881W        W21775   8.825  12.334   5.108  0.1866 -0.1277  0.2055
 5882W        W21776  15.902  18.746  14.505 -0.1040 -0.0130 -0.1513
 5883W        W21777   3.519   8.343  13.480 -0.1353  0.3330  0.2823
 5884W        W21778  18.083   0.025  15.384  0.4536  0.0965  0.0916
 5885W        W21779   4.148  11.057   1.158 -0.1156 -0.1883  0.0628
 5886W        W21780  18.591   3.318  15.436 -0.2236  0.1038  0.1113
 5887W        W21781   5.875  11.590   2.959  0.2869  0.1921 -0.0800
 5888W        W21782   8.834   9.025   3.678  0.0557  0.0265  0.1638
 5889W        W21783   4.533   9.465   3.235 -0.2220 -0.2509 -0.1668
 5890W        W21784  11.138  18.206   5.162  0.2400 -0.2891 -0.0526
 5891W        W21785  14.408   8.941   2.778 -0.2132 -0.2731 -0.1609
 5892W        W21786  10.798   7.010  11.551 -0.1392  0.2924  0.0167
 5893W        W21787  11.754   3.886  15.166  0.0727  0.1182  0.4546
 5894W        W21788   7.653   8.086   1.168  0.2327  0.1572  0.1371
 5895W        W21789   0.211   8.872   1.705 -0.0198  0.0946  0.0948
 5896W        W21790  12.784   3.282  11.209 -0.0695  0.0991  0.2475
 5897W        W21791   6.283  15.658   4.321  0.2749 -0.1892 -0.1308
 5898W        W21792   7.679   4.040   2.188 -0.0395  0.0905 -0.2890
 5899W        W21793   8.394   8.902   3.071 -0.4225 -0.2101 -0.1675
 5900W        W21794   6.999  15.020   3.045 -0.2658 -0.1217 -0.0654
 5901W        W21795   6.529   0.585   2.834 -0.0499  0.1310  0.1019
 5902W        W21796   9.434  15.937  12.180 -0.0245  0.0048 -0.1670
 5903W        W21797  13.363  11.993   6.360 -0.3035  0.1026 -0.1106
 5904W        W21798   9.935  12.203  11.805 -0.0033 -0.3513 -0.3759
 5905W        W21799  13.128   4.645  12.947 -0.1676  0.2531 -0.0894
 5906W        W21800  17.327   7.659   4.388  0.0778  0.1891  0.2025
 5907W        W21801  15.347   6.388   3.161  0.4467 -0.0738  0.0728
 5908W        W21802  15.053   7.594   3.101 -0.0328  0.1455 -0.2086
 5909W        W21803   5.055  14.389   4.421 -0.1508  0.1070 -0.0076
 5910W        W21804   7.252  10.485  11.343 -0.0257  0.0391 -0.3273
 5911W        W21805  15.331   1.645   1.829  0.0084 -0.1720  0.0635
 5912W        W21806   3.778   6.066   5.565 -0.0282 -0.2572  0.1449
 5913W        W21807  15.584  12.349   1.754 -0.2628  0.3254 -0.0494
 5914W        W21808  18.418   0.134   5.200 -0.3558 -0.0273 -0.2487
 5915W        W21809   1.007  18.647  14.244  0.1792  0.0487  0.0445
 5916W        W21810  13.628   0.367   1.423 -0.0446 -0.1211 -0.1875
 5917W        W21811   4.407   4.783   2.998  0.1801 -0.2900  0.0914
 5918W        W21812  16.130   6.508   0.863 -0.2089  0.0444  0.2054
 5919W        W21813   3.826  16.684  12.945  0.1171  0.0149  0.1541
 5920W        W21814   3.023   2.865  11.487 -0.1653 -0.0849 -0.0992
 5921W        W21815   4.126  13.426   2.512 -0.0570  0.1162 -0.1612
 5922W        W21816  16.372  17.423   1.784  0.3634 -0.0290 -0.2111
 5923W        W21817  18.026   5.845   2.903 -0.1198 -0.0812  0.0214
 5924W        W21818  12.484  16.602  15.134  0.1005  0.0582 -0.2342
 5925W        W21819   3.277   4.379   4.769  0.0693  0.0800 -0.1225
 5926W        W21820  13.047  15.963  11.711 -0.0106 -0.0315 -0.0419
 5927W        W21821  10.052  17.426  14.465  0.0081 -0.1535  0.0041
 5928W        W21822  15.992   7.429  11.599  0.2335  0.1180  0.0199
 5929W        W21823   2.805   8.267  13.727  0.0243 -0.2693 -0.0024
 5930W        W21824  15.166   3.760   4.419  0.2824  0.0444  0.3124
 5931W        W21825   3.232   9.015  12.491  0.3200  0.1899  0.0763
 5932W        W21826   0.200   6.738  14.812 -0.1193  0.0253  0.4025
 5933W        W21827   8.878   4.240  10.405  0.2413  0.2720  0.1863
 5934W        W21828  17.012   1.469  13.850 -0.2206  0.1380  0.2571
 5935W        W21829   2.719  16.711   3.924  0.0508  0.2206 -0.0023
 5936W        W21830  15.197   2.946   3.240 -0.0870  0.0437 -0.0980
 5937W        W21831  18.388   9.186   3.057 -0.1481  0.1965  0.0241
 5938W        W21832   0.304  15.787  10.880  0.2397 -0.0578  0.0186
 5939W        W21833  10.596   6.358  15.214  0.1977  0.0310  0.0066
 5940W        W21834   5.417  15.968  10.045 -0.0035  0.0295 -0.2032
 5941W        W21835   5.273   1.129  14.097 -0.1325 -0.0243  0.3807
 5942W        W21836   2.378   2.737  14.976  0.0240 -0.1238 -0.2288
 5943W        W21837   0.529  16.281  15.173  0.2003  0.1194  0.2462
 5944W        W21838   0.699   7.800   0.782  0.3255 -0.1999  0.0757
 5945W        W21839   6.005   8.206   3.212 -0.0759  0.2248  0.0058
 5946W        W21840  17.873   0.735   0.785  0.0956  0.1398 -0.2188
 5947W        W21841   6.178   5.534   4.352 -0.0208  0.2048 -0.1052
 5948W        W21842   0.903   3.619  14.684  0.1629  0.0943  0.3473
 5949W        W21843   0.424   8.873   4.585  0.1884 -0.2620 -0.3875
 5950W        W21844  17.691  15.899   3.692  0.0347  0.4902  0.0451
 5951W        W21845   8.526   2.647  13.319 -0.1645  0.0860  0.1243
 5952W        W21846   2.213   3.281  12.780  0.1719  0.0418 -0.3559
 5953W        W21847   7.753  14.406  13.057  0.2499 -0.3153  0.1864
 5954W        W21848   7.465   5.670   0.846 -0.0010 -0.1074 -0.3558
 5955W        W21849   0.434   7.581   4.128  0.0872  0.0168  0.0252
 5956W        W21850  13.347  14.265  12.116  0.1838  0.2757  0.1170
 5957W        W21851  18.648   7.088  12.750 -0.0127  0.0794 -0.1874
 5958W        W21852  10.197  11.525  14.888 -0.0551 -0.2474 -0.0217
 5959W        W21853  12.079   6.175   0.793 -0.0082 -0.0103  0.1595
 5960W        W21854  15.783   7.284   2.780  0.0461 -0.0836  0.0225
 5961W        W21855   8.311  16.501   1.604 -0.0190  0.0695 -0.1068
 5962W        W21856   8.245   6.031   5.286 -0.0053  0.1085  0.3015
 5963W        W21857  15.653   0.183  11.788 -0.0378 -0.3121  0.0567
 5964W        W21858   0.021   0.547   0.924  0.0206 -0.1717 -0.1043
 5965W        W21859   5.252  12.581  12.605 -0.1532 -0.3722 -0.0661
 5966W        W21860   0.167   9.363   2.938  0.0462 -0.0692 -0.1924
 5967W        W21861  17.936   4.612  12.966 -0.1229 -0.2031  0.0974
 5968W        W21862   2.437  12.606  11.922 -0.1468  0.2608  0.1267
 5969W        W21863   6.907   9.175   4.084  0.0657  0.3273 -0.0197
 5970W        W21864   2.996  10.875  15.241  0.0010 -0.2132  0.0811
 5971W        W21865   5.273   2.917  12.304  0.1142  0.1533  0.0303
 5972W        W21866   2.610   0.628   5.755 -0.0733  0.0864 -0.1751
 5973W        W21867   0.699   9.132   0.443 -0.1828 -0.0676  0.0593
 5974W        W21868   1.821  10.857  14.790  0.0352  0.1488 -0.2901
 5975W        W21869   8.778  12.806   4.891 -0.0249 -0.0639  0.0504
 5976W        W21870   2.820  12.240  12.741  0.0270 -0.0198 -0.1911
 5977W        W21871  12.078   1.187  11.177  0.3301 -0.1820 -0.0637
 5978W        W21872   5.320   5.277  15.572  0.2132  0.0170  0.1409
 5979W        W21873  13.996   8.822  12.297 -0.0108  0.1081  0.0241
 5980W        W21874   1.050   0.330  14.461 -0.3411  0.3611 -0.2897
 5981W        W21875   5.159  12.932   1.670 -0.0089 -0.1471 -0.1573
 5982W        W21876   7.765  12.849  14.446  0.2702  0.1560  0.2013
 5983W        W21877   7.234   9.869  12.185  0.3670  0.1407  0.2345
 5984W        W21878  16.784   7.791   5.200 -0.0861  0.0059  0.2159
 5985W        W21879   4.003   4.373   1.652  0.4458  0.0524 -0.0298
 5986W        W21880  17.205  13.258   1.536  0.0735 -0.1661  0.1385
 5987W        W21881   2.757   9.183   4.846 -0.1470  0.3582  0.0599
 5988W        W21882  17.428   0.950  13.757  0.3110  0.1115  0.0312
 5989W        W21883  11.309   2.392   1.330  0.2104 -0.5667 -0.2887
 5990W        W21884  10.140   8.370  11.207  0.1889 -0.0906  0.1617
 5991W        W21885   6.939   7.824   3.747  0.0039 -0.0043  0.2695
 5992W        W21886   4.917   9.004  14.916 -0.3608 -0.3898 -0.0981
 5993W        W21887   9.517   9.748  14.738  0.0650  0.0234 -0.1909
 5994W        W21888   2.100  13.266   1.802 -0.2368 -0.0958  0.0990
 5995W        W21889   6.590  17.689  15.247 -0.1077 -0.1217  0.4728
 5996W        W21890  15.903   8.214  14.555 -0.2839 -0.3461 -0.2645
 5997W        W21891  16.354   9.090   5.569  0.5285 -0.0327 -0.0911
 5998W        W21892  12.521  15.386   0.615  0.2048 -0.1626 -0.1960
 5999W        W21893   2.033  15.273  15.357  0.0980 -0.1459  0.0132
 6000W        W21894   5.121   3.419   3.285  0.0752 -0.0913 -0.0132
 6001W        W21895   2.430  10.721  13.130  0.1038 -0.1199  0.2167
 6002W        W21896   6.982  11.782  15.096  0.0950  0.0175  0.0010
 6003W        W21897   4.803  13.092  10.786  0.1893 -0.0743  0.1972
 6004W        W21898   6.612  16.869  12.915 -0.5294 -0.1026 -0.1748
 6005W        W21899  17.049   7.452   5.471 -0.3025  0.1410  0.2562
 6006W        W21900  18.292  12.221  13.980  0.1476 -0.0562 -0.0237
 6007W        W21901   5.113   2.998   4.384 -0.1253  0.0151 -0.0954
 6008W        W21902  17.686   7.347  14.725  0.1549 -0.0388 -0.2389
 6009W        W21903  17.623  14.786   1.266  0.1430  0.1404 -0.0311
 6010W        W21904   3.339   6.824  12.132  0.0980  0.3370  0.0884
 6011W        W21905   8.347  13.225  12.788 -0.4368 -0.1105  0.0701
 6012W        W21906  11.660  16.012  12.371 -0.0446  0.1759  0.1854
 6013W        W21907  11.579   7.927  14.460  0.0343  0.2197  0.0478
 6014W        W21908  15.615   7.109  13.768  0.0658 -0.0476  0.1089
 6015W        W21909   1.313   1.771  13.291  0.2081  0.1497 -0.2465
 6016W        W21910  13.691   1.078  11.711  0.0194 -0.0407  0.2264
 6017W        W21911  15.677   6.531  12.893 -0.0305 -0.0116 -0.1007
 6018W        W21912   4.725   1.117   4.297  0.2703 -0.3576 -0.0443
 6019W        W21913  17.648  17.543   0.970 -0.3348  0.0487  0.1068
 6020W        W21914   9.550   4.121   4.566 -0.1161  0.0045 -0.0482
 6021W        W21915  15.701  17.126  14.022 -0.3147 -0.5876 -0.0914
 6022W        W21916   9.068  14.208  13.593 -0.1135  0.2658 -0.1975
 6023W        W21917  17.459   0.860   4.303 -0.2351 -0.1961 -0.2716
 6024W        W21918   6.777  11.028  13.936 -0.2636 -0.1165 -0.1159
 6025W        W21919   4.828   8.904   3.812  0.1789 -0.0081 -0.2081
 6026W        W21920   5.295  13.438  14.167  0.2484 -0.0311 -0.2724
 6027W        W21921  15.836   0.762  13.409  0.1377 -0.0657  0.0410
 6028W        W21922  11.657   8.879   5.410  0.0239 -0.1792  0.3135
 6029W        W21923  11.595  12.248  12.838  0.2833 -0.1210  0.0955
 6030W        W21924  18.761   4.564   4.976 -0.3061  0.0977 -0.1544
 6031W        W21925  14.601   3.424  12.758 -0.0382  0.0571  0.1153
 6032W        W21926  10.514  16.827  10.821  0.2251  0.3637 -0.1008
 6033W        W21927  11.754  18.522   2.212  0.2373  0.0835 -0.2854
 6034W        W21928  15.633   5.761   0.785  0.2597 -0.0336  0.1214
 6035W        W21929   9.870  15.552   9.762  0.1057 -0.0843  0.1179
 6036W        W21930   0.185   0.812  14.033 -0.0251 -0.1338  0.2473
 6037W        W21931  12.331   1.018  11.609 -0.0501  0.2540 -0.0558
 6038W        W21932  13.394   3.428   3.413 -0.1464  0.1357  0.1322
 6039W        W21933   0.279  14.762   0.632  0.1941 -0.1926 -0.1919
 6040W        W21934   6.340   1.414   2.579  0.1729  0.0649  0.2407
 6041W        W21935  16.051  17.172   4.803  0.0603 -0.0853 -0.1519
 6042W        W21936  13.189   7.824  11.839 -0.0068 -0.1305  0.0326
 6043W        W21937  11.304   7.185   3.605  0.0605 -0.0870  0.4036
 6044W        W21938  17.604   2.171  14.125 -0.1880  0.1510  0.2071
 6045W        W21939   7.647  13.558   1.231 -0.1183  0.1026  0.0025
 6046W        W21940   6.045  13.024   1.596 -0.1811 -0.0887 -0.1062
 6047W        W21941  10.466   2.784  12.748  0.0705  0.0053  0.0464
 6048W        W21942  11.043  10.541   5.408 -0.1655 -0.2545  0.1225
 6049W        W21943  12.598  11.930   5.335 -0.1312  0.0842 -0.3498
 6050W        W21944   5.857  17.159   3.484 -0.2133  0.0504 -0.2646
 6051W        W21945  12.887   1.718  13.068  0.0824 -0.0067 -0.1429
 6052W        W21946   9.438   9.423   5.328 -0.1261 -0.2263  0.1075
 6053W        W21947   8.887   9.537  13.090  0.2331  0.1171  0.1926
 6054W        W21948   3.220  17.610  15.235  0.0305  0.0605  0.2454
 6055W        W21949  18.166   8.655  11.729 -0.0107 -0.1293  0.0465
 6056W        W21950   4.894   1.877   2.487  0.1861 -0.1165 -0.0291
 6057W        W21951   9.830   8.616  11.773 -0.1294  0.1776  0.5081
 6058W        W21952  17.169  10.954  11.282 -0.0204  0.0965 -0.0333
 6059W        W21953  16.142   5.942  12.169 -0.0830  0.0900  0.4063
 6060W        W21954  14.361   7.629  12.376 -0.1797  0.1701 -0.3568
 6061W        W21955  15.742   6.679   1.061  0.1118 -0.1674 -0.1528
 6062W        W21956   5.593   0.028  10.763  0.1719 -0.1870 -0.1764
 6063W        W21957  11.607  15.051   5.142  0.2865  0.1474 -0.0399
 6064W        W21958  11.612   6.911   0.790 -0.5151 -0.3326 -0.1514
 6065W        W21959  12.072  12.034   0.108  0.2326  0.1975  0.5003
 6066W        W21960   6.951  13.447   0.012  0.1333 -0.1675  0.1878
 6067W        W21961   4.293   7.734  12.985 -0.0227  0.1022  0.0608
 6068W        W21962   6.614   6.173   3.003  0.1030  0.3254  0.3912
 6069W        W21963   3.700   6.639   4.882  0.0772  0.1311  0.1476
 6070W        W21964  16.112  11.737   0.404  0.1699 -0.0535  0.2135
 6071W        W21965  15.143  11.113  12.400 -0.0639 -0.2043 -0.2138
 6072W        W21966  13.684   5.271  13.541 -0.3888 -0.1251 -0.3745
 6073W        W21967  12.629  15.321  14.433  0.1686 -0.3205  0.0143
 6074W        W21968  17.294  10.899  14.293 -0.0696  0.2774  0.0911
 6075W        W21969   1.133  10.777   3.810  0.1990 -0.0562 -0.2474
 6076W        W21970   1.886  15.773  14.645  0.0288  0.0331 -0.0518
 6077W        W21971  13.088   4.490   5.899 -0.0899  0.0426  0.0891
 6078W        W21972   0.209  12.953  14.394  0.2795 -0.1013 -0.0176
 6079W        W21973   3.793  15.026  11.674 -0.0087 -0.1367 -0.1504
 6080W        W21974   8.185   9.606   5.775  0.0089 -0.2188  0.0757
 6081W        W21975  11.493  17.415  14.577  0.1473 -0.0480 -0.0993
 6082W        W21976   4.341  11.935  11.182  0.0650 -0.1875 -0.3735
 6083W        W21977  15.818   1.619   5.411  0.2350 -0.1621  0.0171
 6084W        W21978  10.658   9.914  12.926 -0.0487  0.0642  0.1165
 6085W        W21979  10.606   8.868   2.190 -0.2141  0.0467 -0.1838
 6086W        W21980  11.306  15.760   2.881 -0.0479  0.0189  0.0780
 6087W        W21981  14.666   2.790  14.250 -0.0388  0.1242 -0.2144
 6088W        W21982   5.268   8.409  12.940 -0.0066 -0.0579 -0.0532
 6089W        W21983  17.003   7.463   0.731  0.0874 -0.1771 -0.0683
 6090W        W21984  14.125   3.200  12.896  0.0389  0.0927  0.1134
 6091W        W21985  18.298   7.520  12.388 -0.3933 -0.0881  0.0477
 6092W        W21986   8.723  10.920  15.336 -0.1340 -0.2366  0.0422
 6093W        W21987   0.546  13.723   5.886  0.1060  0.1476 -0.1787
 6094W        W21988  12.689  17.534  11.922  0.0002  0.0694  0.0293
 6095W        W21989  15.774   6.735  12.440 -0.3377 -0.1308 -0.0848
 6096W        W21990  14.707  18.035   0.277 -0.0872 -0.1796  0.0726
 6097W        W21991  15.682  12.392   0.426  0.1631  0.0699  0.3118
 6098W        W21992  14.713  16.937   2.948  0.0949 -0.1706  0.2714
 6099W        W21993  12.134  18.308   0.395 -0.0266 -0.3631  0.1284
 6100W        W21994   1.353   6.239  11.509  0.0259  0.3250  0.0900
 6101W        W21995   0.605  16.822   3.966 -0.0848  0.3762  0.2244
 6102W        W21996   4.257  14.456   1.347 -0.3791 -0.1248  0.0167
 6103W        W21997  15.931   1.291   1.018  0.1536 -0.1014 -0.1760
 6104W        W21998   2.398   9.380   0.328  0.1112 -0.7104  0.0938
 6105W        W21999   0.574   5.102   0.163 -0.2679 -0.1323 -0.5466
 6106W        W22000   2.013   4.920   5.393  0.0858  0.3572 -0.2422
 6107W        W22001  14.588   2.024  15.198 -0.0168 -0.1638  0.1549
 6108W        W22002  12.407  18.336  13.118  0.2408  0.0172 -0.1567
 6109W        W22003   5.653   8.952   1.219 -0.0593 -0.2256  0.1570
 6110W        W22004  11.835   4.156   4.824 -0.0098 -0.0441 -0.1699
 6111W        W22005  16.739   5.475  11.162 -0.1499 -0.0251 -0.1586
 6112W        W22006  12.709  11.040   2.685 -0.1702  0.0411  0.1487
 6113W        W22007   2.422   3.687   1.362  0.3098 -0.0375  0.2244
 6114W        W22008  17.451  11.531  11.868 -0.0643 -0.0196  0.0721
 6115W        W22009  11.818   7.231   4.700 -0.1395 -0.1126 -0.0656
 6116W        W22010  15.046   6.909   0.432 -0.0088  0.1077 -0.1451
 6117W        W22011  17.760   2.083   1.541 -0.0185  0.3019 -0.2472
 6118W        W22012  11.503  14.741   0.464  0.0247 -0.0317  0.1785
 6119W        W22013  15.607  14.040   2.010 -0.0779  0.0132  0.3453
 6120W        W22014  17.143  16.354  14.948  0.2078 -0.1519  0.1861
 6121W        W22015  11.300   5.526   2.533  0.3144  0.1829 -0.2774
 6122W        W22016   5.473   2.323   4.157  0.0166 -0.1035 -0.0457
 6123W        W22017   6.953   9.621   3.173 -0.2768 -0.0117  0.0016
 6124W        W22018  12.950   0.182   2.723 -0.0064 -0.2595 -0.3055
 6125W        W22019  11.083  15.207  13.965  0.0612  0.0612  0.0289
 6126W        W22020   6.896   3.913  12.469 -0.1444  0.1237 -0.0077
 6127W        W22021  10.538  17.530   0.624  0.2768 -0.3974 -0.0836
 6128W        W22022  10.410  11.324  15.289 -0.0206  0.1760 -0.0126
 6129W        W22023  15.068   2.447   4.292 -0.0720 -0.1537  0.0964
 6130W        W22024   9.357  16.095  14.831 -0.0736 -0.1602  0.2731
 6131W        W22025   6.471  16.358  15.048 -0.1352 -0.0765 -0.0118
 6132W        W22026  17.957  11.689   4.501 -0.0537  0.0046 -0.0813
 6133W        W22027   8.426   2.906   3.474 -0.0313 -0.0344 -0.0653
 6134W        W22028  15.112  16.281   2.364  0.3151 -0.0473  0.0406
 6135W        W22029  15.883   3.397   2.583 -0.0777  0.1573 -0.2258
 6136W        W22030  11.018   5.782   3.417  0.2703 -0.2461  0.1016
 6137W        W22031   8.467  11.221  13.956 -0.1717 -0.0025  0.0662
 6138W        W22032  17.746  14.099   1.576 -0.0498 -0.1782  0.1126
 6139W        W22033  12.396   3.610   1.170  0.2989  0.0650  0.1567
 6140W        W22034  17.185   4.984   1.766  0.1934 -0.1363 -0.1363
 6141W        W22035   2.174   1.886  14.258  0.0956 -0.2727  0.0716
 6142W        W22036  15.322  18.766  11.434  0.1119 -0.2907 -0.1597
 6143W        W22037  15.261   6.958   0.949 -0.0260  0.1734  0.2081
 6144W        W22038   2.297  17.101   1.262 -0.0152 -0.4915 -0.1642
 6145W        W22039  13.867  11.076  11.384  0.0009 -0.0232  0.0778
 6146W        W22040  15.445  15.093  15.437 -0.0474 -0.2085  0.4371
 6147W        W22041   2.264   1.535   0.877 -0.1337 -0.0100  0.2312
 6148W        W22042  18.421   0.197   0.142  0.1941  0.2199  0.0389
 6149W        W22043   0.879  15.447   4.009 -0.1486  0.0458  0.2434
 6150W        W22044   7.535   6.588   0.291  0.0047 -0.0662 -0.1122
 6151W        W22045   8.584   8.258  12.821 -0.0426 -0.0287 -0.1010
 6152W        W22046   7.058  12.435  11.125  0.0655 -0.2827  0.2416
 6153W        W22047   4.242   8.121   4.284  0.1375  0.1426  0.0492
 6154W        W22048  14.521   3.431   0.376  0.0082  0.1824 -0.0045
 6155W        W22049   7.897   0.019  13.336  0.2706  0.1957  0.2518
 6156W        W22050  13.486  13.141  13.367 -0.0497 -0.0418 -0.2210
 6157W        W22051   8.045   4.413  11.036  0.0254  0.1364  0.1370
 6158W        W22052  17.676  10.595  14.353  0.1895 -0.2137 -0.0304
 6159W        W22053   4.912   6.241   2.951  0.5175 -0.2809 -0.1110
 6160W        W22054   9.120   4.436  12.082 -0.0217  0.0952  0.1058
 6161W        W22055   0.490   6.125  12.357  0.0400  0.2529  0.3922
 6162W        W22056   3.993  17.097   1.632  0.0766 -0.3176  0.2394
 6163W        W22057   6.854  12.238   0.748 -0.0761 -0.1773 -0.1874
 6164W        W22058   7.144   2.152  14.256  0.2436 -0.2789 -0.4306
 6165W        W22059   6.403   6.970  14.036 -0.2232 -0.0958  0.0788
 6166W        W22060  14.948   7.300   0.155 -0.0571 -0.3222 -0.1312
 6167W        W22061   6.305  17.772   3.212  0.1856 -0.1133 -0.1200
 6168W        W22062   7.997   6.234  13.093 -0.0284  0.0941  0.0448
 6169W        W22063   0.740  18.430  12.172 -0.0886 -0.1417  0.0155
 6170W        W22064  15.411  17.135   0.937  0.0566 -0.1208 -0.0534
 6171W        W22065   0.123  17.888   5.208  0.1443  0.1994  0.0853
 6172W        W22066   8.848   3.290  12.768  0.1223  0.2836  0.0958
 6173W        W22067  14.993  12.668   3.773  0.0089  0.0063  0.0848
 6174W        W22068  11.363  11.014  15.565 -0.2102 -0.1702  0.1263
 6175W        W22069  18.295   8.129  13.332  0.0287 -0.0084 -0.0815
 6176W        W22070   5.157  16.038   0.257 -0.1007 -0.1262  0.0914
 6177W        W22071   1.397   0.712  12.122  0.2851  0.1873  0.2124
 6178W        W22072   7.395  16.636  15.204  0.3000  0.3421  0.0739
 6179W        W22073   5.429   0.137   3.806 -0.1052 -0.2321  0.1131
 6180W        W22074   6.856  18.708   2.145 -0.0036 -0.0439  0.0286
 6181W        W22075   3.568  17.168  11.415  0.2765  0.2455 -0.1857
 6182W        W22076   4.570   4.354  12.918  0.3962 -0.1526 -0.0987
 6183W        W22077   3.453  11.305  11.699  0.1564  0.0236 -0.0067
 6184W        W22078   2.570  18.120  14.541  0.2899  0.2122  0.1818
 6185W        W22079   3.445  15.716  15.203  0.2833 -0.0838  0.2142
 6186W        W22080  15.214   8.084  13.275 -0.0194 -0.0819  0.0780
 6187W        W22081  17.297  12.916  13.416  0.2721  0.1532 -0.2067
 6188W        W22082  15.420   0.964   3.639 -0.0636 -0.1927 -0.0378
 6189W        W22083   3.289   6.420   2.215  0.1110  0.2478 -0.0264
 6190W        W22084   4.281  10.692   2.429 -0.2333 -0.1609  0.2057
 6191W        W22085  18.659   5.433   1.440 -0.3860 -0.0806 -0.0324
 6192W        W22086  14.678  14.088  12.076 -0.2299 -0.3775 -0.1283
 6193W        W22087   6.292  11.301   3.132  0.0872  0.3835  0.1585
 6194W        W22088  16.068   9.628   2.215 -0.0101 -0.2751  0.1125
 6195W        W22089  10.557  13.713  13.914  0.4615  0.2486 -0.0203
 6196W        W22090  15.596   4.157  12.244  0.4382 -0.4144  0.0488
 6197W        W22091  16.744   3.626   5.435  0.2140 -0.1513 -0.1025
 6198W        W22092   7.971   2.829   4.432 -0.2231 -0.0437 -0.1963
 6199W        W22093  10.180   6.631   0.043 -0.0387 -0.1178  0.3592
 6200W        W22094  16.414  12.151   5.738 -0.1246 -0.4605  0.0553
 6201W        W22095   1.911  17.275  14.840 -0.0618 -0.0814 -0.0057
 6202W        W22096  14.628   6.515  13.677 -0.0170 -0.0177 -0.1598
 6203W        W22097  10.538   2.246   4.529  0.2564  0.1144  0.1548
 6204W        W22098   9.338  18.704  14.624 -0.0143 -0.4407  0.1273
 6205W        W22099  15.740  15.513  12.449 -0.0231 -0.1861  0.3323
 6206W        W22100  10.161  10.992  12.426  0.0100 -0.1223  0.4455
 6207W        W22101   7.105  14.879   0.351  0.0902  0.1035  0.2998
 6208W        W22102   5.911  14.498   5.375 -0.0935 -0.0994  0.0585
 6209W        W22103   2.573  13.041   3.727 -0.0190 -0.1317  0.0318
 6210W        W22104   7.849   8.520  10.525 -0.1786  0.1636 -0.0984
 6211W        W22105  14.155  11.417  12.780 -0.0352 -0.3292 -0.2172
 6212W        W22106   4.798  17.554   4.035  0.0409  0.0124 -0.0757
 6213W        W22107   5.129  12.997   4.990  0.2578  0.1105  0.2552
 6214W        W22108   6.300   4.118  11.867  0.3417  0.0498  0.0107
 6215W        W22109   3.451  14.586   1.515  0.4961 -0.0298  0.1379
 6216W        W22110  12.584   0.577   1.322  0.1469  0.1665  0.1456
 6217W        W22111   8.327   7.685  12.620 -0.0527  0.2176 -0.1241
 6218W        W22112  13.865  18.188  11.004 -0.0279 -0.2411 -0.1425
 6219W        W22113  13.652  13.779   4.703 -0.0114  0.5288 -0.0721
 6220W        W22114   1.081   3.147   4.969  0.3202 -0.1494  0.0584
 6221W        W22115  10.549   3.345  11.930  0.1478  0.2557 -0.0574
 6222W        W22116   8.515   4.650   1.760 -0.1311 -0.1309  0.1359
 6223W        W22117   1.163  18.469  12.464  0.1617 -0.1563 -0.0581
 6224W        W22118   1.399  13.710  14.580 -0.0372  0.0977 -0.0257
 6225W        W22119  12.762   6.704  13.396  0.3300 -0.4695 -0.3562
 6226W        W22120  14.536  15.670   3.301 -0.0328  0.1117  0.0026
 6227W        W22121   2.835  17.067  12.532 -0.2169 -0.0021 -0.2392
 6228W        W22122   7.426   9.974   5.983  0.0142  0.2982 -0.0168
 6229W        W22123   7.685  14.031  15.160  0.3592 -0.0086 -0.4929
 6230W        W22124  10.514   9.018  13.828 -0.2115 -0.1634 -0.0915
 6231W        W22125   8.504   2.976  13.703 -0.0296  0.2571 -0.2516
 6232W        W22126   8.542   9.808  14.706  0.2991 -0.2390  0.1418
 6233W        W22127  14.124   8.212  13.662 -0.0622 -0.4616  0.1403
 6234W        W22128  15.093   6.241  14.444  0.0127  0.2158  0.1760
 6235W        W22129  13.759  15.801   4.854 -0.2563  0.0100  0.1544
 6236W        W22130  15.284   3.076  15.562 -0.0329 -0.3370 -0.1377
 6237W        W22131  17.239   8.700   3.460 -0.0564  0.2862 -0.1160
 6238W        W22132   8.350   9.947  14.244  0.3684  0.1175  0.0891
 6239W        W22133  12.679   1.399   2.296 -0.2964 -0.2338 -0.1465
 6240W        W22134  11.539   2.055   4.832  0.1839 -0.3408  0.3116
 6241W        W22135   6.159  13.369  15.166 -0.0283  0.1433  0.2790
 6242W        W22136  16.836  13.391   5.089  0.5672 -0.1898  0.1228
 6243W        W22137   2.378   2.059   0.495 -0.1213 -0.1603  0.2803
 6244W        W22138  15.846  13.158   2.441 -0.1408 -0.2589 -0.0441
 6245W        W22139   7.189  11.075  13.632  0.0581  0.0300  0.1724
 6246W        W22140  14.427   4.157   3.573  0.0689  0.0933  0.1574
 6247W        W22141   2.137  18.628   2.736  0.0595  0.4126  0.0125
 6248W        W22142   5.960  12.717   4.106  0.4571  0.2116 -0.1434
 6249W        W22143  15.197   8.003   4.036 -0.4280  0.3388  0.3429
 6250W        W22144  17.878  18.321  14.895 -0.1146  0.0701 -0.1376
 6251W        W22145  11.323  13.532  14.700 -0.0813 -0.1631 -0.2096
 6252W        W22146  11.996  18.320   1.818 -0.1683  0.0897  0.0926
 6253W        W22147  14.831   6.326  12.716  0.2507 -0.0596 -0.0493
 6254W        W22148  16.668  15.737  15.440  0.0232 -0.0856 -0.1648
 6255W        W22149  14.210   5.905   2.953  0.0046 -0.1019  0.0061
 6256W        W22150  17.391  16.697  10.875 -0.2566 -0.0477 -0.0596
 6257W        W22151   5.621  10.638   0.083  0.3108 -0.3190  0.0301
 6258W        W22152   5.793  18.498  11.907 -0.2115 -0.2017 -0.0737
 6259W        W22153   0.878  11.339  14.393 -0.0778 -0.0141  0.0316
 6260W        W22154  16.209   5.725   0.636  0.2775  0.2235  0.2409
 6261W        W22155  16.486   0.568   5.470  0.0074  0.4252 -0.0721
 6262W        W22156  14.347   4.203   1.537 -0.2755  0.4142  0.3672
 6263W        W22157  11.415   0.035  11.189 -0.0430 -0.2044  0.1377
 6264W        W22158   1.436   4.135  11.396  0.2238 -0.3802  0.1503
 6265W        W22159   4.295   2.894  11.383  0.0647 -0.2680 -0.1477
 6266W        W22160  15.461   3.111  14.405  0.2871  0.0662 -0.1678
 6267W        W22161  15.889   3.821  13.111 -0.0581 -0.1992  0.1946
 6268W        W22162  11.761  12.330   0.365 -0.2493  0.6276 -0.0167
 6269W        W22163  10.925   8.139   5.200 -0.0550 -0.2255 -0.0385
 6270W        W22164   2.353  18.674   5.299 -0.1363 -0.0897 -0.1964
 6271W        W22165  16.029   3.244   3.118  0.1674  0.0948  0.1616
 6272W        W22166  16.644  16.792  13.624 -0.0542  0.0278  0.1293
 6273W        W22167   7.508  17.305   2.399  0.1070  0.1251 -0.2898
 6274W        W22168  18.223  13.148   2.375 -0.0446 -0.1562  0.0169
 6275W        W22169  15.366  17.175  15.380 -0.1571  0.2644  0.1824
 6276W        W22170   8.649  12.502   2.125 -0.0914 -0.0016 -0.0774
 6277W        W22171  11.563   5.605  11.851  0.2989 -0.1155 -0.0635
 6278W        W22172  18.758   9.811   2.177 -0.4357  0.3101  0.2803
 6279W        W22173   2.824  15.855  10.374 -0.1509  0.2127  0.0985
 6280W        W22174  13.330   5.998   1.609 -0.2503  0.1632  0.1417
 6281W        W22175  12.947  14.508  14.632 -0.2142  0.3518 -0.0272
 6282W        W22176  11.987   1.811   9.817 -0.2132  0.0596 -0.0630
 6283W        W22177  13.235  11.422  13.089 -0.2097  0.2580  0.0680
 6284W        W22178  17.939   6.332   2.030  0.1709  0.0305 -0.2350
 6285W        W22179  18.342   9.124  11.530  0.0940 -0.1704 -0.0774
 6286W        W22180   8.773   1.803   1.594  0.2071 -0.0821  0.0574
 6287W        W22181   6.981   5.188  15.079 -0.0760  0.0329 -0.1325
 6288W        W22182   2.396  12.572  13.909 -0.1987 -0.1005 -0.0215
 6289W        W22183   1.645   6.519  10.354  0.1480  0.1207  0.0997
 6290W        W22184  17.726   8.892  13.362  0.0419  0.0038 -0.2377
 6291W        W22185   8.615  13.589  11.981  0.0345 -0.2228 -0.0257
 6292W        W22186   6.061   2.195   1.001  0.0129 -0.2732  0.1089
 6293W        W22187  11.915  15.746  12.052  0.2665  0.0179  0.0238
 6294W        W22188   0.830   4.246   4.552  0.0665 -0.1704  0.1069
 6295W        W22189  11.762  12.745  15.208 -0.0100 -0.1409  0.0309
 6296W        W22190  16.258   9.192  14.320 -0.0897  0.1908  0.1718
 6297W        W22191  16.424  14.425   3.343 -0.1867 -0.1973 -0.1860
 6298W        W22192   9.357  17.580  15.035 -0.2102 -0.0849  0.1340
 6299W        W22193   1.449  14.260   0.818 -0.1695  0.0200 -0.0460
 6300W        W22194  11.010   4.765  11.734  0.1500 -0.1523 -0.2555
 6301W        W22195   5.010  15.943  15.324  0.1053  0.1505 -0.1705
 6302W        W22196   8.782  15.069  15.428 -0.0186 -0.0833 -0.1760
 6303W        W22197  16.113   1.044  14.006  0.3499  0.0389 -0.1923
 6304W        W22198   2.732   1.527  10.471 -0.0650 -0.2713 -0.0495
 6305W        W22199   7.562  13.771   4.474 -0.2743  0.0087 -0.0584
 6306W        W22200   3.790   4.364   2.520  0.1501 -0.0774 -0.0043
 6307W        W22201   8.855   6.396   2.541 -0.0095  0.0225 -0.2042
 6308W        W22202  16.742   3.428   3.434 -0.0973 -0.1512 -0.3954
 6309W        W22203  17.631  14.393   2.698  0.2670 -0.3056  0.0556
 6310W        W22204  15.130  10.967   5.156  0.0320 -0.0714  0.0945
 6311W        W22205  13.134  16.752  11.223  0.0557 -0.0813 -0.1324
 6312W        W22206  13.568  18.062   0.553 -0.0092 -0.1035  0.1068
 6313W        W22207   4.688   2.821  12.446  0.1287  0.1074 -0.1854
 6314W        W22208   4.633   4.171  10.407 -0.2136  0.1318  0.2250
 6315W        W22209  13.718  18.353  13.416  0.0103 -0.0481  0.2939
 6316W        W22210   6.101   8.285  14.766 -0.3148 -0.1137 -0.3354
 6317W        W22211  15.196  15.755  12.616  0.0447  0.0438 -0.0436
 6318W        W22212  12.344   3.124  12.473  0.0923 -0.1414 -0.0197
 6319W        W22213   6.434  17.289  12.599 -0.0561  0.1372  0.0541
 6320W        W22214   3.620  12.513   2.406  0.1886  0.2422  0.1467
 6321W        W22215   1.989   0.811  12.996 -0.0884 -0.0913  0.0034
 6322W        W22216  11.898  16.841  13.891 -0.1472 -0.4568 -0.1501
 6323W        W22217   8.500   8.223   4.119 -0.3646  0.0308  0.1920
 6324W        W22218  17.185   4.489   1.263 -0.0414 -0.2002 -0.1658
 6325W        W22219  16.452   2.215  15.232  0.0000  0.1923 -0.0729
 6326W        W22220   9.683  10.880   2.090  0.0512  0.0652  0.1726
 6327W        W22221  13.744  15.628  12.571 -0.1447 -0.1703 -0.3598
 6328W        W22222   0.274  18.331  13.898  0.3364  0.1379 -0.1915
 6329W        W22223  14.967   0.138  13.718 -0.0947  0.1803  0.3766
 6330W        W22224   8.358   3.203   0.247  0.0819  0.2610 -0.0740
 6331W        W22225   1.714   6.959  11.165 -0.3016  0.1945 -0.1079
 6332W        W22226  12.077  17.946  13.151 -0.1639  0.0792 -0.1778
 6333W        W22227  16.565   0.673  12.376 -0.1903  0.0139 -0.1282
 6334W        W22228  16.878  17.888   2.381 -0.1112  0.0077 -0.0768
 6335W        W22229  16.242   7.846   2.459  0.1220  0.0793 -0.0546
 6336W        W22230  10.019  17.675   0.600  0.0102 -0.2918  0.1962
 6337W        W22231  13.135  17.341   0.642 -0.3658 -0.0398 -0.1198
 6338W        W22232  16.446  14.614   5.048 -0.1892  0.0410 -0.0680
 6339W        W22233   6.797  15.837  13.387  0.0770  0.1623  0.1461
 6340W        W22234  15.967   3.847  10.276 -0.1041  0.0131  0.1328
 6341W        W22235   3.369  14.284  13.480  0.1604  0.0590  0.0024
 6342W        W22236   7.272   6.856  10.730 -0.1735 -0.2557 -0.1334
 6343W        W22237  10.627   9.245   3.132 -0.0284  0.0900 -0.3038
 6344W        W22238   9.547  10.289   3.243  0.1017 -0.0334  0.3883
 6345W        W22239   6.133   3.527   0.766  0.1854 -0.0665 -0.0082
 6346W        W22240   7.561  17.250   0.869  0.0722 -0.1172 -0.1135
 6347W        W22241   4.781  17.343  12.113 -0.0573  0.0043 -0.1895
 6348W        W22242  13.333  16.566  15.005 -0.0366 -0.0490 -0.0142
 6349W        W22243   7.793   8.813   0.904 -0.0244  0.0258 -0.0217
 6350W        W22244   9.823   6.504   1.487  0.3033  0.1819  0.2876
 6351W        W22245   0.918  16.751   2.980  0.1132 -0.0043 -0.1656
 6352W        W22246  12.349  15.869  12.955 -0.0623  0.0846 -0.0242
 6353W        W22247  16.196   9.285   2.680  0.2602 -0.0120  0.0369
 6354W        W22248  17.739   2.129  14.617 -0.2528  0.0373  0.1042
 6355W        W22249   6.063  16.049   4.866  0.0661 -0.1736  0.0739
 6356W        W22250   0.090   2.342   1.691  0.3167  0.2878  0.1610
 6357W        W22251   8.374   8.770   0.867  0.1774 -0.0153 -0.3674
 6358W        W22252  15.556   8.577   0.101 -0.1138  0.0090 -0.1180
 6359W        W22253   2.331   3.252  12.119  0.2256  0.1968  0.1314
 6360W        W22254   1.287   4.259  14.008  0.1165 -0.2696  0.0172
 6361W        W22255  15.971   7.454   3.301 -0.0809 -0.2890 -0.2049
 6362W        W22256   0.306   2.854  13.937  0.0561  0.4101 -0.0391
 6363W        W22257   1.406  15.859  11.540 -0.1323  0.1516  0.0471
 6364W        W22258   7.351  18.457   0.212 -0.2901  0.2835  0.1383
 6365W        W22259   1.511   5.517   4.421 -0.0028  0.1516  0.3240
 6366W        W22260   3.154   6.954   1.030 -0.2206  0.1299 -0.0303
 6367W        W22261   4.563   3.382   5.384 -0.0113  0.0048 -0.2365
 6368W        W22262   8.629   4.933   4.960 -0.0423  0.0804  0.1162
 6369W        W22263   4.196   5.252   2.333 -0.0794 -0.0496  0.2704
 6370W        W22264   3.458   8.287  12.937 -0.3332 -0.0910 -0.2226
 6371W        W22265   9.941  18.308   0.835 -0.2404  0.0621  0.0419
 6372W        W22266   6.896  10.311   3.720  0.0791 -0.3414 -0.2519
 6373W        W22267   1.741  18.638  11.394  0.1695 -0.2932  0.0931
 6374W        W22268   7.274  16.585  12.086 -0.1450 -0.1138  0.0029
 6375W        W22269   9.629   1.061  14.937  0.2233 -0.2979  0.0164
 6376W        W22270  17.947   5.132  13.060  0.0598 -0.3515  0.2144
 6377W        W22271  11.437   1.447  12.035  0.1893 -0.0460  0.1585
 6378W        W22272   5.871   6.681   3.812  0.1082  0.4767 -0.1701
 6379W        W22273   5.095   0.510   3.728  0.1491 -0.0461 -0.1127
 6380W        W22274  11.713   3.254   2.877  0.1264 -0.1507  0.0207
 6381W        W22275  10.019   5.868   0.889  0.2305  0.2490  0.1929
 6382W        W22276  11.324  14.056   1.408  0.0799  0.2517  0.0561
 6383W        W22277   7.765   7.861   2.073  0.2026  0.1049  0.0021
 6384W        W22278   2.705   0.650   3.737  0.2484  0.0891 -0.0568
 6385W        W22279  16.150   0.364   2.815  0.0055  0.3629 -0.0170
 6386W        W22280   0.794   1.309   2.109 -0.4774 -0.0339  0.1115
 6387W        W22281  14.055   9.940   0.630 -0.0691 -0.1002 -0.1157
 6388W        W22282   1.219  14.183   3.883  0.0917 -0.2241  0.2175
 6389W        W22283  18.323  11.760   1.780 -0.2830 -0.3334 -0.1034
 6390W        W22284   1.956   6.096  15.534 -0.0909 -0.2901 -0.0565
 6391W        W22285   6.046  17.605   3.604 -0.1737 -0.0770 -0.2428
 6392W        W22286   6.470   7.577  12.705  0.2370  0.1518  0.2219
 6393W        W22287  11.232   4.268   1.962 -0.0015  0.0269 -0.1026
 6394W        W22288   5.118   4.433  11.124 -0.0475 -0.0534 -0.1260
 6395W        W22289   2.039   1.132  12.572  0.1546  0.2990 -0.3386
 6396W        W22290  12.741  18.272   5.606  0.0774 -0.3747  0.0283
 6397W        W22291   2.049  18.090  14.486  0.0208 -0.0219  0.0745
 6398W        W22292  17.168  11.990   5.580 -0.2803  0.0510  0.1474
 6399W        W22293  10.685   3.412   1.968  0.1415  0.1560 -0.0757
 6400W        W22294  18.290   9.667  11.394  0.0031 -0.1267 -0.3722
 6401W        W22295   7.031   5.063  11.339  0.1748  0.0855  0.0582
 6402W        W22296   6.954  17.615  10.995 -0.2731  0.0647  0.0195
 6403W        W22297   9.002  10.913   2.070 -0.1897 -0.0018 -0.1824
 6404W        W22298  14.424   3.458   4.906 -0.1946 -0.1690 -0.0432
 6405W        W22299   6.411   0.052  13.062 -0.1117  0.0528  0.0049
 6406W        W22300   5.002  13.616  10.629  0.2659  0.3229  0.3598
 6407W        W22301  14.292   3.898   4.022  0.2449  0.0274  0.2727
 6408W        W22302   8.730   1.411   0.288 -0.1484 -0.3009  0.0812
 6409W        W22303  12.257   9.486  11.206 -0.2301  0.1824  0.0490
 6410W        W22304   9.213   2.565   3.617  0.1770  0.1783 -0.2795
 6411W        W22305  10.497   6.231   5.074 -0.1209  0.4385 -0.2312
 6412W        W22306   2.370   4.565   1.813 -0.2946 -0.1159 -0.0719
 6413W        W22307   8.479   7.250   2.638 -0.1780  0.1993  0.0665
 6414W        W22308  13.238   1.762   0.848  0.0681 -0.3323  0.0678
 6415W        W22309  14.525  11.119   0.227 -0.1587 -0.1641  0.1273
 6416W        W22310  14.655  13.538   4.639 -0.0972 -0.0760 -0.3036
 6417W        W22311  15.612   2.614   1.663  0.0222 -0.2519 -0.0747
 6418W        W22312  11.880  18.295  14.751 -0.2505 -0.1830  0.1624
 6419W        W22313  17.128   2.977   4.070  0.0394  0.0275  0.0866
 6420W        W22314   8.839   7.083   3.423 -0.3458  0.2835 -0.1187
 6421W        W22315   7.051  17.764   5.696  0.2799 -0.0730 -0.1661
 6422W        W22316  13.076   2.267   4.203 -0.1708 -0.1292  0.0312
 6423W        W22317  18.589   1.301   1.170  0.0235 -0.2141 -0.1006
 6424W        W22318  12.853  10.745  15.180  0.1051  0.0274 -0.0057
 6425W        W22319   0.985  18.480   5.363  0.3147 -0.2965  0.0842
 6426W        W22320  11.077  15.891  13.636  0.1257 -0.0644  0.1759
 6427W        W22321  13.551   2.186   4.365 -0.1644  0.0258 -0.1308
 6428W        W22322  12.425  10.644  14.893  0.1154 -0.2815 -0.3254
 6429W        W22323   9.373  12.329  14.871  0.1756  0.0139  0.2272
 6430W        W22324   9.178   8.676   3.870 -0.0859 -0.1588  0.1966
 6431W        W22325   1.580   1.590   0.539  0.1903 -0.2894 -0.0580
 6432W        W22326  13.092  17.770   3.251 -0.0765  0.0426  0.0161
 6433W        W22327   0.487   6.382  11.597  0.1619  0.0714  0.1501
 6434W        W22328  11.408  16.322  14.480  0.1229  0.1057  0.0223
 6435W        W22329  17.423   6.791  14.040  0.3588  0.0699  0.0483
 6436W        W22330  11.932  10.694  12.639  0.2279  0.0096 -0.1391
 6437W        W22331  18.211  12.342  15.088 -0.2071 -0.0378  0.2977
 6438W        W22332   4.095   0.365   4.404 -0.2827 -0.0894 -0.0990
 6439W        W22333   2.873  13.448  13.491 -0.0428  0.0993  0.0003
 6440W        W22334  11.145  10.422   1.705 -0.1600 -0.2343 -0.0702
 6441W        W22335  15.661   3.082  13.346  0.3416  0.3272  0.1328
 6442W        W22336   3.895  14.353  13.197 -0.1388 -0.1850 -0.2671
 6443W        W22337   4.804  11.139  14.057 -0.0419  0.0933  0.1002
 6444W        W22338   3.572   2.992   1.537  0.1092  0.0173 -0.0592
 6445W        W22339   5.326   0.024   0.412  0.0344 -0.1595  0.0907
 6446W        W22340  14.298   7.913   1.228  0.1851  0.0707 -0.2536
 6447W        W22341   4.322   1.048   2.324 -0.2526  0.2789 -0.2708
 6448W        W22342   6.792  13.135  12.914  0.1426  0.1519  0.2795
 6449W        W22343  17.754   9.201   2.055  0.1273 -0.2721 -0.1013
 6450W        W22344   5.723   3.374  10.731  0.0162 -0.0194  0.2967
 6451W        W22345   3.384   2.318   3.034  0.4566 -0.1454 -0.3930
 6452W        W22346  14.692   6.256   1.140  0.0362 -0.1885 -0.0542
 6453W        W22347   2.589   8.996   3.564  0.0588  0.1077  0.0812
 6454W        W22348  13.119   3.782   1.618 -0.1139 -0.1981  0.0418
 6455W        W22349  11.048   7.677   6.325 -0.1650 -0.0848 -0.0255
 6456W        W22350   2.320  16.255  12.511 -0.4140  0.1542  0.1738
 6457W        W22351   0.988  18.419   1.886  0.1950 -0.1111  0.2028
 6458W        W22352   3.178   9.087   2.847 -0.0748  0.1125 -0.0808
 6459W        W22353  17.054  10.441   4.463 -0.0761  0.1706 -0.3392
 6460W        W22354  16.222  16.430  15.073  0.3136  0.1767  0.2206
 6461W        W22355   8.342  10.475   5.831 -0.0890  0.0702  0.1479
 6462W        W22356  14.915  15.578   5.315  0.2358 -0.2240  0.2032
 6463W        W22357  13.732   8.974   4.058  0.0533  0.0812 -0.2329
 6464W        W22358  11.763  15.726   1.049  0.2485  0.2202 -0.5098
 6465W        W22359   6.224   7.124   2.828 -0.0043  0.0070  0.2032
 6466W        W22360   8.033  12.519   3.805 -0.2240 -0.1035 -0.1997
 6467W        W22361  13.803  17.232  10.736 -0.0508  0.1752 -0.0821
 6468W        W22362  14.368   1.776   1.361 -0.2195 -0.0822 -0.0486
 6469W        W22363   4.499   8.860  10.485  0.0681 -0.0121  0.1257
 6470W        W22364  18.759  10.293   3.849 -0.1453 -0.1850 -0.2026
 6471W        W22365   2.501   8.712  10.627 -0.0930 -0.2574 -0.0905
 6472W        W22366   3.863  11.631   2.023 -0.4342 -0.2392  0.2090
 6473W        W22367  16.345   4.181  11.313  0.1971 -0.1460 -0.1580
 6474W        W22368  13.999  16.204  11.913 -0.0376 -0.0831 -0.3304
 6475W        W22369  18.719   3.114   0.222  0.2993  0.1298  0.0559
 6476W        W22370  12.978   0.024   0.610  0.1222 -0.1260  0.0406
 6477W        W22371   8.307  10.096  11.600 -0.0644  0.2315  0.0974
 6478W        W22372   3.316   3.378  13.751 -0.1231  0.0278 -0.1203
 6479W        W22373   0.942  12.233  14.041  0.3318 -0.0739 -0.0583
 6480W        W22374  12.571  18.614  12.659 -0.5852 -0.0568  0.0545
 6481W        W22375   0.421   9.874   2.935  0.3142  0.1250 -0.1136
 6482W        W22376  15.175   0.710  12.691 -0.3330 -0.1367  0.1114
 6483W        W22377   0.770   9.419   3.958  0.0273 -0.0512 -0.1082
 6484W        W22378   6.060  15.311   3.162 -0.1907 -0.1046  0.3131
 6485W        W22379   2.953  13.834   1.077 -0.0372 -0.0383 -0.0806
 6486W        W22380   9.855  17.139   5.009  0.1689  0.3248  0.2475
 6487W        W22381   1.076  13.669   3.845  0.0511 -0.2697 -0.1395
 6488W        W22382  15.103  18.408   3.740 -0.0652 -0.1782  0.2847
 6489W        W22383   5.359   5.325  12.356  0.0790  0.2355 -0.1198
 6490W        W22384  10.088   8.612   0.561  0.1429  0.1551 -0.2471
 6491W        W22385  18.683  15.091   4.913  0.3197  0.0260 -0.1278
 6492W        W22386  11.479   1.215  14.298  0.1683 -0.0331  0.1591
 6493W        W22387  15.063  15.774   3.212  0.0481  0.1713 -0.2162
 6494W        W22388   8.005   5.836  10.515  0.1301 -0.3003 -0.0957
 6495W        W22389  10.566  15.087  13.028  0.2715 -0.3422 -0.0928
 6496W        W22390   0.073  11.979   2.467  0.0447 -0.3552  0.0441
 6497W        W22391   2.260   6.957   2.969 -0.0264  0.2288  0.1682
 6498W        W22392   7.537   9.280  13.825  0.2482 -0.1275 -0.5177
 6499W        W22393  10.406   6.490  14.691 -0.2253 -0.2228 -0.2807
 6500W        W22394   5.394  13.454  10.853 -0.1529 -0.0916 -0.0545
 6501W        W22395   1.519   5.815   0.186 -0.0194 -0.1263  0.0651
 6502W        W22396   6.126   5.846  10.881 -0.0353 -0.0462 -0.0938
 6503W        W22397  13.374  16.200   3.484  0.3942  0.1623  0.0492
 6504W        W22398  11.676   9.692   0.770 -0.0907  0.1709 -0.1968
 6505W        W22399  14.838  15.903   0.730  0.0430  0.2652 -0.2360
 6506W        W22400   8.887   9.035   1.348  0.4404  0.1224  0.3554
 6507W        W22401   9.708   5.635   3.084  0.1633 -0.0026 -0.1172
 6508W        W22402  14.084   0.904   4.561 -0.1974  0.0879  0.1309
 6509W        W22403   1.701   8.965   3.816 -0.1977  0.2953  0.1479
 6510W        W22404  13.486  16.131  14.878  0.0093  0.3673 -0.0443
 6511W        W22405  16.874   0.600   4.499  0.0822  0.1210  0.2679
 6512W        W22406  10.597  11.817  15.041 -0.1614  0.2663  0.0905
 6513W        W22407   3.248  17.189   3.276 -0.0625  0.1361 -0.4175
 6514W        W22408   0.455   8.503   4.864 -0.0164 -0.4221  0.2401
 6515W        W22409  18.597  13.015   1.231 -0.0543  0.0822 -0.0672
 6516W        W22410   1.627   8.237   3.054 -0.0334 -0.0721  0.2190
 6517W        W22411  17.121  13.548  13.475  0.6678  0.1189  0.0727
 6518W        W22412  15.438   9.558  12.553  0.0394 -0.0821 -0.0249
 6519W        W22413   0.643  14.777  15.084  0.0614  0.1437 -0.2032
 6520W        W22414   3.331   7.113   3.023  0.3975  0.2828  0.2163
 6521W        W22415  10.255   5.142   1.286  0.1890  0.0123 -0.0749
 6522W        W22416   3.501  12.364   1.578 -0.1259  0.1624  0.0678
 6523W        W22417   5.138  11.141  12.526  0.5705  0.4403 -0.0217
 6524W        W22418  17.057   7.834  15.332  0.2541 -0.0741 -0.1828
 6525W        W22419   2.866   8.316  14.847  0.1619 -0.1493  0.1447
 6526W        W22420  17.966   5.606   0.087  0.2081 -0.3212 -0.0406
 6527W        W22421  12.728  11.513   5.931 -0.2725  0.1966  0.0122
 6528W        W22422  10.291   4.197   4.017 -0.0243 -0.0091 -0.2275
 6529W        W22423   8.578   3.949  14.385  0.0528 -0.5617 -0.3610
 6530W        W22424  14.672   9.899   2.222  0.0571 -0.0498 -0.2592
 6531W        W22425  18.459  16.278   1.525  0.0055  0.2391 -0.0754
 6532W        W22426   4.541  13.799   1.735  0.0273  0.0097 -0.1311
 6533W        W22427  18.495  12.391   2.655 -0.1141  0.2513  0.0891
 6534W        W22428  16.944   8.698   1.863 -0.0817  0.0303  0.4516
 6535W        W22429  12.236   6.092  12.745 -0.0017  0.0321  0.1331
 6536W        W22430  10.991   5.747  10.219  0.2886 -0.0036 -0.3017
 6537W        W22431  16.930  13.798   5.733 -0.0269 -0.0123  0.1976
 6538W        W22432   6.243   3.625   1.468 -0.0702  0.1956  0.0728
 6539W        W22433   6.319   9.122   0.393 -0.0611 -0.1630 -0.1025
 6540W        W22434  11.718  10.529   0.237  0.0089 -0.0044 -0.0793
 6541W        W22435  10.278   7.508   3.366 -0.0421  0.2065  0.0552
 6542W        W22436  13.218  12.265  14.402  0.1658 -0.0351  0.0561
 6543W        W22437   7.847   4.865  15.323  0.0045 -0.1330 -0.0264
 6544W        W22438  13.304   8.613   3.989 -0.2019  0.1194  0.0929
 6545W        W22439   4.566  12.349   2.253 -0.0757  0.4043 -0.0968
 6546W        W22440  12.786   8.221   3.122  0.0086  0.1095  0.3916
 6547W        W22441  11.325  10.059   3.947  0.2432 -0.0249 -0.0520
 6548W        W22442   0.982   6.097  14.758  0.1261  0.0996  0.2058
 6549W        W22443  11.279   8.455  14.519 -0.1968  0.1000  0.0279
 6550W        W22444  18.206   6.541   5.353  0.1683  0.1586 -0.1797
 6551W        W22445   1.809   4.403   0.447  0.0326  0.0319  0.3586
 6552W        W22446  16.436  14.556  12.781  0.1777  0.1670  0.1819
 6553W        W22447  12.474   0.183  11.169 -0.0258 -0.3382 -0.2553
 6554W        W22448   3.617   2.142   0.741  0.4201 -0.0425  0.4684
 6555W        W22449  13.217  13.705  12.271 -0.1344  0.0902 -0.2719
 6556W        W22450   8.972  11.198   4.167 -0.0291 -0.0043 -0.1611
 6557W        W22451   4.358   7.889  11.758 -0.0980 -0.2953 -0.0064
 6558W        W22452   0.010   5.488  13.028  0.2243 -0.2475  0.1088
 6559W        W22453   1.343  16.351  11.567 -0.2118 -0.0333  0.2139
 6560W        W22454  15.870  11.573   3.416 -0.0502  0.0094 -0.1124
 6561W        W22455   6.677  13.391  14.419  0.0696  0.1660  0.0069
 6562W        W22456  15.250  17.130   3.168  0.0111  0.0943  0.1227
 6563W        W22457   4.700  13.336   1.555 -0.0078  0.2376 -0.0472
 6564W        W22458  15.288  16.773   4.963 -0.2483  0.0661  0.1776
 6565W        W22459   6.555  12.443  14.955 -0.1709 -0.0245  0.0546
 6566W        W22460  12.503   4.150   0.015  0.0402 -0.0523  0.3859
 6567W        W22461   8.834   1.239   4.917  0.1439  0.0384  0.2542
 6568W        W22462  13.755   8.341   4.088 -0.1444  0.3342  0.2796
 6569W        W22463  11.613   6.691  15.561  0.1081 -0.0095  0.2862
 6570W        W22464  11.632  14.404  14.679 -0.0560 -0.0469 -0.1910
 6571W        W22465   0.627   9.439  12.648 -0.0261 -0.3467  0.2041
 6572W        W22466  10.372  12.099   0.669 -0.0484 -0.0375 -0.0123
 6573W        W22467   4.951   0.014  15.185 -0.2723  0.1003  0.0352
 6574W        W22468   6.054   7.153  11.521 -0.0938 -0.2995 -0.1279
 6575W        W22469  11.827   0.173   2.596  0.0354  0.1688  0.1648
 6576W        W22470   8.326   7.494  13.198  0.1467  0.1089  0.2649
 6577W        W22471  11.454   4.009  15.620 -0.0656  0.3891 -0.1563
 6578W        W22472   3.459   6.421   3.415 -0.3207 -0.2559 -0.1246
 6579W        W22473  17.424   5.415  12.470  0.2509 -0.0454  0.2228
 6580W        W22474   2.326   1.321   2.931 -0.1293  0.1871 -0.1730
 6581W        W22475   8.186  15.580   1.073  0.4902  0.0744  0.1390
 6582W        W22476  12.888   0.322   3.178  0.2927  0.1784  0.0642
 6583W        W22477   7.678   7.603  10.819 -0.0137 -0.0375 -0.0182
 6584W        W22478   9.380   8.718   1.579  0.2165  0.1450  0.2034
 6585W        W22479   9.886  14.302   4.117 -0.1491 -0.0296  0.0545
 6586W        W22480   8.266  10.168   0.665 -0.2448  0.0204 -0.2611
 6587W        W22481   7.812   5.467   2.819  0.1657  0.0458 -0.0620
 6588W        W22482   4.488  18.397   4.441  0.0525  0.2500 -0.1738
 6589W        W22483   2.965  12.236   1.442 -0.0831 -0.0992  0.1200
 6590W        W22484   9.287   4.364   1.924  0.0048 -0.2299  0.0306
 6591W        W22485   2.969   8.396  11.915  0.1036 -0.0016  0.0929
 6592W        W22486   6.648   4.313  15.115 -0.0482 -0.0798 -0.0638
 6593W        W22487   8.471   6.978  15.052 -0.0379  0.1419  0.1013
 6594W        W22488   0.515   5.129  11.040 -0.0923 -0.3170 -0.0135
 6595W        W22489  12.629   9.888  14.202  0.0046 -0.0806  0.0793
 6596W        W22490  10.210  10.436   3.250 -0.3194 -0.0147 -0.1930
 6597W        W22491  11.141   8.976   5.285 -0.0129 -0.0555  0.1524
 6598W        W22492  12.253  13.217  13.045 -0.0285 -0.1905 -0.2672
 6599W        W22493  13.925   6.564   2.301 -0.0456  0.0620  0.0779
 6600W        W22494   0.701   8.617  13.874 -0.2039  0.0229 -0.0220
 6601W        W22495   0.027   8.543   2.605  0.1494 -0.1224 -0.0857
 6602W        W22496  15.385   0.380  12.160 -0.0253  0.0206 -0.2127
 6603W        W22497   7.193  10.992   0.344 -0.1050 -0.1059  0.0747
 6604W        W22498  18.011  10.627   4.341  0.0371  0.0115  0.1783
 6605W        W22499  14.949  11.638  15.324 -0.2785  0.1336  0.3670
 6606W        W22500  15.126  17.918   2.341 -0.3510 -0.0295  0.3105
 6607W        W22501   3.277   7.658   0.950  0.1357  0.0910  0.1095
 6608W        W22502  15.259   2.229  14.540  0.0707  0.1031  0.0123
 6609W        W22503   4.170   5.619  13.008 -0.2933 -0.2430  0.2249
 6610W        W22504   4.634   3.562  15.141  0.0458 -0.1773 -0.0656
 6611W        W22505   2.482  13.976   0.382  0.1981 -0.1952  0.0810
 6612W        W22506  14.320   1.539   2.319  0.0903  0.1264 -0.0345
 6613W        W22507  11.972   5.371  11.648  0.4091 -0.1740  0.1124
 6614W        W22508   7.149   5.960  15.606  0.1837 -0.2655  0.0351
 6615W        W22509   2.819   9.844   4.386  0.2168  0.1492  0.0699
 6616W        W22510  18.038  17.658   2.514 -0.2432  0.3278 -0.1905
 6617W        W22511   8.309  16.144   0.370 -0.0039  0.0680 -0.2121
 6618W        W22512   3.703  11.080  13.437  0.1231  0.0438  0.1651
 6619W        W22513   2.087   9.367  13.802 -0.0015  0.2563  0.1062
 6620W        W22514  18.391   2.644  11.977 -0.0292 -0.0452 -0.2291
 6621W        W22515  16.648   6.557  15.513  0.2385 -0.0277 -0.2295
 6622W        W22516  11.959   5.883   3.145 -0.0812  0.1605  0.1322
 6623W        W22517   8.838  17.957   2.048 -0.1875  0.0335 -0.2216
 6624W        W22518   8.980   3.812  12.744  0.0642 -0.0446 -0.1062
 6625W        W22519   3.232   0.312   3.529  0.0718  0.0102  0.0346
 6626W        W22520  12.902   4.447  11.043 -0.0648 -0.1199 -0.0806
 6627W        W22521  12.584   0.350   4.100 -0.2841 -0.2922 -0.0203
 6628W        W22522  10.250   6.729  10.721  0.0890  0.1691  0.0526
 6629W        W22523  15.979   7.639  15.377 -0.0168 -0.0284  0.2750
 6630W        W22524   1.242  11.678  10.826 -0.1720 -0.0712  0.0136
 6631W        W22525   2.248  15.937   4.452  0.0888 -0.3482 -0.0323
 6632W        W22526   5.937   2.157   4.345 -0.2973 -0.2079 -0.0333
 6633W        W22527   0.544  16.862   1.950 -0.3246 -0.2330  0.0887
 6634W        W22528  17.843  14.022   2.453 -0.0793 -0.0349 -0.0155
 6635W        W22529   9.039  18.131   5.455 -0.2061  0.0138  0.1253
 6636W        W22530   3.807   0.342   1.014 -0.3764  0.0674 -0.0959
 6637W        W22531   9.867   6.091  12.352  0.2865 -0.1899 -0.0841
 6638W        W22532   7.280  17.831   1.753 -0.3425 -0.1230 -0.5054
 6639W        W22533  10.720   8.680   1.141 -0.2972  0.0323  0.0733
 6640W        W22534   1.457  16.176   3.202  0.1347 -0.2227 -0.4663
 6641W        W22535   7.355  15.866  14.321 -0.1191  0.0159  0.1444
 6642W        W22536   1.854  15.422  14.313  0.1166 -0.0158 -0.0325
 6643W        W22537   2.732   2.657  14.042  0.1397 -0.1810  0.1909
 6644W        W22538   1.752  17.821  12.620  0.0200  0.1843 -0.1860
 6645W        W22539  14.104  14.799  11.650  0.1618 -0.0780 -0.2585
 6646W        W22540   2.160   8.860   5.556 -0.4553  0.1240 -0.3701
 6647W        W22541   2.268  11.925  14.604  0.0509  0.0866  0.0112
 6648W        W22542   0.176  15.231  12.592  0.0712  0.0652 -0.1158
 6649W        W22543   8.762  12.431  11.136 -0.4953 -0.0347 -0.0195
 6650W        W22544  13.211   6.897   4.089 -0.1002 -0.1439 -0.1983
 6651W        W22545  10.574   5.807   4.800 -0.2542 -0.3082  0.1826
 6652W        W22546   5.384   9.762  10.902 -0.3451  0.3086  0.2071
 6653W        W22547  17.249   3.819   3.986  0.3728  0.0803 -0.2008
 6654W        W22548  12.667   2.214   0.746 -0.0080 -0.0789 -0.2577
 6655W        W22549  14.221  16.711  11.929 -0.1029 -0.1791 -0.1332
 6656W        W22550   7.291  10.670  13.930  0.2650  0.1651  0.1146
 6657W        W22551  15.989  11.848  11.226 -0.1267  0.2063 -0.2066
 6658W        W22552  16.656  18.652  13.470  0.0373 -0.0816  0.0340
 6659W        W22553   0.913  14.719  13.736  0.0762  0.1761 -0.0578
 6660W        W22554   6.825   8.803   4.963  0.2053 -0.1338 -0.0449
 6661W        W22555   6.029  11.668  14.986  0.0566 -0.1571  0.1721
 6662W        W22556  13.814  18.341  15.558  0.1980 -0.0433 -0.1783
 6663W        W22557   1.763   7.732   1.836 -0.2017 -0.0158  0.1730
 6664W        W22558   4.860  10.476  14.657 -0.0980  0.2912 -0.0863
 6665W        W22559  17.199   2.996  11.658  0.3458 -0.0541  0.0628
 6666W        W22560   5.756  15.225   2.277  0.1797 -0.2172  0.3489
 6667W        W22561   3.560   2.089   1.918 -0.2133  0.0782 -0.0445
 6668W        W22562  18.570  13.605   0.263 -0.0537 -0.3513 -0.1029
 6669W        W22563   5.372   1.643  11.349 -0.1143 -0.1348  0.1559
 6670W        W22564   2.108  12.282  12.226 -0.3486  0.2071  0.2321
 6671W        W22565   2.895   2.941   1.962  0.1944  0.0912 -0.2722
 6672W        W22566   3.174   1.356   0.635 -0.1661 -0.0422  0.1013
 6673W        W22567   3.498   5.816  14.115  0.0617  0.1945  0.3449
 6674W        W22568   1.785   9.047  12.114 -0.2057  0.2946  0.1611
 6675W        W22569   2.936   8.867   4.500 -0.2484 -0.0673 -0.0578
 6676W        W22570   9.850  12.299  14.674  0.2422  0.0274 -0.0723
 6677W        W22571   0.979   9.682  11.769 -0.1497 -0.0930  0.1632
 6678W        W22572   8.917   8.340   5.004  0.0266  0.3315  0.0533
 6679W        W22573  11.658   1.462   1.965 -0.0290  0.1975 -0.0406
 6680W        W22574  12.878   1.660   0.030  0.4266 -0.1788 -0.0781
 6681W        W22575   9.907   6.952   9.979  0.2867  0.0071 -0.2296
 6682W        W22576   3.950   6.349  11.082  0.1958 -0.1342  0.2690
 6683W        W22577   7.849   6.974   0.465  0.1335 -0.0342 -0.3229
 6684W        W22578  15.871   7.598  13.029 -0.0855 -0.0624  0.0895
 6685W        W22579  11.231  16.168   2.532 -0.0652  0.0442  0.3547
 6686W        W22580   9.534   2.153   4.293  0.2432  0.1921 -0.1681
 6687W        W22581  15.034  16.364  14.290  0.0568  0.2141  0.2148
 6688W        W22582  12.007  12.802  12.106  0.1518 -0.1042  0.2591
 6689W        W22583  10.396   5.656   1.094 -0.0220  0.2379 -0.3264
 6690W        W22584  13.623  13.207   0.846  0.2121 -0.0315  0.0802
 6691W        W22585  13.162   4.473  14.574  0.1537 -0.0404 -0.3747
 6692W        W22586   4.598  11.177   0.375  0.2059 -0.0838 -0.0799
 6693W        W22587   3.241   5.272  15.355 -0.0190 -0.1730 -0.1079
 6694W        W22588  13.189  11.232  12.593  0.0012  0.2182 -0.3009
 6695W        W22589  16.876  17.789  14.845 -0.0264  0.0193 -0.1020
 6696W        W22590   9.644   1.383   5.355  0.1431 -0.0476  0.0595
 6697W        W22591  11.162  10.659   2.187  0.0347  0.1676  0.0812
 6698W        W22592   1.664   8.318   2.531  0.0631  0.1132 -0.1667
 6699W        W22593  11.833   4.963   4.945 -0.0227  0.0436 -0.4211
 6700W        W22594  15.692  11.979   2.642 -0.3013  0.1045 -0.1793
 6701W        W22595  10.248   8.599  12.535 -0.0881 -0.3280  0.0555
 6702W        W22596   4.366  17.569   1.793  0.0953  0.1593  0.1754
 6703W        W22597  18.395   3.908  14.181 -0.0511  0.2419  0.0331
 6704W        W22598  13.690  15.456   5.208  0.0390  0.0311 -0.0109
 6705W        W22599  16.594  13.512   3.015  0.1444  0.2375 -0.1846
 6706W        W22600   8.119  13.373  10.974 -0.1731 -0.0758  0.2178
 6707W        W22601   1.081  18.585   3.785 -0.4677 -0.2691 -0.0263
 6708W        W22602   4.281  15.958  14.591  0.0777 -0.1735 -0.0025
 6709W        W22603   3.900  16.847  11.544  0.2913  0.2952 -0.2336
 6710W        W22604  18.165  12.256  11.547 -0.4069  0.0978  0.0489
 6711W        W22605  17.228   0.563  10.332  0.0478 -0.1066 -0.1415
 6712W        W22606   5.183   7.681   4.839 -0.0822 -0.2617 -0.2739
 6713W        W22607   1.784  15.120   1.060  0.0240  0.1336 -0.0312
 6714W        W22608  17.033  18.119   4.995 -0.4160 -0.0395  0.0534
 6715W        W22609   6.440   2.164   4.488  0.0256  0.0250  0.2202
 6716W        W22610   2.872  16.864   0.157 -0.0044  0.0284 -0.0237
 6717W        W22611  11.101   1.988  10.785  0.3149  0.0655  0.2324
 6718W        W22612   5.474  15.440  11.000 -0.2577 -0.1752  0.0396
 6719W        W22613  13.533   0.730  13.436  0.1454  0.1869  0.1962
 6720W        W22614   7.810   4.362  15.243 -0.0404 -0.4355  0.0410
 6721W        W22615   9.508   1.879   4.856  0.0855  0.0440 -0.0981
 6722W        W22616  16.248  18.016  12.476 -0.2100  0.0701  0.1768
 6723W        W22617   3.493   4.057   2.857  0.1632 -0.0547 -0.0065
 6724W        W22618   9.268  14.386  11.710  0.2843  0.1057 -0.4037
 6725W        W22619   1.738  13.278  12.508  0.0422  0.2981  0.0471
 6726W        W22620  12.317   7.092   0.088  0.2537  0.0887  0.0381
 6727W        W22621   6.301   2.523   0.745 -0.2340 -0.0931  0.2412
 6728W        W22622   4.068  17.429   1.212 -0.0635 -0.2300  0.1222
 6729W        W22623   6.056  13.272  13.912 -0.3046 -0.0552  0.0497
 6730W        W22624   6.763   1.174   4.105 -0.0076  0.0391  0.2518
 6731W        W22625  12.206  12.920  14.024 -0.1871  0.2193 -0.0821
 6732W        W22626   0.366  14.742   2.106  0.0683 -0.0111 -0.0694
 6733W        W22627  13.865  17.476  10.258 -0.2110 -0.0382 -0.2941
 6734W        W22628  18.376  17.436  11.510 -0.2641 -0.1208  0.0075
 6735W        W22629   4.598   6.291   4.472  0.1383  0.2278 -0.0832
 6736W        W22630  14.234   1.277   1.406 -0.0338 -0.1781  0.0369
 6737W        W22631   7.549  13.210   2.579 -0.0052  0.2503 -0.3323
 6738W        W22632  11.229  18.535   2.411  0.3108 -0.2334 -0.0779
 6739W        W22633  17.484   6.767   4.316 -0.3403 -0.0148 -0.0164
 6740W        W22634  11.386  13.281   2.751  0.0197  0.3708  0.0765
 6741W        W22635  17.920  10.413  14.756 -0.1393  0.2232  0.2002
 6742W        W22636   6.289   5.322   1.662 -0.0479 -0.1767 -0.1677
 6743W        W22637  15.210   7.124   2.815 -0.0736 -0.0364  0.1387
 6744W        W22638   1.027   6.037  11.032 -0.1881 -0.0075 -0.0366
 6745W        W22639  18.159  13.616   4.115  0.3249 -0.2253  0.1100
 6746W        W22640   4.014   5.966  10.678  0.1773 -0.1204  0.2355
 6747W        W22641   5.088  16.511   0.518  0.1620  0.0669  0.1014
 6748W        W22642   3.942   4.939   4.395 -0.0525 -0.2884  0.3765
 6749W        W22643   8.821   2.826   1.420  0.2851  0.0805 -0.0185
 6750W        W22644  15.065  10.693   0.760  0.2336  0.0618 -0.0594
 6751W        W22645  14.020   0.233  15.253  0.0033  0.2114 -0.0957
 6752W        W22646   9.818  16.037  11.886 -0.3783 -0.2346 -0.0662
 6753W        W22647  12.159  18.380   2.439 -0.3802  0.2517  0.1809
 6754W        W22648  15.880   4.563  15.421  0.0585 -0.0874  0.1123
 6755W        W22649  16.284   5.872   4.034  0.1009 -0.1816 -0.0445
 6756W        W22650   1.448  10.506  13.227  0.5383  0.0087  0.1115
 6757W        W22651   1.223   0.682   1.356 -0.1689 -0.1764  0.0179
 6758W        W22652   7.166  10.985  11.073 -0.1813 -0.2108  0.0977
 6759W        W22653   3.319  15.151   0.735 -0.2168  0.1173 -0.4605
 6760W        W22654  13.615   1.874  11.344  0.3134 -0.2239 -0.0621
 6761W        W22655   0.242  12.653   0.906  0.0581 -0.3401  0.0182
 6762W        W22656   3.442   1.100   3.697  0.1483 -0.1184  0.0111
 6763W        W22657  11.535   5.099  11.774 -0.1930  0.1728  0.0997
 6764W        W22658  17.929   7.101  13.268 -0.2324  0.2136  0.0079
 6765W        W22659   1.025  15.477  14.438 -0.0022 -0.2228  0.2460
 6766W        W22660   3.333   6.195   4.558 -0.0558  0.0034 -0.3056
 6767W        W22661   7.884  16.463   5.911  0.1669  0.1564 -0.2928
 6768W        W22662  16.230  14.400   5.987  0.0494  0.3036 -0.1824
 6769W        W22663  15.434   6.299  14.953  0.0563  0.0809 -0.1957
 6770W        W22664   0.118  17.594   3.997 -0.2116  0.0511  0.1896
 6771W        W22665   9.651  10.414   2.774  0.3155  0.3606  0.1877
 6772W        W22666   1.278   1.936   4.592 -0.1396  0.0663 -0.1055
 6773W        W22667   1.500   2.582   4.071 -0.0216  0.2907 -0.1162
 6774W        W22668  11.213   0.375   5.658  0.1881  0.0657 -0.2997
 6775W        W22669  13.084  12.167   1.046 -0.0835 -0.2642 -0.1130
 6776W        W22670   1.966   5.836   1.583  0.3374  0.0129  0.2792
 6777W        W22671  11.183  16.277   3.018 -0.0093  0.0086  0.0751
 6778W        W22672   0.481   0.514   4.746  0.0090  0.0352  0.1218
 6779W        W22673   5.680   6.549  15.540 -0.1845  0.1874 -0.0936
 6780W        W22674  17.306  12.413   3.372 -0.1576 -0.0652  0.3198
 6781W        W22675   8.221   5.423  14.063 -0.2131  0.0832  0.1452
 6782W        W22676   8.220   6.253   5.687 -0.0554  0.1903  0.1395
 6783W        W22677  10.784  14.594   2.252  0.0899  0.0921 -0.2472
 6784W        W22678   1.450  12.947   0.294  0.2394 -0.0197 -0.0036
 6785W        W22679  12.051  12.603  14.857  0.1920  0.0904  0.0462
 6786W        W22680   6.061   2.849  12.947  0.3336 -0.1747 -0.0003
 6787W        W22681  11.541  18.607   4.501  0.3895  0.0003  0.3598
 6788W        W22682   3.052   2.317  12.285  0.0877  0.3647 -0.0131
 6789W        W22683  16.850   8.403  13.465 -0.1890  0.5473 -0.1965
 6790W        W22684  15.343   4.963   2.995 -0.2365 -0.0851  0.0451
 6791W        W22685   7.713   1.970  13.145 -0.0489 -0.0433  0.2810
 6792W        W22686   0.914  12.878  12.613  0.2454 -0.0318 -0.0106
 6793W        W22687   1.762  10.373  14.946  0.0025 -0.2981  0.2365
 6794W        W22688  11.047  13.499  13.608 -0.1833  0.2948  0.0709
 6795W        W22689   0.694   1.705  12.099  0.0933 -0.0994 -0.2235
 6796W        W22690   7.690   5.849   9.793  0.3054 -0.1953  0.1186
 6797W        W22691  10.934  10.424  12.958 -0.0184  0.0636  0.2245
 6798W        W22692   1.297   7.853   3.140 -0.2031 -0.2789 -0.1679
 6799W        W22693   8.181   3.480   1.263  0.0158  0.0864  0.3488
 6800W        W22694   6.976  16.332  15.106  0.0515  0.0937  0.2042
 6801W        W22695   8.348   3.813   1.607  0.2740 -0.0103  0.0559
 6802W        W22696   5.700   3.958  12.655 -0.0205  0.0846  0.3015
 6803W        W22697   5.298  11.885  15.248 -0.1284  0.0893  0.3443
 6804W        W22698  15.889   3.582   4.359 -0.2273  0.1192 -0.2263
 6805W        W22699   0.456   9.518   3.334  0.1042  0.2302 -0.4778
 6806W        W22700  16.987  11.611   0.633  0.1775  0.1305  0.0969
 6807W        W22701   2.628  13.983  14.717  0.0135  0.1511  0.0239
 6808W        W22702   2.625   6.374   1.000 -0.3446 -0.3442 -0.2203
 6809W        W22703   8.345  16.167   3.290 -0.2097 -0.1692 -0.1835
 6810W        W22704   4.855  11.486   3.418  0.1886  0.0582  0.1431
 6811W        W22705   8.857  18.367   2.924 -0.5254  0.2279 -0.0240
 6812W        W22706   7.068  18.498  13.002  0.0587  0.0386 -0.0135
 6813W        W22707   8.138  13.727   0.813 -0.2878  0.0577  0.0396
 6814W        W22708  13.739   3.409  14.679 -0.2831  0.1069  0.0740
 6815W        W22709   8.214   0.330   2.098 -0.0035  0.1091  0.0954
 6816W        W22710   8.126   6.684  12.948  0.0186  0.0624 -0.2232
 6817W        W22711  17.939   2.586   1.675 -0.0200  0.1793  0.4688
 6818W        W22712   4.047   7.125   4.105  0.1614 -0.1644 -0.4352
 6819W        W22713   3.373   2.167   1.198 -0.0863  0.1404 -0.1642
 6820W        W22714  13.622   3.142   6.004  0.3060 -0.0664 -0.0198
 6821W        W22715   8.759  17.923   3.582 -0.1260 -0.2429  0.1436
 6822W        W22716  17.274   3.398   3.762  0.1430  0.2886 -0.1249
 6823W        W22717   5.949   5.875  12.916 -0.1286  0.0673  0.1342
 6824W        W22718  10.091   8.287   3.998  0.3624  0.0460 -0.3273
 6825W        W22719   4.603   9.297  14.102  0.1052 -0.0661  0.2135
 6826W        W22720   8.576   3.105  15.389 -0.0027 -0.1321  0.1674
 6827W        W22721   6.009   8.631   0.606 -0.0378 -0.1037 -0.0692
 6828W        W22722  10.593   5.087  10.834  0.0604 -0.3786 -0.2879
 6829W        W22723   2.852   0.050   3.320  0.0727 -0.2169  0.3819
 6830W        W22724  14.912  17.292   4.693  0.3815  0.0897  0.1025
 6831W        W22725   2.484  13.230   0.098 -0.1143 -0.1167 -0.1111
 6832W        W22726   1.890  18.077   1.023 -0.0376 -0.1717  0.1530
 6833W        W22727   4.445  12.447  15.050  0.3003  0.1478  0.0834
 6834W        W22728  13.744   9.392  12.286 -0.0782 -0.0968 -0.1654
 6835W        W22729   6.703  18.493   4.079  0.1148  0.2000  0.1413
 6836W        W22730  12.659  12.374   2.288  0.0360  0.0263 -0.2537
 6837W        W22731   7.591  10.310   4.194 -0.1148  0.0548 -0.0930
 6838W        W22732  18.511   9.925  12.509 -0.2626  0.2436  0.1048
 6839W        W22733  15.853   1.793  13.267  0.0555 -0.0194 -0.0072
 6840W        W22734  14.970  14.982   2.067 -0.0109 -0.0880 -0.0841
 6841W        W22735   8.459  12.241  12.084  0.3002 -0.0864  0.1058
 6842W        W22736   0.512  17.237  15.180 -0.1208 -0.1029  0.1524
 6843W        W22737   8.360   4.678  14.623  0.0295 -0.1683  0.1015
 6844W        W22738   5.074   1.312  11.291 -0.0753 -0.0340  0.1755
 6845W        W22739  12.574   9.190  11.656  0.3257 -0.1019  0.0053
 6846W        W22740   8.576   9.208   5.207 -0.0507 -0.4241 -0.0115
 6847W        W22741   7.052   5.380  13.228 -0.1624 -0.1736  0.1472
 6848W        W22742   8.105  14.411  14.992 -0.0840 -0.1980  0.0781
 6849W        W22743  14.862   8.326   5.448  0.3086 -0.3507 -0.2730
 6850W        W22744   2.770  17.153   0.987 -0.0116 -0.1745 -0.1187
 6851W        W22745   1.644   5.012  15.516 -0.0969 -0.3430  0.2193
 6852W        W22746   8.793   6.732   5.843 -0.2649 -0.4739 -0.1625
 6853W        W22747  12.425   9.153   3.786 -0.0791  0.0087 -0.2874
 6854W        W22748   2.660   1.675  13.020 -0.0389 -0.6920 -0.0013
 6855W        W22749   0.685   1.104  10.694 -0.3172 -0.2391  0.0678
 6856W        W22750  18.012   9.246  12.498  0.2029 -0.2762 -0.0909
 6857W        W22751  15.515  11.664   3.052  0.1384  0.0768  0.3230
 6858W        W22752   7.827  10.540  15.556  0.0797  0.2453  0.1551
 6859W        W22753   8.281  10.012   6.075  0.1538 -0.0280  0.1616
 6860W        W22754  11.537   7.643   4.721  0.0265 -0.0012  0.1633
 6861W        W22755   6.071  17.131   5.175  0.0388 -0.1933 -0.1259
 6862W        W22756   2.742  12.385   2.151  0.0973  0.1556  0.0700
 6863W        W22757   8.860  15.988   4.941  0.1443 -0.0950  0.0729
 6864W        W22758   8.243   2.239   1.026  0.0648 -0.0454  0.0808
 6865W        W22759  16.201  16.455   3.875  0.0376 -0.0461  0.2433
 6866W        W22760  14.526  13.301   2.034  0.0860  0.1383  0.0174
 6867W        W22761   0.507  10.743  14.958  0.3349  0.2935  0.0463
 6868W        W22762   3.436  16.020   0.937  0.1179  0.0313  0.4542
 6869W        W22763  13.424  13.953   1.521 -0.1690 -0.0217 -0.2166
 6870W        W22764   5.832  18.639   0.298  0.0145  0.0563 -0.2790
 6871W        W22765  15.990   1.210   0.131 -0.0069  0.3555  0.0042
 6872W        W22766   1.447  17.561  13.161 -0.0062  0.1951 -0.0425
 6873W        W22767   7.145  12.120   4.308 -0.2660 -0.0343 -0.2645
 6874W        W22768  13.671   8.963   5.546  0.1283  0.1411  0.2123
 6875W        W22769   2.479   5.460  10.640  0.3725 -0.0786 -0.1050
 6876W        W22770   8.608  15.764   1.495 -0.2267  0.1487  0.1551
 6877W        W22771  10.497  17.668   5.801 -0.5534  0.1572  0.0942
 6878W        W22772  18.118  15.371  12.604 -0.1280 -0.1892  0.4904
 6879W        W22773  16.075  14.190  12.477  0.2584 -0.0830  0.0603
 6880W        W22774  10.176   8.631   5.298  0.1122 -0.1331  0.0949
 6881W        W22775  17.755  18.364   3.618  0.0163  0.1123 -0.2250
 6882W        W22776  13.266   8.808   0.868 -0.0793  0.2764  0.0372
 6883W        W22777  17.009  15.739  13.736 -0.1087 -0.0166 -0.0100
 6884W        W22778   1.421  15.199  14.396 -0.0835  0.0538  0.1634
 6885W        W22779   9.890   9.455  11.400 -0.1320 -0.1446  0.0118
 6886W        W22780   9.614   0.456   5.071  0.3102 -0.2146 -0.2482
 6887W        W22781  14.678   3.229  12.207  0.1851 -0.1405  0.0196
 6888W        W22782   0.042  18.535   3.731  0.0338  0.0009 -0.0922
 6889W        W22783   1.570   5.266   0.382  0.3555  0.0747  0.0053
 6890W        W22784   5.274  11.726  12.760 -0.0981  0.0372  0.1383
 6891W        W22785  11.014   1.054  11.700  0.3396 -0.1201  0.2504
 6892W        W22786   5.903  17.227   4.385 -0.1117  0.0492 -0.2684
 6893W        W22787   0.694   3.756  11.029 -0.0199 -0.3417  0.3300
 6894W        W22788   2.184  11.951   1.589  0.0733  0.1315  0.0982
 6895W        W22789   7.751   2.821  13.722 -0.2271  0.1233  0.2608
 6896W        W22790  11.587   0.245   5.366 -0.0603 -0.2451  0.0176
 6897W        W22791   7.533   5.850   2.759  0.1135 -0.2039 -0.0196
 6898W        W22792  18.380   5.865   1.997 -0.1619  0.1310  0.3858
 6899W        W22793  10.512   2.877   1.994  0.3381  0.0303 -0.0741
 6900W        W22794  16.144  17.560  15.255 -0.0998  0.3202 -0.5370
 6901W        W22795  14.433   6.743   2.960 -0.1047  0.0513 -0.0569
 6902W        W22796   3.335  17.351   0.827 -0.0307  0.1061 -0.3117
 6903W        W22797  16.049   7.025   3.648 -0.0665 -0.1781 -0.3285
 6904W        W22798   7.560   6.540   5.099  0.0862 -0.1165 -0.2380
 6905W        W22799  18.630   1.708  11.644  0.0487 -0.0459  0.2942
 6906W        W22800  16.346  13.334   2.316  0.2917  0.4120  0.2642
 6907W        W22801   4.901   8.022  15.475  0.1864 -0.2114  0.3365
 6908W        W22802   8.054   1.984  14.398  0.0301 -0.0475 -0.0983
 6909W        W22803  11.531  12.492   1.314  0.0089  0.0367  0.0550
 6910W        W22804   4.230  11.965  14.938 -0.3305 -0.0918  0.0334
 6911W        W22805  15.095   3.096   5.173  0.0094  0.0108  0.3424
 6912W        W22806   7.587  15.133   3.997  0.1656  0.1629  0.0320
 6913W        W22807   9.195  12.798  12.092 -0.1766 -0.0462  0.0590
 6914W        W22808   2.977   2.273   5.212 -0.0625  0.0018  0.2513
 6915W        W22809   2.653  15.004   1.992  0.2229  0.2676 -0.3922
 6916W        W22810  18.541   6.064  14.529  0.2518  0.1693 -0.1173
 6917W        W22811   1.346   7.674   1.585  0.1868 -0.0490  0.0970
 6918W        W22812  14.831  15.537  11.620  0.0128  0.1212  0.1658
 6919W        W22813   0.116  10.262  13.785  0.0858  0.1975  0.1214
 6920W        W22814  12.827   4.025   1.909 -0.3024  0.0332 -0.2991
 6921W        W22815   4.048   6.480   1.008 -0.1762 -0.1071  0.3724
 6922W        W22816   2.934  14.254   4.771  0.0354  0.1600  0.1242
 6923W        W22817   5.494   9.515  12.279 -0.1107 -0.1794  0.0256
 6924W        W22818  10.422   3.833   2.105  0.1815 -0.3411  0.2942
 6925W        W22819  13.386   1.888  15.321  0.0522 -0.0678 -0.0440
 6926W        W22820  14.792  13.392   1.090  0.0217 -0.0243  0.4695
 6927W        W22821   0.561  17.004  11.558  0.1969 -0.0876 -0.3151
 6928W        W22822   6.097  13.199   0.062  0.3806 -0.0055  0.0841
 6929W        W22823  13.773   7.705  12.962 -0.1483 -0.1139  0.0194
 6930W        W22824  15.665   9.168  11.619  0.0601 -0.1382  0.0140
 6931W        W22825  12.028   0.579  14.589  0.0269  0.4630 -0.0916
 6932W        W22826  14.575  15.748  13.644 -0.1261 -0.1434  0.2302
 6933W        W22827  10.038   2.621   0.691  0.0604 -0.0252 -0.0768
 6934W        W22828   5.603  16.144   1.815 -0.0460  0.0547  0.0169
 6935W        W22829   8.819   4.961  11.289  0.2338 -0.1990  0.1014
 6936W        W22830  17.147   9.988  15.211  0.1665 -0.0133 -0.2443
 6937W        W22831  10.370   6.147  13.144  0.0962  0.0794  0.3893
 6938W        W22832   5.101   6.657  10.152 -0.0168 -0.1259  0.1906
 6939W        W22833  16.278   9.838  13.597  0.1681  0.1084  0.1764
 6940W        W22834   9.990   2.102  14.421 -0.0850 -0.1517  0.2716
 6941W        W22835  13.549  10.141   0.287 -0.1797 -0.0914 -0.0948
 6942W        W22836  16.648   4.120   4.614  0.3063  0.0319  0.0709
 6943W        W22837  14.183   6.626   1.020  0.3045  0.2170  0.2747
 6944W        W22838  10.268   9.960   1.271  0.0203 -0.0602  0.1571
 6945W        W22839   0.206  16.457  14.842 -0.0670 -0.2883  0.0624
 6946W        W22840  12.564   4.379   3.276  0.2849  0.1027  0.0049
 6947W        W22841   0.221   6.597  14.050 -0.1710  0.2652  0.0314
 6948W        W22842   8.746  16.487   4.612 -0.3987 -0.1406  0.1520
 6949W        W22843   2.398   5.393  11.181  0.3638 -0.3531 -0.0463
 6950W        W22844  14.089   5.727   4.724  0.0424  0.1812  0.1268
 6951W        W22845   4.914   6.556   4.822 -0.3391  0.0588  0.1832
 6952W        W22846  14.442  13.603   5.494 -0.4430 -0.2942  0.1217
 6953W        W22847   4.377  13.584   1.217 -0.1798  0.1351 -0.3274
 6954W        W22848   7.479   8.236   0.594  0.1210  0.2197  0.2619
 6955W        W22849   6.324   7.248   2.264  0.1041 -0.1984 -0.0231
 6956W        W22850  13.718  13.019   5.040 -0.1278  0.2235  0.0287
 6957W        W22851   4.254   8.235   1.932  0.2606 -0.1544  0.2357
 6958W        W22852  14.112  11.451   3.633 -0.1365  0.0154  0.1154
 6959W        W22853   2.497   9.299   4.027  0.2340  0.2396  0.2568
 6960W        W22854  13.719   6.153   2.896  0.1399  0.5893 -0.3844
 6961W        W22855  10.251   2.231   9.723  0.1526  0.2096  0.2068
 6962W        W22856   8.447   0.625   0.062 -0.0798  0.0972 -0.2786
 6963W        W22857   2.059   0.337   2.423 -0.3839 -0.1506 -0.0792
 6964W        W22858  16.000   0.168   1.594 -0.3796  0.0057 -0.0853
 6965W        W22859   2.611   6.871   0.868  0.1093  0.1153 -0.0702
 6966W        W22860   0.286  11.354  13.139 -0.3537  0.0201  0.0089
 6967W        W22861   3.415   5.022   3.756 -0.1147  0.1045  0.1219
 6968W        W22862  17.720  18.135  12.071 -0.1280 -0.1109 -0.0992
 6969W        W22863  14.864   5.724   1.323  0.1967 -0.1461  0.1030
 6970W        W22864  14.715  15.848   4.573  0.2068  0.0920  0.0777
 6971W        W22865   1.982   1.227   1.367  0.2146 -0.2755 -0.2041
 6972W        W22866  14.511  16.918  13.138 -0.0108 -0.0166 -0.0578
 6973W        W22867   9.834   9.802  15.080  0.1798  0.0542  0.0364
 6974W        W22868   7.756  16.062   3.236 -0.2527  0.0417 -0.1019
 6975W        W22869   4.105   3.300  13.254  0.0657 -0.0960  0.2676
 6976W        W22870   5.344   3.917  14.689  0.0736 -0.0325 -0.0035
 6977W        W22871  13.300  10.897  14.980 -0.0793 -0.1512 -0.1557
 6978W        W22872   2.937  12.237  12.082  0.2985  0.1362 -0.0676
 6979W        W22873  13.498   8.790  13.143  0.2437  0.1633  0.0127
 6980W        W22874   6.711   2.766  11.402  0.0952  0.0614 -0.3565
 6981W        W22875  11.141  17.297  10.890  0.2771 -0.2242  0.1943
 6982W        W22876   6.773   6.902  13.276  0.2253 -0.2090 -0.3189
 6983W        W22877   1.382   5.830   4.038 -0.0107 -0.1481 -0.2788
 6984W        W22878   7.334  10.945   0.933 -0.0926 -0.1896 -0.3141
 6985W        W22879  17.402   5.953  12.209  0.1145  0.1249  0.1195
 6986W        W22880  15.293   0.497   3.370  0.0039 -0.1906 -0.0455
 6987W        W22881   0.739   6.857   0.852  0.1639  0.2172 -0.0435
 6988W        W22882  17.120  16.560  13.787  0.0302 -0.0779  0.3054
 6989W        W22883  17.731  14.378  13.439  0.0748 -0.0895 -0.2553
 6990W        W22884   6.954  15.299  13.585  0.2350  0.3761  0.1296
 6991W        W22885  16.819  13.304   5.601  0.1144  0.0045 -0.2095
 6992W        W22886   0.338   7.624   2.521  0.0792  0.0213 -0.1074
 6993W        W22887  10.016   9.700   2.533  0.0529  0.2855 -0.1116
 6994W        W22888   5.823   2.681   1.016 -0.0329  0.0873 -0.1389
 6995W        W22889  16.500  15.103  14.881  0.1681  0.1346 -0.3161
 6996W        W22890  11.074   4.414  15.511 -0.0252 -0.2482  0.1476
 6997W        W22891  10.816  13.768   3.725 -0.2538 -0.1258  0.0564
 6998W        W22892   8.025   3.417   3.988  0.2899 -0.2042 -0.0440
 6999W        W22893   3.956   7.613  13.904 -0.1172  0.1661 -0.1218
 7000W        W22894   2.218  10.565  12.370 -0.1349  0.3569 -0.0251
 7001W        W22895  18.572  16.422  14.286  0.1206  0.0584  0.1185
 7002W        W22896   2.854  11.082   1.830 -0.0057 -0.0146 -0.5158
 7003W        W22897  14.332  13.591  15.344  0.2347 -0.2570  0.3648
 7004W        W22898  15.469  13.841  11.789 -0.1686  0.2823 -0.1376
 7005W        W22899   2.006  12.041  13.314 -0.1804 -0.2755 -0.0957
 7006W        W22900  14.954  12.920  12.713 -0.3230 -0.1871 -0.0684
 7007W        W22901   5.209   3.364   3.766  0.1430  0.2275  0.0539
 7008W        W22902  11.750  16.535  10.999 -0.3065 -0.1887  0.1063
 7009W        W22903   3.656   4.841  13.867  0.1955  0.1236  0.2154
 7010W        W22904  13.735   4.779   3.185 -0.0895  0.1252  0.1584
 7011W        W22905   5.467   6.675  14.027 -0.1104  0.0092  0.1555
 7012W        W22906   9.544   5.587   2.567  0.0064  0.0244 -0.5084
 7013W        W22907   5.679  10.956   3.727 -0.2107  0.0197  0.0513
 7014W        W22908   1.646   4.072   1.592 -0.1090  0.1463 -0.0856
 7015W        W22909  10.586   0.643  13.431  0.1441 -0.2516 -0.0094
 7016W        W22910  16.528   9.587   4.074  0.0279  0.0678 -0.1539
 7017W        W22911  13.416   3.445  11.054  0.0522  0.2726  0.0579
 7018W        W22912   2.275   9.844   0.031  0.1080 -0.1664 -0.0654
 7019W        W22913  13.729  18.676  10.992  0.3089  0.2868  0.1036
 7020W        W22914   6.929   3.848   3.317 -0.3358 -0.0476  0.2269
 7021W        W22915  13.860   6.005   1.699 -0.0454  0.1168 -0.1546
 7022W        W22916  16.554  15.765   1.401 -0.0219  0.1755  0.3295
 7023W        W22917   8.822  16.285   3.085  0.0118  0.6239  0.2468
 7024W        W22918  18.150   3.297  12.310  0.5510 -0.0693  0.3566
 7025W        W22919   4.899  14.388  12.388  0.1292 -0.1820 -0.0110
 7026W        W22920  18.507  17.968  10.715  0.1037  0.0522  0.3459
 7027W        W22921   3.516   1.208  10.651  0.1373  0.1755 -0.3413
 7028W        W22922   7.304   4.186  10.603  0.0439 -0.4013 -0.1575
 7029W        W22923   9.804   1.572  12.307 -0.0029 -0.1446 -0.2125
 7030W        W22924  17.717   3.533   3.530 -0.2707  0.1047 -0.3910
 7031W        W22925   6.496   1.691   1.708  0.1311 -0.0372  0.1035
 7032W        W22926   9.638   0.234   4.629 -0.2033  0.2507 -0.0700
 7033W        W22927  17.109  17.649   0.960 -0.2775 -0.3294  0.0530
 7034W        W22928   4.001  17.187   0.705 -0.2629  0.2169 -0.0630
 7035W        W22929  17.163   2.562   2.774 -0.1772 -0.1726 -0.2258
 7036W        W22930  16.479   5.735  14.286 -0.1299 -0.0640  0.0733
 7037W        W22931   1.287  14.963   1.370 -0.1484 -0.1406  0.1529
 7038W        W22932   4.126  18.276   4.104  0.1061  0.0722  0.1615
 7039W        W22933  17.292  16.628   0.856 -0.0959 -0.3847 -0.1044
 7040W        W22934  18.741  15.811  10.315 -0.1647 -0.0588 -0.0840
 7041W        W22935   8.934   9.160   2.521 -0.0892  0.2164 -0.2955
 7042W        W22936   3.583   8.874   2.479 -0.0748  0.0065  0.2355
 7043W        W22937   7.391  16.554  14.034 -0.0926 -0.1619  0.2271
 7044W        W22938  13.166   1.209   5.581 -0.0063  0.0194  0.1721
 7045W        W22939   6.321   7.566   0.196 -0.3358  0.0709  0.3349
 7046W        W22940   4.845   7.020  11.004  0.0461  0.3153 -0.3193
 7047W        W22941  14.132   3.691  12.814 -0.4897  0.2754  0.1929
 7048W        W22942   2.494   4.935  15.610 -0.1172 -0.0816  0.0789
 7049W        W22943   7.508   0.974   1.998  0.0924 -0.3498 -0.0698
 7050W        W22944   9.933  16.834  15.031 -0.3622 -0.3965  0.3119
 7051W        W22945   6.361   0.757  10.834 -0.1492 -0.0000  0.1078
 7052W        W22946  17.510  17.972   0.771 -0.0365 -0.0578 -0.0276
 7053W        W22947  18.194  18.632  12.672  0.0757  0.2716 -0.3934
 7054W        W22948  11.960   6.469   4.650 -0.0164  0.0580  0.2446
 7055W        W22949   9.372  13.978  12.721 -0.3296 -0.0093  0.1223
 7056W        W22950   4.824  12.381   3.779 -0.0379  0.0022  0.1788
 7057W        W22951   6.215  18.453  15.418 -0.0583 -0.3387  0.3037
 7058W        W22952   5.082  17.027   4.916  0.0401 -0.3618  0.0112
 7059W        W22953  14.761   5.124  13.596 -0.0607  0.1063 -0.0656
 7060W        W22954   0.784   1.616   3.808  0.3760 -0.4722 -0.2378
 7061W        W22955  15.352  18.747  10.936  0.3775  0.0347  0.2012
 7062W        W22956   5.564   7.526  10.637  0.0869  0.2326  0.1293
 7063W        W22957  12.067   2.073  13.351 -0.1169 -0.2510 -0.1387
 7064W        W22958  16.008  16.381   1.409 -0.0215  0.0490 -0.4513
 7065W        W22959  15.042  14.164   2.332 -0.0532  0.0507  0.1100
 7066W        W22960  15.731   3.859  15.172  0.0157  0.0075 -0.0937
 7067W        W22961   9.093   5.909  14.471  0.0053  0.0114 -0.1704
 7068W        W22962  15.760   6.561   0.084  0.1234  0.1805 -0.2655
 7069W        W22963  17.837   3.791  13.296 -0.1337 -0.0818  0.2853
 7070W        W22964   6.677  12.876  12.197  0.3742  0.2554 -0.0799
 7071W        W22965   7.258  13.020   3.856  0.0163  0.2548  0.1633
 7072W        W22966   6.231   7.499  11.880 -0.0507  0.2882  0.2072
 7073W        W22967  15.890  11.252   3.054  0.1659 -0.0981 -0.1189
 7074W        W22968  12.784   6.944   3.312  0.1898  0.0692 -0.6526
 7075W        W22969  14.466   9.513  12.780 -0.0628 -0.0440  0.1694
 7076W        W22970  11.878   8.594   3.500  0.4193 -0.0557 -0.1447
 7077W        W22971  16.915  16.247  12.837 -0.0798  0.3483  0.1394
 7078W        W22972  15.572  11.047   2.485  0.2539  0.4455 -0.1432
 7079W        W22973   7.228   4.205   2.087  0.0353  0.2663 -0.1470
 7080W        W22974   5.067  10.304  12.517  0.1257 -0.0676 -0.2692
 7081W        W22975  16.410  14.788  11.882 -0.3499 -0.0651 -0.1318
 7082W        W22976  15.624   2.816  15.240 -0.3458  0.2413 -0.3714
 7083W        W22977   9.305   5.658   0.304 -0.2393  0.0818 -0.0561
 7084W        W22978   5.263   1.657   4.742  0.2811  0.2681 -0.0373
 7085W        W22979   7.834  14.951  13.685  0.0225  0.1715  0.3505
 7086W        W22980   2.970  15.534  13.045  0.2043  0.4899 -0.0349
 7087W        W22981   5.892   6.417  10.870 -0.0315 -0.0212  0.2331
 7088W        W22982  16.256   0.741  11.894  0.0227 -0.3041  0.2024
 7089W        W22983   2.421  15.903  13.733 -0.2177 -0.1958 -0.0206
 7090W        W22984  16.239   4.409  13.941 -0.0553  0.1991  0.0885
 7091W        W22985  15.671   6.054   6.233  0.2437  0.2677  0.0484
 7092W        W22986  10.782   7.474   1.514 -0.0605 -0.2736 -0.1788
 7093W        W22987   7.406   4.920   4.968 -0.0995  0.0294  0.0425
 7094W        W22988   7.525  12.968   0.814  0.1174  0.0155 -0.2106
 7095W        W22989   8.512  14.095   3.338 -0.0732  0.1306 -0.5910
 7096W        W22990  14.325   8.396   1.097  0.1368  0.0265  0.1242
 7097W        W22991  11.911   1.745   4.855  0.1352  0.0704  0.0715
 7098W        W22992  10.972   8.352  12.991  0.2287  0.1136 -0.0950
 7099W        W22993   9.327  10.328   2.367 -0.2277  0.3047  0.0047
 7100W        W22994  13.328   6.270  14.452  0.0912  0.1282  0.0683
 7101W        W22995   9.187   9.940  11.025 -0.2639  0.0557 -0.3804
 7102W        W22996  15.627  12.108  14.007  0.2319 -0.1840 -0.1816
 7103W        W22997  10.175  11.866  12.139 -0.0576 -0.1426  0.2521
 7104W        W22998  15.852   1.252  13.232  0.1250  0.1119  0.1237
 7105W        W22999   8.004  16.897   5.201  0.0269 -0.0220  0.0440
 7106W        W23000  17.324  13.115  15.561 -0.0111 -0.1288  0.2110
 7107W        W23001   6.598  14.966  13.797 -0.0185 -0.5916  0.1224
 7108W        W23002   7.267   1.188  15.165  0.0746  0.2076 -0.1616
 7109W        W23003  12.224   9.848   5.487  0.1644  0.2478 -0.0118
 7110W        W23004  15.431  13.057  13.905 -0.2013 -0.2282  0.2169
 7111W        W23005  13.138  16.871   4.231 -0.1267 -0.1148 -0.3548
 7112W        W23006   9.230  13.562  11.712 -0.0717 -0.0094  0.0033
 7113W        W23007  12.839   5.452   4.859 -0.0969  0.0592  0.0398
 7114W        W23008   8.076  11.098  15.581  0.0835 -0.3899  0.0998
 7115W        W23009  17.681  15.711   0.893  0.0385  0.0543  0.1347
 7116W        W23010  11.864   4.324   2.962  0.0366  0.0903 -0.0087
 7117W        W23011   7.695   6.350  14.345  0.0061 -0.1128  0.1419
 7118W        W23012   6.954  12.696  15.052 -0.0513 -0.0453 -0.2398
 7119W        W23013  18.493   4.961   3.925 -0.2028  0.0505  0.1304
 7120W        W23014  16.987  18.530   1.485 -0.2053  0.0762  0.4208
 7121W        W23015   9.193  10.507  15.223  0.2600 -0.1653 -0.2861
 7122W        W23016   1.488  14.703   3.052  0.0019 -0.4123 -0.2370
 7123W        W23017   5.749  12.868   0.345 -0.1482 -0.4010  0.1253
 7124W        W23018  16.472  10.830   1.331  0.0055 -0.2008 -0.1773
 7125W        W23019   5.981   3.996   4.238 -0.2035 -0.0419 -0.1737
 7126W        W23020  13.001  17.384  15.255  0.1275 -0.1925  0.3117
 7127W        W23021   6.391   1.540  14.582 -0.1388  0.1195  0.1012
 7128W        W23022  17.944  15.317   0.143  0.2310 -0.0535 -0.1087
 7129W        W23023   1.147   6.186   1.980 -0.1405  0.1742  0.1780
 7130W        W23024  12.515   3.546   2.117 -0.1119  0.0016  0.0549
 7131W        W23025  14.604   7.777   0.788  0.2679  0.0933  0.2323
 7132W        W23026   4.146   6.977   4.662 -0.1272 -0.1151  0.0132
 7133W        W23027   7.625   8.037  13.142  0.0201  0.0095 -0.0964
 7134W        W23028   0.833   1.016  11.821  0.2060  0.0348  0.2427
 7135W        W23029  14.761  15.316   4.848 -0.0029 -0.2212  0.0924
 7136W        W23030   7.697   9.007   3.674  0.0683  0.1046 -0.1627
 7137W        W23031   6.998  15.774   0.681 -0.0788 -0.0716 -0.0175
 7138W        W23032   6.215   1.165  13.405  0.2347  0.0530 -0.2312
 7139W        W23033   8.904  17.882   2.604 -0.0479 -0.2370 -0.2771
 7140W        W23034   4.259   3.634  13.607 -0.0312  0.0511 -0.1174
 7141W        W23035  17.368  10.431  14.004 -0.2803 -0.0748 -0.1120
 7142W        W23036  13.447   4.337  13.213  0.1554 -0.2946 -0.0861
 7143W        W23037   0.060  17.731  13.101  0.0230  0.1736  0.0404
 7144W        W23038  14.166   1.525  14.715 -0.3071  0.3160 -0.2100
 7145W        W23039   4.216  14.032   2.973 -0.1484  0.0026 -0.1168
 7146W        W23040  15.643   4.524  13.043 -0.1081  0.0907  0.1203
 7147W        W23041   5.840   3.350  13.917 -0.1339 -0.0845  0.0145
 7148W        W23042  10.788   3.928  14.371 -0.0336 -0.0546  0.0949
 7149W        W23043   3.140  17.579   2.241  0.0811 -0.1145 -0.0819
 7150W        W23044   2.362   3.935  14.225  0.1488  0.0604  0.0690
 7151W        W23045  16.622  17.537   3.700 -0.1204  0.0716  0.2533
 7152W        W23046  10.152  11.986   3.812 -0.1571 -0.3656  0.2725
 7153W        W23047  13.967   6.484  11.370  0.4470 -0.0406  0.2802
 7154W        W23048   3.662  16.779   2.446 -0.0563  0.1577 -0.0268
 7155W        W23049  16.133  14.008   3.335 -0.0344  0.0424  0.0539
 7156W        W23050  15.484  15.468  13.347  0.2165 -0.1659  0.1210
 7157W        W23051   0.509   2.954  11.389  0.0544  0.0588 -0.3033
 7158W        W23052   6.126  16.587   1.656 -0.1935 -0.1390  0.1101
 7159W        W23053   7.829   2.039   3.700 -0.2753 -0.0349  0.2998
 7160W        W23054  13.393  17.013   0.361 -0.3220 -0.0431  0.2323
 7161W        W23055   8.530   4.778  12.628 -0.0668  0.0245 -0.2172
 7162W        W23056  17.709   7.266   2.373  0.1928  0.0849 -0.1102
 7163W        W23057  14.619  12.902   3.352  0.0356 -0.1978  0.0424
 7164W        W23058  15.307   6.807  15.357 -0.0950 -0.3463 -0.0681
 7165W        W23059  13.393   9.412   1.376  0.2404  0.2715 -0.0512
 7166W        W23060   4.355  12.354   0.749  0.1564 -0.0882 -0.0955
 7167W        W23061  15.863  12.559  12.245  0.1655 -0.1661  0.0017
 7168W        W23062   8.772   3.622   2.715  0.0420 -0.0273  0.0094
 7169W        W23063  12.845  14.067  13.778 -0.2150 -0.2790 -0.2792
 7170W        W23064   1.887  16.675  12.623 -0.6219  0.0568  0.0874
 7171W        W23065  18.316   2.761  14.396 -0.1640  0.2690 -0.1197
 7172W        W23066   5.264   2.830  13.923  0.1698  0.0232 -0.2584
 7173W        W23067   0.488   9.112   3.594 -0.1547 -0.1584  0.2083
 7174W        W23068   0.100  17.779   2.984  0.1100 -0.0376  0.0543
 7175W        W23069  17.554   1.691   4.828 -0.1673 -0.2096  0.1439
 7176W        W23070   8.154   5.539  13.142  0.2615 -0.3360 -0.0272
 7177W        W23071  13.417  15.006  14.055 -0.2160  0.1652 -0.3935
 7178W        W23072   0.788   2.671  11.754  0.1849 -0.0229 -0.2609
 7179W        W23073  12.810  15.128   3.541 -0.0134 -0.0406 -0.1233
 7180W        W23074   8.057   6.602   0.138 -0.2889  0.0465 -0.0448
 7181W        W23075   0.195  15.778  11.421  0.2464  0.2893 -0.4819
 7182W        W23076  10.146   0.087  13.183 -0.0635 -0.2003 -0.1478
 7183W        W23077   9.533   3.415  12.081 -0.1763  0.2053 -0.0669
 7184W        W23078   9.916  11.445   2.252  0.3018  0.1022  0.1204
 7185W        W23079  11.740  10.213  15.093  0.0582 -0.0085 -0.0519
 7186W        W23080   5.113   3.063   2.961  0.0502 -0.3973 -0.0242
 7187W        W23081  13.090  15.548   1.460 -0.0540 -0.2835 -0.0677
 7188W        W23082  14.413   8.499  15.610  0.0922  0.1541 -0.1099
 7189W        W23083  14.788  16.251  14.742 -0.3466  0.0589  0.0289
 7190W        W23084  13.924   2.258  11.410  0.1559 -0.0535 -0.1752
 7191W        W23085  13.378  15.275   3.376  0.0215 -0.0242 -0.0376
 7192W        W23086   1.422  18.731   0.654 -0.2523  0.3154  0.1639
 7193W        W23087  16.336   3.538   4.057 -0.1093  0.0294  0.0369
 7194W        W23088  12.296   7.651  13.303 -0.0067  0.1632 -0.1408
 7195W        W23089   9.700  10.693   1.599  0.0255  0.0107  0.4423
 7196W        W23090  17.526   0.982   1.129  0.0473  0.0099 -0.1056
 7197W        W23091  11.799  15.326   4.349 -0.1338 -0.0351  0.2455
 7198W        W23092  15.643   4.438   5.700 -0.1474  0.2089  0.0436
 7199W        W23093   2.533  13.500   3.979 -0.0537 -0.0292  0.1752
 7200W        W23094  13.978   9.881   0.094  0.3485  0.0939 -0.1878
 7201W        W23095  18.395   8.419  13.968 -0.1619  0.1329  0.2701
 7202W        W23096  10.112  15.954  15.386 -0.0702  0.3217 -0.1603
 7203W        W23097  10.169  14.096   3.226 -0.0579 -0.0485 -0.4494
 7204W        W23098  10.760   5.147   2.327  0.1650  0.0080 -0.0659
 7205W        W23099  13.469   0.379   0.940 -0.0474 -0.1680 -0.3170
 7206W        W23100  11.663   0.433  10.770 -0.0438 -0.4400  0.2625
 7207W        W23101  16.391  14.397   0.670 -0.2447  0.2031  0.0226
 7208W        W23102  17.622   5.392  10.638 -0.4157  0.0868 -0.2803
 7209W        W23103  17.354  11.299  15.485 -0.0276  0.1376  0.0768
 7210W        W23104   4.052  15.271   0.234 -0.1023 -0.0034  0.1135
 7211W        W23105   9.642   6.871  11.905 -0.2981 -0.1022 -0.1696
 7212W        W23106  11.596   2.679  14.608 -0.5852 -0.2786  0.0911
 7213W        W23107  14.748   6.327   1.899 -0.2411  0.1689 -0.1423
 7214W        W23108   8.860   2.355  14.415 -0.0689 -0.0832 -0.3655
 7215W        W23109   5.327   3.708  15.263  0.0498  0.2011  0.0363
 7216W        W23110   9.696   3.625   1.682  0.1158 -0.0749 -0.0087
 7217W        W23111   2.832   7.454   4.238 -0.0126  0.2327 -0.3749
 7218W        W23112   2.680   2.748  15.390  0.0192  0.1329  0.0647
 7219W        W23113  18.218  14.217   3.325 -0.1030 -0.0103  0.0687
 7220W        W23114  15.462  16.317   4.853 -0.3537 -0.0224 -0.0847
 7221W        W23115  11.311   4.324  11.924 -0.2035 -0.1496  0.0243
 7222W        W23116   1.466   4.929  14.547  0.0278  0.0695  0.1376
 7223W        W23117   1.075   6.707   2.162  0.0203 -0.2293  0.0850
 7224W        W23118   9.156  17.212   0.177  0.0220  0.0766 -0.1697
 7225W        W23119   6.048  13.087  11.344  0.2702 -0.0948 -0.1677
 7226W        W23120  17.050  17.592  10.982  0.1275 -0.2090  0.1317
 7227W        W23121  13.332   5.535   4.941 -0.3153  0.0912 -0.4478
 7228W        W23122  16.507  11.414   0.556 -0.0870  0.0264  0.0897
 7229W        W23123   3.101   8.892   1.696 -0.1228  0.2526  0.3732
 7230W        W23124  17.720  15.995  14.159  0.2223  0.1764 -0.1327
 7231W        W23125   5.788   7.071   1.618 -0.2531 -0.3535 -0.0204
 7232W        W23126  16.918   5.952  13.019 -0.2866  0.3018 -0.1246
 7233W        W23127   6.040   3.749  12.167 -0.1569  0.2229  0.0474
 7234W        W23128  14.781   3.696   2.080  0.0415 -0.2250  0.1466
 7235W        W23129  10.800   8.338   1.695 -0.4250  0.1706 -0.0367
 7236W        W23130  17.606   2.732   2.069 -0.0020  0.1157  0.2518
 7237W        W23131   4.954  16.362   2.594 -0.1490 -0.2848 -0.3363
 7238W        W23132   4.489   8.278   1.525 -0.0331  0.3125  0.2320
 7239W        W23133   9.510   6.888  11.130  0.0406 -0.0123  0.3877
 7240W        W23134  14.257   6.527  10.688 -0.0446 -0.2180  0.3225
 7241W        W23135   1.717  11.777  14.663 -0.2161 -0.0482 -0.1912
 7242W        W23136  18.592   1.807  13.563 -0.0014 -0.4405  0.2018
 7243W        W23137   2.396   1.281  10.942 -0.0708  0.0048  0.1484
 7244W        W23138   6.509   8.509   0.625 -0.1294  0.3212 -0.2275
 7245W        W23139  17.210  16.146  10.228  0.1119 -0.2301  0.2618
 7246W        W23140   0.910   5.868  13.720 -0.1757 -0.1014  0.1440
 7247W        W23141   7.793  15.637   3.977 -0.0676  0.0313  0.1429
 7248W        W23142  15.762  17.929   0.099 -0.3739 -0.1118  0.0672
 7249W        W23143  13.859   1.700  15.341 -0.1263 -0.1593  0.4093
 7250W        W23144   9.621   2.429   0.807 -0.4633  0.3589 -0.2147
 7251W        W23145   6.778  11.082   4.948  0.0313 -0.1453  0.5177
 7252W        W23146   3.396   7.271   0.284  0.1212  0.0167  0.0795
 7253W        W23147   0.771   8.556  15.156 -0.0965  0.0692  0.1100
 7254W        W23148  18.229  10.694  12.545  0.0107 -0.1450 -0.1372
 7255W        W23149   6.368   1.139   1.034  0.2775  0.2390  0.1358
 7256W        W23150  11.401   7.010   1.889  0.0249 -0.2157 -0.3160
 7257W        W23151   9.274   1.527  13.238 -0.1728  0.3077  0.1265
 7258W        W23152  12.445   1.221   1.331 -0.2393 -0.1115 -0.2636
 7259W        W23153  12.989  15.222   0.443 -0.0417 -0.1079  0.0845
 7260W        W23154   7.555  11.809   3.274  0.0293  0.1667  0.2260
 7261W        W23155   3.093  18.395  13.178 -0.0350  0.1009  0.0910
 7262W        W23156  15.532  16.873   0.088 -0.1833 -0.2914  0.0528
 7263W        W23157  10.150  15.366   2.230 -0.1916 -0.0144 -0.0233
 7264W        W23158  15.175  16.381   5.683  0.0126 -0.1189  0.2006
 7265W        W23159  13.835  15.302   3.505 -0.0365  0.4300  0.1464
 7266W        W23160  16.427   3.889   3.701  0.1510  0.2476  0.2480
 7267W        W23161   2.952   3.314  14.717 -0.0513 -0.0075 -0.1314
 7268W        W23162   4.409  14.391   3.389  0.0343 -0.0435  0.0765
 7269W        W23163  15.506  12.849   3.789 -0.1748  0.0997  0.2332
 7270W        W23164  14.280  14.704   5.304 -0.0811  0.3871 -0.4034
 7271W        W23165   0.877   5.061   2.550  0.2398  0.2131 -0.0944
 7272W        W23166  18.160   2.659   3.020 -0.0282 -0.3386 -0.0064
 7273W        W23167  14.981   6.229  10.135  0.0365  0.2461 -0.1030
 7274W        W23168   1.226   2.315  13.101  0.2050  0.1918  0.0887
 7275W        W23169   5.167   6.100   4.719 -0.3262 -0.1107  0.0459
 7276W        W23170   4.402  12.279   4.071 -0.2183 -0.0880  0.2722
 7277W        W23171  15.585  18.251   5.774 -0.1699  0.1728 -0.0594
 7278W        W23172  15.408  13.141   2.050 -0.2859 -0.0694 -0.0974
 7279W        W23173   3.510  16.370   5.197 -0.1777  0.3344 -0.1349
 7280W        W23174   9.414  18.088   1.940 -0.1227 -0.1132 -0.0605
 7281W        W23175   1.394  17.898  15.206  0.1397 -0.1094  0.0065
 7282W        W23176  11.725   8.584  13.120 -0.1503 -0.0537 -0.3865
 7283W        W23177   4.694  15.909  14.878  0.5233 -0.0574 -0.0042
 7284W        W23178   0.684   5.636   0.314  0.0219  0.2559  0.0450
 7285W        W23179   4.505  16.182   2.916 -0.2280 -0.3331  0.0708
 7286W        W23180  13.797  14.501  13.307 -0.2174 -0.1690  0.1842
 7287W        W23181   2.731   5.814  12.480 -0.2089  0.0139 -0.1426
 7288W        W23182  13.300  12.697   1.710 -0.0895  0.1068 -0.0783
 7289W        W23183   9.655  17.789  14.661 -0.0303 -0.1498  0.2255
 7290W        W23184  17.912  11.693   6.106  0.2244  0.1171  0.1303
 7291W        W23185   0.891  10.397   3.616 -0.2378 -0.0611 -0.0452
 7292W        W23186   9.940  17.922   1.937 -0.1008 -0.0090  0.4855
 7293W        W23187  17.005  13.228  12.576 -0.2061  0.0108 -0.1107
 7294W        W23188  13.466   4.468  11.825  0.3188 -0.2614 -0.0100
 7295W        W23189   7.081  17.568  14.952  0.1246  0.0489  0.0568
 7296W        W23190   9.105  12.989  14.403 -0.1586 -0.2128  0.2314
 7297W        W23191  12.775   4.156  11.808 -0.1565  0.4267  0.0837
 7298W        W23192   3.888  11.926  14.414 -0.1471 -0.0541 -0.2506
 7299W        W23193   8.774   2.195   2.374 -0.2427  0.2190  0.0867
 7300W        W23194   5.650  11.758  12.422  0.2539 -0.1918 -0.1766
 7301W        W23195   3.795  11.911   2.611  0.4384 -0.0987 -0.2350
 7302W        W23196   8.000   4.202   3.656  0.3147 -0.2754 -0.0488
 7303W        W23197   8.630  13.361  11.152 -0.1999  0.2787 -0.1866
 7304W        W23198  11.890  15.279  12.231 -0.2906  0.0348  0.0844
 7305W        W23199  13.863  11.158  15.096  0.2933 -0.1298 -0.0008
 7306W        W23200  11.360   5.750   4.971 -0.1619  0.0318  0.2076
 7307W        W23201  16.719  16.741   4.273 -0.1447  0.0459  0.0993
 7308W        W23202  14.635  11.023   0.716 -0.0258 -0.2124 -0.0045
 7309W        W23203  10.187  14.717   0.822  0.1573 -0.3437  0.0688
 7310W        W23204  13.138  14.153  12.545 -0.1494 -0.1866  0.0941
 7311W        W23205   1.554  15.999   0.362 -0.1357 -0.0039  0.0320
 7312W        W23206   4.141  16.934   4.931  0.1947  0.1490 -0.2727
 7313W        W23207  15.899   4.021  12.620  0.1223  0.0672  0.1655
 7314W        W23208  14.092   7.251  11.656  0.1459  0.2461 -0.7434
 7315W        W23209   7.279   2.098   3.572 -0.1126  0.1280  0.1346
 7316W        W23210  13.171   2.861   2.921 -0.0099  0.2181  0.2024
 7317W        W23211  15.111  11.403   5.521 -0.4514  0.1872 -0.0355
 7318W        W23212   9.955   1.593  13.194  0.0695 -0.0166 -0.2611
 7319W        W23213   8.855  12.234   0.921 -0.1594 -0.0456  0.0890
 7320W        W23214   9.166   3.151   0.525  0.1127  0.2175 -0.3355
 7321W        W23215  17.820   7.529   5.388 -0.0883 -0.2385  0.0998
 7322W        W23216   6.812   8.683   3.351 -0.1044 -0.0012 -0.5156
 7323W        W23217  12.417   3.059   3.465  0.1497  0.1131 -0.0417
 7324W        W23218  12.423   5.207  13.059 -0.0477 -0.0357  0.0640
 7325W        W23219  17.380   1.673   4.360  0.0736 -0.1343  0.0296
 7326W        W23220  16.315   3.009   2.723  0.0258 -0.1903 -0.1626
 7327W        W23221   6.916   3.305   2.839 -0.0223  0.1053 -0.0500
 7328W        W23222  14.741  10.471   2.776  0.0777 -0.1220  0.1633
 7329W        W23223   0.589  16.964  12.477 -0.1456 -0.1952 -0.0533
 7330W        W23224   3.653   3.631   4.294 -0.0917  0.3043 -0.2177
 7331W        W23225  13.647  16.761  11.258  0.2084  0.1976  0.0801
 7332W        W23226   6.154   3.776  12.683  0.2679  0.1807 -0.1530
 7333W        W23227   6.986   7.668  12.597  0.4546  0.4304 -0.0590
 7334W        W23228   9.703  14.578  11.915  0.0106  0.2267 -0.0979
 7335W        W23229  10.486   8.419  13.618  0.0032  0.0255 -0.2213
 7336W        W23230  15.987  17.028  12.237  0.0777  0.0162 -0.2472
 7337W        W23231  16.944   0.956   4.084  0.1336  0.2871 -0.0255
 7338W        W23232   2.988  16.261  14.218  0.1268  0.0954 -0.0839
 7339W        W23233  13.677   8.419  13.497 -0.0093  0.1241 -0.0363
 7340W        W23234  15.857  14.226  11.474  0.0670  0.1201 -0.1055
 7341W        W23235  12.142   5.674  13.983 -0.2435  0.1546 -0.0249
 7342W        W23236  17.649   8.818  14.381  0.1948 -0.2973  0.2146
 7343W        W23237  15.870   9.439  12.303 -0.0504 -0.0060 -0.1803
 7344W        W23238   6.154   6.281   0.928  0.0340  0.1074  0.2998
 7345W        W23239  10.751  17.945   2.925  0.2732 -0.1144  0.2588
 7346W        W23240   7.473   7.116  15.626  0.1314  0.0590  0.1594
 7347W        W23241   0.841   8.181   4.938 -0.2428  0.1717 -0.1011
 7348W        W23242   2.949   5.692   3.441 -0.0310 -0.3703 -0.0226
 7349W        W23243  11.810  10.034   6.179 -0.1368 -0.1811 -0.0000
 7350W        W23244  16.343   4.844   0.599 -0.1677 -0.1936  0.2486
 7351W        W23245  18.078   8.647  14.624 -0.1239 -0.2567 -0.3342
 7352W        W23246   6.228   8.722   1.366 -0.0145 -0.0068  0.3165
 7353W        W23247  12.747   5.554  12.805  0.1415  0.0925  0.0889
 7354W        W23248  13.621   5.528   4.518  0.3004 -0.0330  0.0745
 7355W        W23249   7.066  15.904   5.095 -0.2765 -0.1807 -0.0728
 7356W        W23250   1.106  16.264  11.166  0.0347  0.1812  0.3369
 7357W        W23251  11.502  10.598  15.370  0.0225  0.3143 -0.2825
 7358W        W23252  11.977   2.843  14.325  0.0617 -0.3000 -0.0256
 7359W        W23253   6.722  15.590   9.651 -0.0678 -0.0050 -0.1410
 7360W        W23254   6.728   8.765   3.819  0.5035  0.1760 -0.1240
 7361W        W23255   5.036  17.697   4.455 -0.2399  0.1840  0.0943
 7362W        W23256   6.083  11.748  10.531 -0.0324  0.1250 -0.1371
 7363W        W23257  12.628   8.110   1.053  0.1065  0.0159 -0.2371
 7364W        W23258   5.600   0.780  11.633 -0.0071  0.1086 -0.1109
 7365W        W23259  13.499   3.190  15.573  0.0245  0.0620  0.0497
 7366W        W23260  13.936  17.689   3.107 -0.1890 -0.0055  0.3574
 7367W        W23261   8.760   3.068   1.977  0.2042 -0.0245  0.2035
 7368W        W23262   0.078   2.524  12.132 -0.2377 -0.0542  0.2414
 7369W        W23263  14.839  17.940  13.186  0.1846 -0.1137 -0.0901
 7370W        W23264  10.159  10.573  14.855  0.0624  0.1818 -0.1146
 7371W        W23265  16.461   2.245  13.940  0.0736  0.1622 -0.1811
 7372W        W23266   2.777  13.762   3.005 -0.1039  0.0062  0.1542
 7373W        W23267   6.914   1.568   1.455  0.1590 -0.2771 -0.3213
 7374W        W23268  12.853  11.676  14.159 -0.0197 -0.0251  0.0327
 7375W        W23269  13.392  17.087  15.422  0.0675 -0.2619 -0.0696
 7376W        W23270  18.566   5.163   0.616  0.0370 -0.1225  0.0763
 7377W        W23271   8.318   4.199   0.310  0.0409 -0.2839 -0.0838
 7378W        W23272   9.419  13.135   0.474  0.3057  0.2007 -0.3343
 7379W        W23273   0.496  11.704  12.557 -0.2230  0.2627 -0.1055
 7380W        W23274   3.414   5.848   3.353  0.2303 -0.3202 -0.0864
 7381W        W23275   2.007   1.801   2.981  0.0048  0.1514  0.1949
 7382W        W23276   7.528  11.485   0.732 -0.0841 -0.1281  0.2734
 7383W        W23277  11.187  17.628  14.937 -0.1608  0.1738  0.1112
 7384W        W23278  16.398   8.292   0.394 -0.0549 -0.3498  0.0892
 7385W        W23279   3.716   0.604   4.036 -0.2344 -0.1555  0.0901
 7386W        W23280   6.438   5.026  13.047 -0.2839  0.0531  0.1709
 7387W        W23281   1.436  10.640   4.523 -0.0418  0.0557  0.0832
 7388W        W23282   2.970   2.461   4.736 -0.5311 -0.0999  0.1262
 7389W        W23283  11.749   5.059  13.467 -0.0896 -0.1247 -0.0043
 7390W        W23284   5.842   7.424   5.256 -0.1084 -0.0498  0.1114
 7391W        W23285   2.583  13.293  15.239 -0.3532  0.1296 -0.0377
 7392W        W23286   1.835  16.101  12.578 -0.1311 -0.1699  0.3446
 7393W        W23287   4.566  16.777   4.581  0.1064 -0.1990  0.2107
 7394W        W23288   2.513   8.743  11.663  0.2512 -0.1133  0.0604
 7395W        W23289   1.608   5.250   5.357 -0.1632 -0.1712 -0.3846
 7396W        W23290   5.924  18.430   3.664 -0.0524 -0.0236  0.0049
 7397W        W23291  15.714   3.293   4.055  0.1341 -0.0805 -0.0015
 7398W        W23292   6.202   6.081   2.698  0.1934 -0.4246 -0.1963
 7399W        W23293   1.277  18.189   4.187 -0.0580  0.0998 -0.1790
 7400W        W23294  16.808  16.480   1.105 -0.0538 -0.0445 -0.0609
 7401W        W23295   5.822  14.732   2.155  0.3462  0.1100  0.0975
 7402W        W23296   3.344  18.453   1.256 -0.3914 -0.2764  0.1198
 7403W        W23297  17.284   1.485   0.967  0.2903 -0.2041  0.0945
 7404W        W23298   2.986   0.176  13.739  0.0042  0.1766  0.1966
 7405W        W23299  15.072  13.617   0.483  0.3195 -0.0920 -0.0691
 7406W        W23300   8.237  10.693  13.687  0.0313  0.4231  0.2433
 7407W        W23301   4.785  17.661  15.329  0.4005 -0.1936 -0.1434
 7408W        W23302   5.545  11.384   3.983  0.1770 -0.2955  0.1477
 7409W        W23303   5.603  17.606  12.344  0.1092 -0.0438 -0.0542
 7410W        W23304   3.185   3.114   2.549  0.0054  0.2205  0.2762
 7411W        W23305  17.022   5.798  14.572 -0.0899  0.1482  0.1275
 7412W        W23306   9.218  18.311  13.342 -0.2087 -0.0711 -0.1961
 7413W        W23307   6.959   6.989  13.704 -0.0514 -0.1313 -0.0986
 7414W        W23308   8.619   2.554   2.650  0.0759  0.0324  0.1607
 7415W        W23309  14.641  14.477   0.974 -0.4392  0.2072  0.0832
 7416W        W23310   7.635   0.438  12.484 -0.0710 -0.0580 -0.0602
 7417W        W23311   9.949   2.741  13.841  0.2531 -0.0622 -0.1962
 7418W        W23312  10.235   5.088  11.338  0.0705 -0.1011  0.2245
 7419W        W23313  10.867  14.293   4.199  0.1649 -0.1320 -0.1208
 7420W        W23314   3.666   3.974   3.418 -0.2215  0.0828 -0.2466
 7421W        W23315  10.311   6.837  10.197 -0.1248 -0.0349  0.0760
 7422W        W23316   7.602  17.269   4.142 -0.1795  0.0203  0.3329
 7423W        W23317   0.262  17.618  14.900 -0.1724  0.2146 -0.1801
 7424W        W23318   2.933  17.985  11.261 -0.0073 -0.0456  0.1396
 7425W        W23319  12.544  17.803   3.552 -0.1830  0.4021 -0.0854
 7426W        W23320  15.823  13.026  12.177  0.3756 -0.1762  0.0772
 7427W        W23321   6.998   0.785  15.060 -0.2832 -0.0605  0.2088
 7428W        W23322   4.181  17.571  15.038 -0.3056  0.1462 -0.0616
 7429W        W23323  18.746   7.062   0.666 -0.0448  0.1305 -0.0602
 7430W        W23324  11.960   9.427  13.696  0.1346 -0.0035 -0.0989
 7431W        W23325  13.489   4.471   1.875  0.0045  0.1445  0.0033
 7432W        W23326  12.352  13.396  14.014  0.1387 -0.0486 -0.1284
 7433W        W23327  18.223  12.252  10.002  0.0328  0.1085 -0.4375
 7434W        W23328   5.478  14.794  11.907 -0.0789 -0.1680  0.1177
 7435W        W23329  12.199   1.659   4.315 -0.3459 -0.0657  0.1546
 7436W        W23330  13.910  16.718   3.187  0.0021  0.2205  0.0873
 7437W        W23331  14.660  13.560  13.953  0.1406  0.0614  0.1603
 7438W        W23332   8.150   5.625  14.532  0.0379 -0.1944  0.1151
 7439W        W23333  15.153  12.382  13.973 -0.1224  0.0838 -0.0106
 7440W        W23334  17.511   0.660  14.804 -0.1818 -0.0542  0.1823
 7441W        W23335   0.082   5.979  15.428  0.0122 -0.3373 -0.0188
 7442W        W23336  14.949   0.801  11.813  0.0891  0.1427  0.1513
 7443W        W23337   8.725   7.241  14.358  0.0946  0.1134  0.1406
 7444W        W23338  16.860   2.297  12.466 -0.1702 -0.0635  0.0626
 7445W        W23339   8.163  15.078   1.160  0.2510  0.0764  0.0444
 7446W        W23340   4.254   3.779  14.878 -0.1545 -0.3831 -0.1944
 7447W        W23341  13.127   3.159   2.517  0.0575 -0.1489  0.3618
 7448W        W23342  14.224   2.879  11.336  0.0836 -0.2343  0.1607
 7449W        W23343   2.044   6.496   2.176  0.2400 -0.1898  0.0001
 7450W        W23344  17.195   6.112   4.984 -0.0437  0.2607 -0.5399
 7451W        W23345   9.651  18.730  11.552  0.0741  0.2541  0.0387
 7452W        W23346   9.841   7.160   2.353 -0.0664 -0.1302  0.3656
 7453W        W23347  14.212   6.235   2.006  0.0156 -0.0733 -0.1705
 7454W        W23348  11.060  15.700  11.860 -0.0505 -0.1062 -0.1205
 7455W        W23349   0.522  11.569   4.076 -0.1278 -0.1174  0.0050
 7456W        W23350   4.000  10.306   0.030 -0.2060  0.1930 -0.0704
 7457W        W23351   9.557   0.306   0.974  0.0096 -0.0914  0.0717
 7458W        W23352  11.387  15.002  14.280 -0.1445  0.1509  0.1227
 7459W        W23353  14.624  18.287  14.442 -0.0157  0.2179 -0.0532
 7460W        W23354  14.113  16.355   5.278  0.1290  0.3961 -0.1819
 7461W        W23355   3.771  15.227   2.967 -0.0581  0.3343  0.1755
 7462W        W23356   9.099   2.247   4.562  0.1891  0.2664 -0.2595
 7463W        W23357   0.831  10.931  10.951  0.1550  0.2656 -0.0161
 7464W        W23358   7.152   6.794   1.867 -0.2150  0.3221  0.0976
 7465W        W23359   2.450   4.076  15.138  0.1142  0.1346  0.0794
 7466W        W23360   0.169   1.435  11.330 -0.0256 -0.4436  0.0720
 7467W        W23361  11.125   7.572  14.319 -0.2291  0.1625  0.0946
 7468W        W23362  17.241  10.644  12.214  0.4105  0.0794  0.1497
 7469W        W23363  10.734   1.978   0.168 -0.2023  0.0309 -0.0739
 7470W        W23364  15.838  13.432   4.516 -0.2450  0.0857  0.0760
 7471W        W23365   3.664   9.273  13.723  0.0586 -0.0077 -0.1259
 7472W        W23366   4.738   4.379   5.255 -0.1185  0.2765 -0.3079
 7473W        W23367  17.495   0.234   5.125  0.0308  0.0063  0.0691
 7474W        W23368   7.208   9.095  15.617  0.0487  0.0396 -0.2607
 7475W        W23369   6.214  10.807   3.269 -0.1034  0.2011  0.1273
 7476W        W23370   0.560  12.882   4.258 -0.0629  0.0941  0.1690
 7477W        W23371   8.725  14.975  12.832  0.1268  0.1489 -0.0339
 7478W        W23372   8.819   8.705   2.859  0.0257  0.2408 -0.0804
 7479W        W23373   5.702  17.708   4.583  0.3289  0.0754  0.1103
 7480W        W23374  17.358  11.190   0.814  0.2511 -0.3791 -0.2925
 7481W        W23375  16.068  16.413   0.943  0.1074 -0.2448 -0.0947
 7482W        W23376  12.530   3.162   4.522  0.5007 -0.1659 -0.1893
 7483W        W23377   6.794  10.883   0.035 -0.0953 -0.4292  0.0642
 7484W        W23378   1.711   7.266  14.362 -0.2007  0.3087  0.0035
 7485W        W23379   1.070   7.554   1.038  0.1350 -0.0343 -0.1950
 7486W        W23380  17.295   4.964   1.216  0.1004 -0.3119  0.0843
 7487W        W23381  13.796  11.731   1.226  0.1062 -0.1645  0.0797
 7488W        W23382   9.090   7.524   5.763  0.2584  0.1939 -0.2665
 7489W        W23383   1.322   3.868  14.869  0.0036 -0.1711  0.0542
 7490W        W23384   2.153   4.218   2.248  0.4747 -0.2581 -0.0860
 7491W        W23385  13.356  12.482   4.597 -0.2688 -0.0820  0.0902
 7492W        W23386   5.673  15.887   5.619 -0.1885  0.1708  0.0277
 7493W        W23387   9.226  14.917   3.177  0.0602 -0.1807 -0.1241
 7494W        W23388  10.383  17.082  15.179  0.2291  0.2649  0.1215
 7495W        W23389  13.830  16.696  14.784 -0.1187  0.1401 -0.0794
 7496W        W23390   7.362  11.181   4.978  0.0495  0.0747 -0.1095
 7497W        W23391   4.760   9.633   0.199  0.1354  0.2150 -0.0715
 7498W        W23392   6.472  11.756  10.894 -0.1302  0.2959 -0.1637
 7499W        W23393   0.416   1.936  11.653  0.4242  0.1184 -0.2490
 7500W        W23394   9.641  16.469  11.211  0.3787 -0.0588  0.0842
 7501W        W23395  13.917  11.737   2.736  0.1079 -0.3519 -0.0472
 7502W        W23396   7.412   7.871  14.863 -0.0530  0.2338 -0.1761
 7503W        W23397   3.812   7.311   4.531  0.0478 -0.0147  0.4058
 7504W        W23398   2.129  10.375   4.803  0.2132  0.1116  0.1027
 7505W        W23399   5.112  15.541  14.137  0.0813  0.1187 -0.0384
 7506W        W23400  14.188  11.653   5.468  0.2313  0.1869  0.0902
 7507W        W23401  11.021   3.720   0.256 -0.0896  0.0944 -0.0113
 7508W        W23402   7.994   9.101   2.764 -0.0434 -0.0163 -0.0904
 7509W        W23403   0.871   6.267   3.857  0.0974  0.1583  0.3311
 7510W        W23404   8.001   7.162  12.788  0.1867  0.0784  0.0704
 7511W        W23405  12.360  10.313   5.184  0.1644 -0.1169 -0.1772
 7512W        W23406   1.279   5.283  13.077  0.1129  0.2918  0.1347
 7513W        W23407  13.279   1.146   5.134  0.1452  0.3305  0.4162
 7514W        W23408  15.775  18.368   1.041 -0.2391 -0.3525  0.0207
 7515W        W23409   0.536  15.563   1.730  0.0973 -0.2408 -0.3190
 7516W        W23410   4.403   1.554   0.776 -0.0011  0.4170  0.1163
 7517W        W23411  12.749   6.729  13.866 -0.0656 -0.0185 -0.2321
 7518W        W23412   6.478   6.176  10.714 -0.0070  0.2223  0.2416
 7519W        W23413  17.200   6.977  10.194 -0.0608  0.1431  0.0599
 7520W        W23414   1.653   2.728  13.373 -0.1872  0.3858  0.1801
 7521W        W23415   5.292  18.408   3.946  0.0252  0.1013 -0.3144
 7522W        W23416   7.789   0.178  11.132  0.3120  0.2906 -0.0624
 7523W        W23417   9.238  16.866  14.369 -0.1580  0.1409  0.1623
 7524W        W23418   3.816   1.884   0.313 -0.1040 -0.2435 -0.0275
 7525W        W23419   4.304  13.246  11.770  0.0213 -0.0370 -0.2282
 7526W        W23420  12.140   2.176   1.185 -0.2774  0.0846  0.0255
 7527W        W23421  17.012  15.339   5.414  0.3164  0.1551  0.0805
 7528W        W23422  12.176   2.996   4.223  0.0117  0.1274 -0.2937
 7529W        W23423   4.968  10.191  13.192 -0.1968 -0.3114 -0.1596
 7530W        W23424  11.996  11.515   0.381  0.2300 -0.0456  0.0004
 7531W        W23425   0.857   3.780   2.630 -0.0291  0.0886  0.1087
 7532W        W23426  15.786   0.183   3.472 -0.1277 -0.1973  0.0724
 7533W        W23427  10.150  14.451   3.630  0.0908 -0.3278  0.1366
 7534W        W23428   8.794   6.307   3.836  0.2069 -0.0878  0.1232
 7535W        W23429  10.524  10.242  13.986  0.0486 -0.0765  0.3100
 7536W        W23430   5.598  14.279  11.536  0.3784  0.2732 -0.1274
 7537W        W23431  11.348   1.088  13.707 -0.1737 -0.3290  0.0454
 7538W        W23432  10.757  16.029   4.139 -0.2599  0.3358 -0.0444
 7539W        W23433   3.401  11.813   3.049  0.0175  0.0440 -0.1339
 7540W        W23434  10.883   7.662   4.083  0.0358  0.1520 -0.0235
 7541W        W23435   8.569   5.413  11.198 -0.0411 -0.0298  0.5281
 7542W        W23436  18.622  14.761   2.399 -0.1478  0.1115  0.1582
 7543W        W23437  11.619   4.763  15.571 -0.1447  0.0615 -0.1546
 7544W        W23438   9.813   8.452   4.463 -0.1085 -0.1388  0.0278
 7545W        W23439   4.794  15.870   3.817 -0.4154 -0.0309 -0.0642
 7546W        W23440  13.736   9.634   2.586 -0.1007 -0.0603 -0.0521
 7547W        W23441  16.501   8.204  15.104 -0.1238  0.1916  0.2465
 7548W        W23442   9.512   0.962   4.220  0.2372 -0.0422  0.1991
 7549W        W23443   1.336   3.091  15.255  0.0653  0.3607  0.0671
 7550W        W23444  13.842   0.056   4.944  0.3181 -0.2225  0.1962
 7551W        W23445  16.725   3.289   1.985  0.1414 -0.1931  0.5736
 7552W        W23446   0.105  10.708   2.989 -0.0073 -0.0744  0.0165
 7553W        W23447   6.265   5.687   3.040 -0.1898  0.1927  0.0986
 7554W        W23448   5.851  11.885   0.213  0.2323  0.0361 -0.2449
 7555W        W23449   7.061  12.952  11.036  0.1320 -0.1470  0.1261
 7556W        W23450  10.132   0.024   4.806  0.1752  0.0564 -0.0630
 7557W        W23451  18.510  16.690  14.685 -0.0060  0.0759 -0.4486
 7558W        W23452   2.205  13.415   6.073 -0.2239 -0.1927 -0.0891
 7559W        W23453  10.132  16.393  11.382  0.0854  0.1458 -0.2037
 7560W        W23454  14.530  16.607   4.148 -0.0674 -0.2737  0.0823
 7561W        W23455  11.549   7.966  15.038 -0.3314 -0.2298  0.0575
 7562W        W23456   2.350   1.135   4.417  0.0369 -0.1469 -0.2561
 7563W        W23457   6.389  13.641  12.512 -0.0469  0.0551 -0.2141
 7564W        W23458   3.067   7.506  10.466 -0.1154 -0.1196  0.1180
 7565W        W23459   3.256  11.974   5.202 -0.1478  0.2710  0.0672
 7566W        W23460   1.864   0.817   1.652 -0.0743 -0.3312 -0.0217
 7567W        W23461  16.982   2.937   3.416  0.0844 -0.1975  0.0270
 7568W        W23462  14.807  12.131  15.092 -0.4970 -0.2152  0.1643
 7569W        W23463   9.246   5.122   3.733  0.0325  0.2454 -0.0324
 7570W        W23464  14.799   9.345   2.306  0.0174 -0.0105  0.2256
 7571W        W23465  14.417   2.459  12.539 -0.2030  0.0690 -0.1969
 7572W        W23466   3.236   0.185  13.248  0.3096  0.2028 -0.3403
 7573W        W23467  12.788   6.191  13.547 -0.0490  0.2700  0.0925
 7574W        W23468   7.125   8.978  14.013  0.0232  0.1784 -0.3271
 7575W        W23469   9.004  11.351   1.789  0.1571 -0.3301  0.0864
 7576W        W23470  11.452   3.663   3.849 -0.0845 -0.2794 -0.1443
 7577W        W23471   7.962   8.962   9.701 -0.1141  0.3840 -0.0596
 7578W        W23472  17.535  16.666  14.465  0.2103 -0.2445 -0.0561
 7579W        W23473   9.968   5.475   4.116 -0.0966  0.1560  0.0620
 7580W        W23474  15.180   9.066   0.257  0.0840  0.0472  0.3284
 7581W        W23475  17.655  13.133   4.963 -0.1273  0.0876  0.0572
 7582W        W23476  11.621  10.819  11.101 -0.0452  0.1170  0.0901
 7583W        W23477   2.559   9.455   1.529 -0.0904 -0.1810 -0.1154
 7584W        W23478   2.380   1.260  12.030  0.0748  0.2474 -0.1910
 7585W        W23479   4.825  17.287   4.519  0.1536  0.2037 -0.0726
 7586W        W23480  10.958   2.867   0.584  0.0354 -0.1003  0.0195
 7587W        W23481   5.285  16.755   2.828  0.0155 -0.3124 -0.0124
 7588W        W23482   8.328  12.107   3.609 -0.0963  0.0942 -0.1437
 7589W        W23483   5.719   1.175  12.511  0.0997  0.2656  0.3075
 7590W        W23484  10.654   4.468   0.663  0.2679 -0.2554  0.1345
 7591W        W23485   2.878  17.776  14.260  0.1351  0.1189  0.0335
 7592W        W23486   0.680   3.443  11.395  0.1060  0.1646  0.0861
 7593W        W23487   6.852   9.243  12.825 -0.2086  0.1053 -0.0405
 7594W        W23488   2.108  16.987  12.933 -0.1161  0.4121  0.0409
 7595W        W23489  10.588  13.105   3.396 -0.0916  0.1672  0.2033
 7596W        W23490  12.204   4.627   4.143 -0.0148 -0.0723 -0.0561
 7597W        W23491   8.937  15.009  12.304 -0.0201 -0.0021 -0.0139
 7598W        W23492   5.860   2.852   1.569 -0.0557 -0.1806  0.0744
 7599W        W23493   0.765   1.595   5.093 -0.2571 -0.1313  0.0507
 7600W        W23494  11.126   4.090  10.939  0.0607 -0.0586 -0.2655
 7601W        W23495   4.277   5.956  13.369  0.0238  0.0191  0.0309
 7602W        W23496  10.563   8.321   4.973 -0.0493 -0.1900  0.2195
 7603W        W23497  13.071   3.834  10.847  0.0583  0.2744  0.0762
 7604W        W23498   0.004   9.089  15.305 -0.1467 -0.0668  0.0221
 7605W        W23499  18.175   4.248  13.261 -0.0758  0.1383 -0.1903
 7606W        W23500  17.486  18.577  14.664 -0.0010 -0.0938 -0.1935
 7607W        W23501  18.091   3.978  13.753  0.0470  0.4740  0.2527
 7608W        W23502   3.325  18.110   5.242 -0.4777  0.0634  0.1084
 7609W        W23503   6.376   4.044   0.893 -0.0609  0.1487  0.1359
 7610W        W23504   1.406   8.488  11.496 -0.2388 -0.0175  0.0530
 7611W        W23505  14.574   3.737   5.319  0.1213 -0.1813 -0.0992
 7612W        W23506   6.597   3.081  10.955  0.1260 -0.1347 -0.1350
 7613W        W23507   1.906  14.858   0.606 -0.2205  0.1594  0.0589
 7614W        W23508  15.925  14.527  12.852  0.2780  0.1363 -0.2503
 7615W        W23509  14.413  13.087   1.085  0.0752 -0.0335 -0.1933
 7616W        W23510  10.178  10.300  11.831 -0.1755 -0.0399 -0.0165
 7617W        W23511  17.193   3.350  10.769 -0.1690  0.0657 -0.0725
 7618W        W23512  15.154   1.427  11.132  0.1060 -0.1560 -0.1471
 7619W        W23513  10.983  13.852   0.165 -0.3943 -0.1832  0.0614
 7620W        W23514   2.501  16.912   4.428 -0.2933  0.1611 -0.2057
 7621W        W23515  18.626   2.385  10.991 -0.1791  0.2132  0.1663
 7622W        W23516  15.900   5.602  12.467 -0.0880  0.1785  0.1026
 7623W        W23517   8.230   8.119   4.538  0.2879  0.0505 -0.2242
 7624W        W23518  11.421  13.130   3.267 -0.2595  0.0001  0.0259
 7625W        W23519  13.039  11.568   4.517 -0.3968 -0.1103 -0.0151
 7626W        W23520  12.318   0.773  13.669  0.0751  0.0157 -0.0711
 7627W        W23521   3.672   1.908  10.767 -0.1851  0.1465  0.0526
 7628W        W23522   4.862   5.079  14.781  0.2558 -0.2226  0.2628
 7629W        W23523   1.864   6.475  12.776 -0.2385  0.1826  0.1606
 7630W        W23524   9.540  11.907   4.195  0.0193 -0.0978 -0.0375
 7631W        W23525  18.502  10.861   1.975  0.1400 -0.0118  0.0019
 7632W        W23526  12.150   8.971  13.683  0.0172 -0.2870 -0.2841
 7633W        W23527   4.873   3.438   0.003 -0.2349 -0.3835  0.0316
 7634W        W23528   1.672   3.828   4.798 -0.3527 -0.0005  0.2014
 7635W        W23529   4.291   7.561   4.516 -0.0861 -0.0915  0.2192
 7636W        W23530   9.756  12.756   3.377  0.0010  0.2570 -0.1596
 7637W        W23531  14.620   4.252   2.329 -0.2156 -0.1099 -0.0535
 7638W        W23532  14.321   3.379  10.439  0.1075  0.0201 -0.2550
 7639W        W23533   6.302   4.916   1.346 -0.1504  0.2399 -0.0180
 7640W        W23534  15.775   8.165   0.890  0.4019 -0.1382  0.3470
 7641W        W23535   4.585   0.782   3.929  0.0130  0.4947 -0.0951
 7642W        W23536  13.007  10.720  12.480 -0.1368  0.2742  0.2306
 7643W        W23537  13.574  11.228   3.567 -0.1399  0.0959  0.1176
 7644W        W23538  14.197   1.065   0.695  0.1198 -0.1424 -0.2022
 7645W        W23539  17.666  15.145   9.955 -0.4253  0.2147  0.1832
 7646W        W23540   9.362   9.449  13.337 -0.3547  0.2363 -0.0205
 7647W        W23541   0.621   6.801  14.399  0.1638 -0.3137 -0.2169
 7648W        W23542   4.173  12.800  11.959  0.2745  0.5850  0.1261
 7649W        W23543  12.143   9.190   1.432  0.0543 -0.0813 -0.1732
 7650W        W23544  11.402  16.495   0.835  0.0666  0.0438 -0.0902
 7651W        W23545  15.366  16.208  11.936 -0.4927 -0.2819  0.0369
 7652W        W23546  12.251   6.116  14.123 -0.0324  0.0806 -0.1791
 7653W        W23547  18.731  17.971  15.257  0.0608 -0.0184 -0.0955
 7654W        W23548   5.246  10.938   3.404  0.0481 -0.1070 -0.0729
 7655W        W23549   5.747  18.504  12.912 -0.2182  0.0745 -0.0688
 7656W        W23550   7.005   0.111   1.715  0.1315  0.4253  0.2455
 7657W        W23551   7.874   6.802  12.385  0.1514  0.0618 -0.0331
 7658W        W23552   2.723  16.353  11.548 -0.1337 -0.2286 -0.1691
 7659W        W23553  16.869  14.946  12.935  0.0669 -0.1732  0.1398
 7660W        W23554  13.169   0.916  15.196 -0.5461 -0.0320  0.2241
 7661W        W23555  17.994  13.346  10.104 -0.3084 -0.0706  0.0913
 7662W        W23556   6.539  15.006  12.290  0.0129 -0.1708 -0.0500
 7663W        W23557  17.424   4.979  12.775  0.0726  0.1181  0.1439
 7664W        W23558  11.117   9.542   3.962  0.1618 -0.0409  0.4155
 7665W        W23559   6.722  12.265  12.732 -0.4519 -0.1209 -0.1468
 7666W        W23560   3.035  12.355  14.387 -0.2174  0.3445 -0.2450
 7667W        W23561   6.756   9.346   4.553  0.0343 -0.1752  0.1715
 7668W        W23562   3.388   8.554   4.035 -0.0848  0.0695  0.0088
 7669W        W23563  14.533   1.287  12.785 -0.0107 -0.1148 -0.0108
 7670W        W23564   0.026  18.176   2.464  0.0879 -0.1128 -0.0649
 7671W        W23565   5.519   8.330   2.464 -0.2227 -0.0512  0.1769
 7672W        W23566  11.453  16.459  12.383 -0.2075 -0.0834  0.0257
 7673W        W23567   5.958  12.386  13.770  0.2136  0.3909  0.1728
 7674W        W23568   5.799  12.686   2.735 -0.7095 -0.0143 -0.1401
 7675W        W23569  15.985  16.580  12.452  0.2848 -0.2402 -0.1353
 7676W        W23570  10.312   6.534  13.444 -0.1386 -0.2219 -0.0408
 7677W        W23571   9.107  14.733  13.718  0.1094  0.2575 -0.0762
 7678W        W23572   4.131  11.033   0.395  0.1277  0.0426  0.1259
 7679W        W23573   0.632  15.831  14.428  0.0716 -0.0330  0.2746
 7680W        W23574  12.427  12.833  13.566  0.0116 -0.0287 -0.1075
 7681W        W23575   8.589  17.503  14.045  0.2578  0.2500 -0.0371
 7682W        W23576   2.435   1.172  11.469 -0.0769  0.3220  0.0008
 7683W        W23577   2.903  15.080  11.603 -0.2348  0.0389 -0.0156
 7684W        W23578  13.349   9.277  14.454  0.2425 -0.0331  0.4218
 7685W        W23579  13.521  11.865  12.356  0.0111  0.3078  0.0364
 7686W        W23580  15.822  13.323   3.009 -0.1234 -0.1530  0.1834
 7687W        W23581   7.918  18.058   4.465 -0.0479 -0.1249  0.3608
 7688W        W23582   9.851   1.024   5.015  0.1647  0.0280 -0.0154
 7689W        W23583   4.821   6.912   3.472 -0.2132 -0.0995  0.1709
 7690W        W23584  16.167  13.498  12.090 -0.0632  0.0700 -0.1007
 7691W        W23585   6.389  13.284   3.457 -0.4160  0.3149  0.1945
 7692W        W23586   3.672  12.669   0.483  0.1439  0.3540  0.0683
 7693W        W23587   4.690   6.964   4.111 -0.1606  0.0091  0.1391
 7694W        W23588  15.042   7.252   2.226 -0.1537 -0.0727 -0.1361
 7695W        W23589   4.461  14.714   3.003  0.3197  0.1414  0.2713
 7696W        W23590  16.504   8.448  12.027 -0.2836 -0.0880 -0.0271
 7697W        W23591   7.860   7.063  14.350 -0.1200  0.1478 -0.3839
 7698W        W23592  15.295  15.020   1.280  0.1264 -0.1585  0.3183
 7699W        W23593   4.820  16.219  11.128 -0.1206  0.0749  0.0627
 7700W        W23594  10.996  13.903   3.292  0.2347 -0.1912 -0.2702
 7701W        W23595  15.066   3.856   3.552 -0.1459  0.3873  0.0048
 7702W        W23596   4.127   3.450  15.274 -0.2579  0.2681 -0.0772
 7703W        W23597   3.166  14.468   0.014  0.0374  0.1838 -0.1393
 7704W        W23598   9.351   8.417   0.611  0.6206 -0.3417 -0.1300
 7705W        W23599   3.788  17.549  11.094  0.0883  0.1961  0.3047
 7706W        W23600  11.718   1.017   4.457 -0.0845 -0.4171  0.2900
 7707W        W23601   4.372  17.367   2.704  0.2058 -0.1430  0.0291
 7708W        W23602  12.993  16.347  11.372 -0.0888  0.3220 -0.1804
 7709W        W23603   2.686  12.546   1.190  0.1152 -0.0453  0.2386
 7710W        W23604   2.710   7.237   1.165 -0.0977  0.0180 -0.3089
 7711W        W23605   0.152   4.378   1.492  0.1379  0.1111 -0.1234
 7712W        W23606   5.627  14.644  13.807 -0.3329  0.0595  0.0675
 7713W        W23607  14.529   2.983   5.071 -0.0415 -0.2596  0.1548
 7714W        W23608   2.808  18.166   0.542 -0.0364  0.0243 -0.0069
 7715W        W23609  18.728   5.716  15.026  0.1075 -0.1091  0.0779
 7716W        W23610   0.461   0.557   2.073 -0.2224  0.0410  0.2102
 7717W        W23611   4.484   2.937  14.387 -0.1515  0.2448  0.0408
 7718W        W23612   0.773  15.533   0.837  0.0590  0.1877 -0.1363
 7719W        W23613   1.358  12.846  14.908 -0.3331 -0.1127  0.0304
 7720W        W23614   7.220   7.065  15.068 -0.0743 -0.0118  0.4419
 7721W        W23615   1.856  16.515  11.327 -0.3646  0.4433 -0.2100
 7722W        W23616   3.406   6.812  13.363 -0.1403 -0.0208 -0.1625
 7723W        W23617   2.712  11.189   3.349  0.0342 -0.0067  0.4710
 7724W        W23618  15.704   4.882  11.204  0.1236 -0.2206 -0.4274
 7725W        W23619  12.398   2.956  11.246 -0.0068  0.0868  0.1229
 7726W        W23620   3.845  10.176  12.153  0.0268  0.0481 -0.1853
 7727W        W23621  10.629  12.745  10.349  0.3087  0.0170 -0.1668
 7728W        W23622  18.081  14.928   2.070 -0.3304  0.0674 -0.1910
 7729W        W23623  12.921  13.231   4.820  0.1862  0.1206 -0.1626
 7730W        W23624   9.068   4.204  14.239 -0.2588  0.0844  0.0026
 7731W        W23625   3.372  13.449  11.512 -0.2550 -0.2098  0.3106
 7732W        W23626   9.329   6.113   2.415 -0.2606  0.2414 -0.1537
 7733W        W23627  18.716  10.172   2.492 -0.1166 -0.1039  0.0191
 7734W        W23628   6.876  10.078  13.353  0.1975 -0.2065  0.4018
 7735W        W23629  11.323  10.726  13.317 -0.2183 -0.0267  0.0127
 7736W        W23630  10.697  18.543   4.098 -0.1382  0.1844 -0.0372
 7737W        W23631   9.749   7.428  15.097  0.0405 -0.1271 -0.1403
 7738W        W23632   4.062   8.823   2.571  0.2027 -0.1104 -0.1898
 7739W        W23633   7.274  14.172   3.560  0.2019 -0.0268 -0.2878
 7740W        W23634   3.114  18.483  11.258 -0.1671  0.4910 -0.2512
 7741W        W23635  15.797   4.633  13.927  0.2985  0.0911  0.0131
 7742W        W23636  15.474  12.813   0.611  0.0525 -0.2358  0.0572
 7743W        W23637   6.200   2.513  14.885 -0.0767 -0.0240 -0.0252
 7744W        W23638   0.920   8.006   1.243  0.2580  0.0367 -0.5700
 7745W        W23639   4.416  16.313   3.412  0.0367  0.0689 -0.1748
 7746W        W23640   6.717   7.711   3.288  0.0086 -0.0726 -0.1718
 7747W        W23641  17.805  11.367  14.825 -0.0014 -0.2409 -0.0675
 7748W        W23642   6.583   5.697   4.914 -0.0452 -0.1769  0.0942
 7749W        W23643   2.625  10.547   3.676  0.0404 -0.0569  0.1885
 7750W        W23644   0.280   6.693   5.084  0.0561 -0.0053  0.4667
 7751W        W23645   1.546   6.817   3.193 -0.0484  0.0851  0.1946
 7752W        W23646  18.228  13.325  15.139 -0.3691 -0.2717 -0.0637
 7753W        W23647   7.203  18.047  11.013 -0.2174  0.2406 -0.1682
 7754W        W23648   3.952   2.634  11.689  0.1519 -0.0375 -0.3745
 7755W        W23649   0.206  14.289  13.574  0.2805  0.0669 -0.3246
 7756W        W23650   9.935   0.318   1.360 -0.1150  0.1741  0.3402
 7757W        W23651   5.269  15.862   3.616 -0.2717  0.0727 -0.2646
 7758W        W23652  10.089  11.333   4.210 -0.1239 -0.0396 -0.0682
 7759W        W23653   9.425   7.652   1.696  0.0764  0.0116 -0.2123
 7760W        W23654   6.221   5.671  13.847  0.0445  0.1337 -0.1218
 7761W        W23655   5.740   7.402  12.017 -0.1733  0.3198 -0.5496
 7762W        W23656  13.046  10.984  11.035  0.0799 -0.0530  0.0439
 7763W        W23657   3.469   2.053  13.123  0.1838  0.1824 -0.1283
 7764W        W23658  15.061  18.302  12.430 -0.3600 -0.0854  0.0750
 7765W        W23659  11.593   6.163  14.080  0.1001  0.1989  0.0097
 7766W        W23660   7.686  14.248   3.982  0.1023 -0.3981 -0.0779
 7767W        W23661  10.287  17.014   3.905 -0.0763  0.3016  0.0934
 7768W        W23662   9.213   6.120   0.868  0.0322  0.1576  0.2050
 7769W        W23663   9.340  17.130   5.041 -0.1301 -0.0521  0.0320
 7770W        W23664  11.385  15.844   0.222 -0.0286  0.2936 -0.2295
 7771W        W23665   9.016  16.716  12.905 -0.2807  0.3768  0.1661
 7772W        W23666  12.701   0.571  15.627  0.3247 -0.1454 -0.1603
 7773W        W23667   0.590   6.478   0.537  0.1617  0.3549  0.1489
 7774W        W23668   5.437   6.431  14.608 -0.0585  0.1084 -0.0786
 7775W        W23669   2.370   5.251   5.173  0.1471 -0.2117  0.6564
 7776W        W23670   8.951   8.945   4.243  0.0113  0.0020  0.2013
 7777W        W23671  13.090   8.857   2.416  0.1429 -0.0177  0.2026
 7778W        W23672   4.524   0.965  14.308 -0.4746 -0.0539  0.2379
 7779W        W23673  16.966  16.236  11.281 -0.0150 -0.3843 -0.1713
 7780W        W23674  10.209  12.947   3.843 -0.0531 -0.1618  0.0666
 7781W        W23675  13.349  15.338  13.670 -0.1023  0.0425  0.1622
 7782W        W23676  17.240  18.576  11.307  0.0447  0.2421 -0.0364
 7783W        W23677   6.487   5.500   9.629  0.1123  0.1168 -0.0058
 7784W        W23678   1.721  13.712   2.187 -0.1241  0.0858  0.1688
 7785W        W23679   7.707   3.991  10.909 -0.1209  0.2321 -0.0102
 7786W        W23680   3.751   3.475   0.903 -0.0280  0.2791  0.1589
 7787W        W23681   9.185   0.708   1.657  0.4951  0.1178  0.0638
 7788W        W23682   9.297   0.759  10.437 -0.1637 -0.2521 -0.3553
 7789W        W23683  18.402   3.185  11.839 -0.0182 -0.0265 -0.2407
 7790W        W23684   8.005  12.955  12.548 -0.2595 -0.0019 -0.1044
 7791W        W23685   7.400  13.456   2.197 -0.0038  0.3753 -0.2139
 7792W        W23686   1.180   8.026   4.508 -0.0236  0.1488 -0.2283
 7793W        W23687   5.083  13.641   0.009  0.0205  0.0709  0.4185
 7794W        W23688  13.159  10.013  15.396 -0.0194  0.3193 -0.1449
 7795W        W23689  15.168   0.174   2.789 -0.1360 -0.0169  0.0429
 7796W        W23690   4.259  17.946   1.466  0.1769 -0.4109  0.0393
 7797W        W23691   3.946  12.710  15.083 -0.0095 -0.1842 -0.3603
 7798W        W23692   9.783   0.013   5.218  0.3992 -0.1513  0.1403
 7799W        W23693  14.510  18.679  13.122  0.0013 -0.2454 -0.2974
 7800W        W23694  18.303   4.854   2.145  0.4260  0.0458 -0.5105
 7801W        W23695  10.765  15.701  14.379  0.1944  0.1965 -0.1074
 7802W        W23696   2.636  15.776  15.347 -0.2799 -0.0148 -0.0195
 7803W        W23697  16.736  14.826   2.519 -0.1206  0.0653 -0.2367
 7804W        W23698   0.096   6.282   3.145 -0.5499 -0.1169  0.3622
 7805W        W23699   6.721  11.734  12.390 -0.2854  0.2254 -0.0346
 7806W        W23700  10.716   6.053  13.678  0.2463 -0.1617 -0.3218
 7807W        W23701  12.182  10.056  14.460  0.0010  0.3233  0.2431
 7808W        W23702   6.611   4.132   0.408 -0.1031  0.2192 -0.1417
 7809W        W23703  18.147  18.134   4.452  0.1088 -0.2756 -0.3430
 7810W        W23704   4.398   6.558   0.497 -0.3036  0.1401 -0.2956
 7811W        W23705   4.787  15.047  15.361  0.1125  0.0615 -0.0556
 7812W        W23706   4.183  11.980  11.687 -0.1968 -0.1883 -0.3927
 7813W        W23707  15.038  12.919  14.113  0.1104 -0.0547  0.0577
 7814W        W23708   4.243  13.188  10.587 -0.1117 -0.0265  0.0849
 7815W        W23709   7.262   7.000   2.985 -0.0565  0.0157  0.0493
 7816W        W23710  18.315  18.198   1.124 -0.4677  0.1372 -0.0239
 7817W        W23711   2.439   9.233   0.901 -0.0521 -0.0401  0.3081
 7818W        W23712  11.881  10.587   1.353 -0.2917 -0.2024 -0.2434
 7819W        W23713   9.869  18.704  14.160  0.2363  0.0951 -0.1445
 7820W        W23714  10.305  11.019   0.490 -0.0620 -0.1087 -0.1496
 7821W        W23715   4.811   6.514  11.719  0.2627  0.0022 -0.0629
 7822W        W23716   3.036  13.739  14.479  0.0733  0.1051  0.0793
 7823W        W23717   8.899   6.402   0.041  0.0361 -0.1325  0.1818
 7824W        W23718   0.192  15.220   2.117 -0.0493 -0.0698 -0.0445
 7825W        W23719   6.622  12.474   3.744 -0.0535  0.0977 -0.1668
 7826W        W23720   5.269   9.603   2.505 -0.0037 -0.3287 -0.1367
 7827W        W23721  18.068   2.310   4.050 -0.1303  0.1491 -0.3771
 7828W        W23722   5.283  15.764   5.317  0.3818  0.4558  0.0188
 7829W        W23723   2.099   4.082   5.026 -0.1210  0.3568  0.0612
 7830W        W23724  13.559   8.503   5.353 -0.1114 -0.1306 -0.1058
 7831W        W23725   8.319   0.471   4.913  0.0388  0.2902 -0.0072
 7832W        W23726  14.838  14.057   3.638  0.0214  0.2864 -0.2366
 7833W        W23727  14.915   4.882   0.403 -0.1976  0.1590  0.1134
 7834W        W23728  11.151   0.002   3.366  0.2321 -0.0512  0.1505
 7835W        W23729   4.538  18.149  15.504 -0.2321  0.0641 -0.0094
 7836W        W23730   6.466   2.961  14.117 -0.2859  0.1570  0.0173
 7837W        W23731   3.520   1.391  15.124 -0.3512  0.1450 -0.0283
 7838W        W23732   3.871   1.550  15.533  0.1164 -0.2017  0.3202
 7839W        W23733  16.249   5.675   1.289  0.1321  0.1187 -0.0852
 7840W        W23734  16.457   1.623  11.974 -0.0141  0.3462  0.2049
 7841W        W23735   0.569  15.211   0.368 -0.1914 -0.0335 -0.0649
 7842W        W23736  10.706  11.913   4.911  0.1384  0.1867  0.0153
 7843W        W23737   8.911  11.821   5.271  0.1047  0.1572  0.2062
 7844W        W23738  12.520   5.930  12.353 -0.1213 -0.0098  0.1325
 7845W        W23739  11.670   7.619  15.375  0.1727 -0.1741 -0.0171
 7846W        W23740  15.679   7.154   0.755 -0.0225 -0.0351 -0.6177
 7847W        W23741   6.003   0.341   0.787 -0.2864 -0.1466  0.0332
 7848W        W23742   7.787   0.408   4.500 -0.0249  0.1610  0.1007
 7849W        W23743   9.750  14.674  14.647 -0.1041  0.1376 -0.2342
 7850W        W23744  11.203  11.955  12.433 -0.0689  0.0955  0.0436
 7851W        W23745   9.087   1.300  10.548 -0.0774  0.2469 -0.2443
 7852W        W23746  15.695   3.477  12.434  0.0800 -0.2296 -0.1960
 7853W        W23747   2.162  18.722  13.488 -0.0885 -0.0290  0.0040
 7854W        W23748  15.011  14.490   1.403  0.0624  0.2430  0.1926
 7855W        W23749  10.977  17.004  13.987 -0.1627 -0.1257 -0.1472
 7856W        W23750  12.491  15.604   3.671 -0.1626  0.0489 -0.0073
 7857W        W23751   7.677   7.760   2.703  0.2813 -0.0979 -0.0705
 7858W        W23752   8.283   6.361   4.550 -0.1360 -0.0707 -0.0459
 7859W        W23753   3.999  14.981  15.447 -0.0293  0.2769  0.0455
 7860W        W23754  14.204   3.091   2.525  0.1209 -0.4461 -0.1531
 7861W        W23755   2.130   2.590   4.715 -0.3552  0.2413 -0.0384
 7862W        W23756  14.575   6.903  15.173  0.0508 -0.0187  0.4983
 7863W        W23757  10.711   2.980  12.303  0.0259  0.0982 -0.2911
 7864W        W23758   7.747   7.864   3.228  0.0407  0.0269  0.2579
 7865W        W23759  11.713  15.446   0.220 -0.0587  0.2400 -0.0755
 7866W        W23760   4.792   6.485  13.804 -0.2897 -0.0250  0.2104
 7867W        W23761   5.335   1.413  15.302 -0.2767  0.2539 -0.1690
 7868W        W23762  11.508  16.371   1.565 -0.0586 -0.0327 -0.1551
 7869W        W23763  10.722   9.188   4.942 -0.1938  0.2191  0.0240
 7870W        W23764  14.784  15.443  14.004 -0.2157 -0.3654 -0.3109
 7871W        W23765   0.075  18.757   5.415 -0.2577  0.0822  0.2270
 7872W        W23766  18.665   7.411   3.307  0.0773  0.3576  0.0422
 7873W        W23767   1.677   2.201  11.421 -0.3051 -0.0265 -0.0130
 7874W        W23768   3.621  14.379   4.001 -0.0444 -0.0619  0.1397
 7875W        W23769   9.038  12.088  10.797  0.0366  0.2896 -0.3801
 7876W        W23770   6.719   8.205   3.258 -0.3550  0.1212 -0.1339
 7877W        W23771  14.391  17.357  11.852  0.0326  0.1189  0.0727
 7878W        W23772  11.851   7.885  11.922  0.0676  0.3836 -0.1057
 7879W        W23773  14.391   6.763   0.388 -0.0114  0.0343  0.0063
 7880W        W23774  14.047   8.410  11.975 -0.2820 -0.1589  0.0207
 7881W        W23775   9.788   0.425  13.971 -0.0658 -0.2490  0.0154
 7882W        W23776   5.472  10.541  14.614  0.0831 -0.3228 -0.2950
 7883W        W23777  17.124  17.154   1.722  0.1988 -0.1573  0.0602
 7884W        W23778   8.469  13.830   2.788  0.0735 -0.2903  0.0200
 7885W        W23779   9.459   7.451   1.065 -0.2417 -0.2030 -0.0331
 7886W        W23780  11.394  10.209   0.565 -0.2429  0.1642  0.1074
 7887W        W23781  13.536   7.205   4.279  0.3663 -0.0996  0.1007
 7888W        W23782   7.753  11.642  10.933  0.0517  0.0827  0.1298
 7889W        W23783  17.877  12.146   2.505 -0.2019 -0.0061  0.0307
 7890W        W23784   2.027  10.469   0.781  0.0056 -0.0767 -0.2579
 7891W        W23785   4.210   0.088  14.279 -0.2181  0.2306  0.2286
 7892W        W23786   9.261   1.154  13.765 -0.0828  0.1166  0.3787
 7893W        W23787  15.817   6.126  12.494 -0.2545  0.2744 -0.2320
 7894W        W23788   3.172   9.558  15.562  0.1846 -0.1125 -0.1679
 7895W        W23789  13.127  17.339  14.009  0.0992 -0.1970  0.4207
 7896W        W23790  13.749  17.096   2.195 -0.1630  0.0051 -0.5178
 7897W        W23791  12.006  11.081  14.835 -0.2622  0.0243 -0.2181
 7898W        W23792  14.544   1.877  12.687 -0.0474 -0.1574  0.0181
 7899W        W23793  10.780   1.581   2.829  0.0771 -0.1966  0.0765
 7900W        W23794   2.403   5.703  13.965 -0.1909  0.3063  0.3494
 7901W        W23795   6.673   8.004  14.786 -0.2560 -0.0677 -0.4009
 7902W        W23796   0.939  17.908  13.874 -0.3436  0.1301 -0.0053
 7903W        W23797   3.602   2.724   0.141  0.1111 -0.0282  0.3112
 7904W        W23798   0.426  16.096   2.220 -0.1113 -0.2155  0.2771
 7905W        W23799  12.316  11.931   1.507 -0.3186 -0.0709  0.0054
 7906W        W23800  17.736   0.331  13.300  0.0631 -0.2710  0.2140
 7907W        W23801  14.664  16.122   5.199 -0.0445 -0.1938  0.0279
 7908W        W23802  12.296   0.065   2.585  0.3398 -0.1030 -0.1065
 7909W        W23803  11.360  18.516  15.304 -0.0382 -0.1547 -0.1910
 7910W        W23804   6.946  17.191  14.100  0.1410 -0.0354 -0.1689
 7911W        W23805   1.531   1.798   3.345 -0.1073  0.2878 -0.0025
 7912W        W23806  10.386   7.800  11.521 -0.1723  0.1204  0.1670
 7913W        W23807  18.265  14.797  12.198  0.1519 -0.2264  0.1911
 7914W        W23808   8.961   4.003   1.781  0.0187 -0.1238  0.3867
 7915W        W23809  16.133  15.050  14.427 -0.0720  0.3389 -0.1048
 7916W        W23810   3.343   0.194  12.056  0.0487 -0.1645 -0.0676
 7917W        W23811  14.955   6.388  13.213 -0.0756 -0.0586 -0.0520
 7918W        W23812   0.992   1.033   0.984  0.0426  0.2445 -0.2620
 7919W        W23813   0.377  11.046  10.738 -0.1073 -0.3132 -0.1461
 7920W        W23814  10.346   5.947  14.347  0.1862  0.0834 -0.2275
 7921W        W23815  18.479   1.805  14.904 -0.1988  0.0615 -0.2110
 7922W        W23816   6.869   2.952  15.021  0.2852 -0.0365 -0.3988
 7923W        W23817   6.209   7.038  13.057  0.1017 -0.1083  0.1661
 7924W        W23818  13.009   3.168  10.804  0.0436 -0.3465 -0.1859
 7925W        W23819  13.728  12.881   1.974 -0.1846  0.1415 -0.2509
 7926W        W23820   5.560   7.453   3.506 -0.0037  0.1318  0.0796
 7927W        W23821   6.916  14.452  10.701  0.0111  0.1531 -0.3521
 7928W        W23822  15.923  13.153   5.791 -0.0279 -0.1556  0.2047
 7929W        W23823  10.299   7.800  13.549  0.0486 -0.2194  0.1809
 7930W        W23824  11.508   8.895   3.333 -0.1432  0.1427 -0.3061
 7931W        W23825   2.993  18.419   1.733  0.4934 -0.2228  0.0125
 7932W        W23826  18.402   6.449   0.414  0.1207 -0.2021  0.0099
 7933W        W23827  15.482   8.187   4.721 -0.0772 -0.3268 -0.0233
 7934W        W23828   3.640   3.626  15.287  0.0949  0.0596 -0.0364
 7935W        W23829  17.432  10.382  10.710 -0.2753 -0.1916  0.1701
 7936W        W23830   0.764  17.914  15.510 -0.1630  0.0469  0.2047
 7937W        W23831   6.643   6.000   4.454 -0.0928  0.0496 -0.0358
 7938W        W23832  18.603   2.930   2.940  0.0178  0.1492  0.0573
 7939W        W23833  16.692  15.609   1.887  0.3043  0.2194 -0.0902
 7940W        W23834  14.818  17.515  13.715 -0.1027  0.1580 -0.1786
 7941W        W23835  10.244   5.526  12.590 -0.1013  0.2725 -0.0204
 7942W        W23836  13.752   4.014  14.721  0.0444  0.1700  0.1764
 7943W        W23837   2.001   8.011   1.238  0.1139  0.1336 -0.1174
 7944W        W23838  12.657  11.272   1.536  0.0168  0.2058 -0.0293
 7945W        W23839   2.922  18.362  12.582  0.2101  0.1278 -0.2270
 7946W        W23840   2.358   4.126   3.600 -0.1098  0.0831  0.4274
 7947W        W23841  15.092   7.345   4.498 -0.2933 -0.1435 -0.3463
 7948W        W23842  17.490   3.786  11.339 -0.2215  0.4365  0.1830
 7949W        W23843  12.880   5.133  12.111 -0.0403 -0.3846 -0.1802
 7950W        W23844  12.642  13.864  10.703  0.1073 -0.1071  0.2098
 7951W        W23845  16.337  17.984  11.972 -0.1416 -0.0303  0.2846
 7952W        W23846   5.242   3.101  11.256 -0.1595 -0.2234  0.1065
 7953W        W23847  13.177   0.342   5.590 -0.0582 -0.1047  0.1203
 7954W        W23848   3.685  16.340   2.258  0.1490  0.1844 -0.0890
 7955W        W23849   1.475  16.857   1.964  0.0690 -0.2755 -0.1170
 7956W        W23850  10.586  12.527  14.475 -0.2944 -0.1210  0.2602
 7957W        W23851   5.575   7.653  12.448 -0.0563  0.1153  0.2846
 7958W        W23852   9.942  12.040   4.922  0.1050  0.2078  0.0799
 7959W        W23853   2.190   6.090   3.351  0.1547  0.4128  0.1655
 7960W        W23854  14.263  15.091   5.020 -0.0222 -0.3192  0.3145
 7961W        W23855   6.043  16.614   0.458 -0.1580 -0.0828  0.0696
 7962W        W23856   5.212   0.568   5.124 -0.2973  0.0867  0.3239
 7963W        W23857   5.518   7.180  13.655 -0.1681 -0.0661  0.0709
 7964W        W23858  14.319   0.755  11.102 -0.0922  0.1024 -0.1413
 7965W        W23859   0.917   5.828  12.125  0.0007  0.0929  0.1918
 7966W        W23860  15.125  12.476  15.522  0.2154  0.1179  0.0805
 7967W        W23861   3.316  14.877  11.822 -0.1251 -0.1507 -0.1058
 7968W        W23862   3.487   0.224  13.670 -0.1734  0.1147 -0.0336
 7969W        W23863   7.665   7.495   0.367  0.0234 -0.1283  0.0791
 7970W        W23864   2.612  13.417   3.378 -0.1399 -0.1632 -0.1558
 7971W        W23865   8.151  14.988   5.809 -0.0985 -0.2410 -0.1645
 7972W        W23866   9.463   2.600  12.342 -0.0045  0.1611 -0.2703
 7973W        W23867  15.662  17.051   2.814 -0.0172  0.0729 -0.1373
 7974W        W23868  10.529  14.782   5.846 -0.3374 -0.3166 -0.1723
 7975W        W23869   1.677  14.764  14.138  0.3358  0.0459 -0.2014
 7976W        W23870  15.929   4.806   0.338 -0.2689 -0.1949  0.3542
 7977W        W23871  16.770  12.050   2.311  0.2616 -0.0722  0.1446
 7978W        W23872   0.634   4.225  14.251  0.3701  0.2317 -0.1670
 7979W        W23873  13.143  11.012  15.548  0.1245 -0.1348  0.5892
 7980W        W23874  17.507  10.037  14.760 -0.1724 -0.4535  0.1070
 7981W        W23875   7.434  14.070  10.986  0.0201 -0.1363 -0.1042
 7982W        W23876   8.005  13.794  15.498 -0.3291 -0.2168  0.3177
 7983W        W23877   1.352   0.239   3.749 -0.1805  0.1575  0.2734
 7984W        W23878  17.294   3.409  15.266  0.0235 -0.2821  0.0698
 7985W        W23879  11.820   6.464  15.158  0.2978 -0.1166 -0.1184
 7986W        W23880  16.847  14.368   4.027  0.1720  0.0509 -0.1629
 7987W        W23881   8.356   2.434   2.261 -0.0384  0.2545 -0.1166
 7988W        W23882  10.943  13.944  12.268  0.0636 -0.4114  0.0910
 7989W        W23883   1.535   4.680   3.678 -0.1359  0.0654 -0.1097
 7990W        W23884  18.211   1.940   0.731  0.0862 -0.4767 -0.0604
 7991W        W23885  18.309  14.792  15.212 -0.0830  0.1071  0.1440
 7992W        W23886   0.810  14.623  11.435 -0.1141 -0.3234 -0.4807
 7993W        W23887  14.432   6.034   2.496 -0.3899 -0.0177 -0.1718
 7994W        W23888   4.496   5.456   4.353  0.1128  0.2825  0.0008
 7995W        W23889   1.279  10.364   1.412  0.0843  0.0088  0.2439
 7996W        W23890   7.716   2.760  14.730  0.0783 -0.3217  0.2044
 7997W        W23891   0.183   9.336   4.857  0.1121  0.2456 -0.0962
 7998W        W23892   8.241  12.162  13.181 -0.2806  0.1642 -0.2067
 7999W        W23893  16.598   6.048  14.670 -0.2084  0.3589  0.0329
 8000W        W23894  10.403   2.169  11.899 -0.2070  0.1575  0.2109
 8001W        W23895   2.408  15.372  12.354  0.0101 -0.1254  0.0869
 8002W        W23896   0.305   2.517  11.672  0.0003 -0.0643 -0.0812
 8003W        W23897  16.041  15.353  14.800  0.2434  0.2803  0.1650
 8004W        W23898  14.903   9.798   3.343 -0.4434 -0.0218 -0.2689
 8005W        W23899  14.198   9.068  13.029  0.1779 -0.1935 -0.2401
 8006W        W23900  10.687   8.362  11.314 -0.2233 -0.0643 -0.2849
 8007W        W23901   6.981  11.911  13.720  0.0065 -0.0814  0.1085
 8008W        W23902   6.063  12.782  12.805 -0.4969  0.0269 -0.3046
 8009W        W23903   6.266  13.844  14.239  0.2192  0.1074  0.2361
 8010W        W23904   2.688  13.724  11.484  0.4624 -0.0110  0.1797
 8011W        W23905   3.460  17.468  12.480  0.2158  0.1516 -0.1105
 8012W        W23906   1.897  10.467   0.222 -0.0899  0.1883  0.2262
 8013W        W23907  16.333   9.293  13.407 -0.1985 -0.1384 -0.2427
 8014W        W23908   3.055  18.280   0.106  0.1115 -0.1893  0.0830
 8015W        W23909   3.485   1.179   1.066 -0.2372 -0.1566  0.1383
 8016W        W23910  12.566   0.504   2.826  0.1475 -0.3338 -0.1051
 8017W        W23911  17.865   0.424   4.415  0.3193 -0.0473 -0.0019
 8018W        W23912  12.249  16.397   1.300  0.1259 -0.2461  0.2584
 8019W        W23913   6.498   7.161   4.245  0.0324  0.1240  0.1812
 8020W        W23914   5.472  15.314   0.094  0.0405  0.0857  0.1889
 8021W        W23915   8.838  15.888   3.409 -0.0184 -0.1891 -0.0551
 8022W        W23916  17.886   6.530   4.625 -0.2467  0.1625 -0.0782
 8023W        W23917  11.438   9.135  11.172  0.0280  0.0428 -0.0164
 8024W        W23918  10.841  18.197  13.177  0.1394  0.1826 -0.1334
 8025W        W23919   9.624  13.143  14.766  0.0072 -0.0716 -0.1048
 8026W        W23920   6.507  11.696   5.560 -0.2625  0.2398 -0.1771
 8027W        W23921  16.245  15.554  11.338  0.1771  0.0942 -0.2548
 8028W        W23922   0.419  12.027   1.972  0.0351  0.3609  0.0808
 8029W        W23923   3.198   5.928  11.239  0.1409 -0.0189  0.0636
 8030W        W23924   5.034   0.679   3.014  0.0479  0.0082 -0.3348
 8031W        W23925   8.129  11.749   1.807 -0.1348  0.1498 -0.3193
 8032W        W23926   1.223   0.651   5.152 -0.0520 -0.1207 -0.0149
 8033W        W23927  14.465   3.831  14.061  0.1488 -0.3256 -0.1296
 8034W        W23928   7.617   6.299   6.082 -0.0785 -0.0207 -0.1327
 8035W        W23929   6.273   5.429  15.317 -0.1560 -0.1856  0.1692
 8036W        W23930   0.741  12.712  15.421 -0.0172  0.2633  0.2385
 8037W        W23931   2.024  12.475   4.991 -0.2015 -0.0401 -0.2780
 8038W        W23932   2.488  12.769   2.454  0.1803  0.2679 -0.1984
 8039W        W23933   0.699   5.651  14.509 -0.0731 -0.2369  0.3606
 8040W        W23934  16.013  10.180   2.350  0.0095  0.2139 -0.0408
 8041W        W23935  11.811  18.041   3.016  0.1289 -0.2025  0.0677
 8042W        W23936   3.101   8.891   3.654 -0.0147 -0.1236 -0.1640
 8043W        W23937  16.669   9.429   5.331  0.0653 -0.0325 -0.3365
 8044W        W23938   4.110   4.745  12.256 -0.0836 -0.1375 -0.0068
 8045W        W23939   2.496  15.683   3.093  0.1096 -0.1209 -0.2862
 8046W        W23940   3.503  18.452  15.551 -0.0448  0.0998 -0.0729
 8047W        W23941  15.980  10.900  11.993 -0.0793  0.0535  0.2490
 8048W        W23942   4.901  11.385  12.891 -0.2317  0.3871 -0.1652
 8049W        W23943   6.439   1.950  12.563  0.0744 -0.2409  0.0224
 8050W        W23944   3.297  13.365  12.099  0.0005 -0.1039  0.2972
 8051W        W23945   5.098   2.080  12.716 -0.0077  0.0681  0.2382
 8052W        W23946  16.761  11.783   5.838 -0.0671 -0.4274 -0.3896
 8053W        W23947   9.668   3.727  11.021  0.0625  0.0945  0.1795
 8054W        W23948   0.401   9.400   1.807 -0.0665 -0.0462 -0.0196
 8055W        W23949  12.560  16.912  11.052 -0.2321  0.0427  0.0118
 8056W        W23950  10.399   3.281   1.234  0.0112 -0.0045  0.1732
 8057W        W23951  15.815  12.514   1.297 -0.2893  0.1421  0.1260
 8058W        W23952  16.068  11.105   2.232 -0.0376  0.1499 -0.2936
 8059W        W23953  11.512   5.256  15.293 -0.0242  0.1922 -0.1173
 8060W        W23954   5.992   5.127  14.490  0.2272  0.2086  0.0579
 8061W        W23955  10.062  16.468   0.955  0.1004  0.0351  0.1176
 8062W        W23956  12.614  12.824   5.809 -0.1404 -0.0447 -0.0175
 8063W        W23957   0.751  18.523  12.747  0.1062  0.0888 -0.1848
 8064W        W23958   0.550   5.474   4.677  0.1404  0.0046 -0.2924
 8065W        W23959  15.942   1.851   0.682  0.1108  0.0157  0.1189
 8066W        W23960   8.748  18.628  12.142  0.1186  0.2509 -0.3939
 8067W        W23961  16.087   8.728  10.252 -0.1507 -0.2842 -0.2793
 8068W        W23962   5.873  10.361  11.881  0.0991  0.0213 -0.0330
 8069W        W23963   9.487  16.600  14.878 -0.0386 -0.0292 -0.3316
 8070W        W23964  10.590  17.537   5.277  0.2487  0.1648  0.1266
 8071W        W23965  16.089   4.673  13.424  0.0205  0.2793 -0.0241
 8072W        W23966  15.535  10.940   0.748  0.1990  0.0615  0.1636
 8073W        W23967   8.322   4.237  15.198 -0.0681 -0.0450  0.1268
 8074W        W23968   1.633  13.657   4.685  0.1639 -0.0120  0.1783
 8075W        W23969  11.970   7.566   4.378 -0.1073  0.3433 -0.2352
 8076W        W23970   5.135  12.498   0.872 -0.1821  0.0367  0.0160
 8077W        W23971  16.291   0.068  10.641  0.3691  0.3793 -0.0138
 8078W        W23972   2.847   4.535  11.097  0.3208 -0.1110  0.1856
 8079W        W23973  13.006   5.513  15.295  0.1875  0.0780 -0.2966
 8080W        W23974  12.187  15.865   1.187 -0.3444 -0.0397  0.0879
 8081W        W23975  11.532  15.545   4.674  0.1900  0.1803 -0.0219
 8082W        W23976  10.540  13.547  14.419 -0.1387  0.2006  0.0126
 8083W        W23977  13.663   8.998  11.880  0.2905  0.0040 -0.0802
 8084W        W23978   1.129  12.183  13.090 -0.0708  0.0168  0.2540
 8085W        W23979  18.565  17.525   5.319  0.2155 -0.0761 -0.2386
 8086W        W23980  11.242  16.675  15.335  0.2856  0.0030  0.0699
 8087W        W23981   2.084   8.041   2.850  0.3199 -0.0657 -0.3133
 8088W        W23982   7.161   2.145  14.878 -0.0446 -0.0065  0.0707
 8089W        W23983  18.366  16.931  11.664  0.0162  0.2397 -0.1158
 8090W        W23984  11.437  16.795   1.294 -0.1795  0.3290  0.1382
 8091W        W23985   8.476  15.313   0.172  0.1079  0.3657  0.1368
 8092W        W23986   2.351  10.278  12.890 -0.1305  0.0563 -0.0747
 8093W        W23987  10.914  14.895   3.500 -0.0036  0.0971  0.0382
 8094W        W23988  11.234  11.378   1.756 -0.0821 -0.0790  0.1308
 8095W        W23989   1.694  17.939   3.884 -0.1565  0.1842 -0.0351
 8096W        W23990  17.265  13.937   0.780 -0.2034 -0.4017 -0.0540
 8097W        W23991   1.105  15.955   2.892 -0.0524  0.3569  0.2940
 8098W        W23992   4.575  16.641  13.003  0.1077 -0.1599  0.0917
 8099W        W23993  16.228  12.444   4.196 -0.4200  0.1106  0.0678
 8100W        W23994   3.332  18.508  10.799  0.0830 -0.1758  0.0067
 8101W        W23995  11.073   5.765  13.284  0.3257  0.0165  0.3199
 8102W        W23996   9.762  15.193  12.567  0.1529  0.0377 -0.1071
 8103W        W23997   5.422   3.152   1.486 -0.1405  0.1612  0.0573
 8104W        W23998   5.423  13.314  11.470  0.2119 -0.0469  0.5292
 8105W        W23999   8.485   2.081   1.900  0.2773 -0.3082  0.3117
 8106W        W24000   7.860   1.479   0.854 -0.2060 -0.1500 -0.1203
 8107W        W24001   2.788   3.350  12.791  0.0074  0.1286 -0.2479
 8108W        W24002  10.661   5.538  13.421 -0.0477  0.1218 -0.0236
 8109W        W24003   9.536  16.711  12.857  0.0192  0.2173  0.0549
 8110W        W24004  11.378   9.696  15.417 -0.1922 -0.1846 -0.1436
 8111W        W24005  16.081  11.995   4.018  0.0856 -0.2173  0.1958
 8112W        W24006   4.800  17.520   4.956 -0.1109  0.0429  0.0878
 8113W        W24007   2.962  17.936   1.859  0.0608  0.0059  0.0667
 8114W        W24008   5.469   5.026  12.794 -0.1310 -0.0205 -0.1340
 8115W        W24009  14.958  11.816   5.249 -0.0079  0.0014 -0.0684
 8116W        W24010  12.101  14.369   2.559  0.4548 -0.0258 -0.1153
 8117W        W24011   7.334   6.706   4.005  0.0815  0.1247  0.0330
 8118W        W24012   4.774   9.851   4.314 -0.0745  0.1825 -0.2871
 8119W        W24013   9.098  12.250   9.785  0.3367  0.3577 -0.2254
 8120W        W24014   6.241   0.891   1.711 -0.0870  0.0448  0.0678
 8121W        W24015  10.222  18.555   1.207  0.1700 -0.2630 -0.0067
 8122W        W24016  12.091   2.683  15.461  0.2462  0.2890  0.0436
 8123W        W24017   6.565  10.969   3.609 -0.0119  0.0856 -0.1604
 8124W        W24018   4.179   1.785  15.177 -0.2129  0.0541  0.2509
 8125W        W24019   6.151  10.225  12.317 -0.1288 -0.0058 -0.6762
 8126W        W24020  11.152   0.042   0.994 -0.1974 -0.1372 -0.2361
 8127W        W24021  11.670   0.195  13.403  0.3293  0.1090 -0.1044
 8128W        W24022  14.003   4.767   5.145 -0.4257 -0.1248 -0.0669
 8129W        W24023   5.227   0.827   0.308 -0.0209 -0.1199  0.0800
 8130W        W24024  12.499  13.420   3.602 -0.5449  0.0612  0.1992
 8131W        W24025  11.204  11.284  14.958  0.2416  0.2176 -0.0539
 8132W        W24026   4.221   7.223   0.498 -0.1557 -0.0284 -0.0421
 8133W        W24027   3.927   5.892  12.012  0.1460 -0.0768  0.0507
 8134W        W24028   0.005   0.768   5.696 -0.0938  0.1264  0.2284
 8135W        W24029  18.417  11.743   4.774  0.1763  0.1326  0.0990
 8136W        W24030  14.564   5.657  14.042  0.1370  0.0347  0.3483
 8137W        W24031   0.566   8.704  13.114 -0.1026 -0.2351 -0.1985
 8138W        W24032   4.125   2.518  14.417 -0.2635  0.1708 -0.2108
 8139W        W24033  11.089   7.881  12.850  0.2356  0.1977  0.1394
 8140W        W24034   5.103  12.948  11.870  0.0177  0.1410  0.1886
 8141W        W24035  14.823   7.943   5.111  0.1425 -0.2361  0.1547
 8142W        W24036  17.488   4.133   1.410  0.2182 -0.4412  0.0652
 8143W        W24037   0.162  10.694   4.161  0.2254  0.1778 -0.0327
 8144W        W24038  12.533  13.774   3.207 -0.2897 -0.0288 -0.1670
 8145W        W24039  18.282   9.551   3.391 -0.0681  0.0051  0.0182
 8146W        W24040  12.636   9.253   0.899  0.3468  0.0827  0.5119
 8147W        W24041   3.878  14.446   1.780 -0.1628  0.1979 -0.1377
 8148W        W24042   5.890  13.494  11.058 -0.1940  0.0497 -0.0489
 8149W        W24043  12.598  14.469   4.493  0.0102 -0.1419 -0.3573
 8150W        W24044   7.250   0.978  10.762 -0.1439  0.2880 -0.0389
 8151W        W24045  11.695  17.920   0.962  0.1271 -0.2128  0.1850
 8152W        W24046   2.569  17.554  11.054  0.1514  0.1737  0.1156
 8153W        W24047  16.349   2.208   1.059 -0.1486 -0.4407  0.2014
 8154W        W24048  15.813   0.403   2.048  0.3374 -0.2957  0.1083
 8155W        W24049   7.597   2.068  11.353 -0.1031  0.1016 -0.2687
 8156W        W24050  11.268  18.698  11.758  0.1759 -0.1400  0.0792
 8157W        W24051  18.590   7.752  14.858  0.2868  0.5248  0.2061
 8158W        W24052  10.648   4.474   5.651 -0.2570  0.1108 -0.1652
 8159W        W24053  16.035   7.543   2.118 -0.2796 -0.0873  0.2690
 8160W        W24054  10.618  16.457   1.905 -0.1489 -0.2591  0.1894
 8161W        W24055   5.509   6.969  11.503 -0.1428 -0.0802  0.2262
 8162W        W24056  15.795  11.361  11.234 -0.2159 -0.2600  0.2172
 8163W        W24057  12.120  11.113  12.923 -0.1687 -0.0298 -0.1640
 8164W        W24058   0.061   3.518   4.143  0.2934  0.0341  0.4200
 8165W        W24059   5.727   8.875  12.561 -0.3813 -0.0825  0.0234
 8166W        W24060  14.049   0.717  13.323  0.0094  0.0433 -0.1203
 8167W        W24061   5.340   4.136   5.222 -0.2051 -0.1483  0.0359
 8168W        W24062   5.358  12.892  10.583  0.0827 -0.1341 -0.2447
 8169W        W24063   1.980  12.453  11.053 -0.2603  0.1465 -0.0117
 8170W        W24064  15.228   5.179  13.473 -0.1792 -0.2796  0.1195
 8171W        W24065   0.416  17.847   2.200  0.2028  0.1402 -0.5147
 8172W        W24066  12.136   0.240   4.036 -0.0030  0.1186 -0.0482
 8173W        W24067  13.967   0.869   2.855 -0.0963 -0.0500  0.1126
 8174W        W24068  18.552   3.400  14.346  0.3516  0.0151 -0.0111
 8175W        W24069  12.401  18.272  11.506  0.0986  0.2743 -0.0749
 8176W        W24070  17.805  17.558   3.545 -0.0981  0.1294  0.1569
 8177W        W24071   0.737   6.379   2.979  0.2559  0.0908 -0.3363
 8178W        W24072   5.650   8.213  11.873  0.0742 -0.0052 -0.5353
 8179W        W24073   0.761   9.033   2.569  0.3245 -0.1918  0.2723
 8180W        W24074  11.350   8.030  11.920 -0.0536  0.1005 -0.0138
 8181W        W24075   2.406   1.538  12.555  0.2788 -0.0421 -0.0992
 8182W        W24076  10.110   6.020   2.134  0.1596 -0.0900  0.1182
 8183W        W24077   8.989   8.044   5.372  0.2063 -0.1100  0.2828
 8184W        W24078   7.684   7.689  11.323  0.0470  0.1470  0.1888
 8185W        W24079   6.997  16.269   0.475  0.0276  0.0612  0.2758
 8186W        W24080  15.954  15.563  11.984  0.3170 -0.2308 -0.2193
 8187W        W24081   5.391   8.630  13.437 -0.0139 -0.0458 -0.1788
 8188W        W24082   6.818  13.645  11.639  0.0075 -0.0387  0.1729
 8189W        W24083   9.532   1.100  13.208 -0.4475 -0.1045  0.2032
 8190W        W24084   4.858  18.385  14.833 -0.2076  0.1978  0.2214
 8191W        W24085   2.451  14.145  11.816 -0.0712 -0.0796 -0.2877
 8192W        W24086   7.605   7.078   4.153 -0.0159  0.0700 -0.4439
 8193W        W24087  15.711   5.733   3.725  0.2000  0.0361 -0.3133
 8194W        W24088  16.680   8.250   2.339  0.0212  0.4308  0.2850
 8195W        W24089   2.305   1.083   0.575 -0.0487  0.0794 -0.0983
 8196W        W24090  15.491  13.487  12.814 -0.3160  0.1265  0.0216
 8197W        W24091  18.657   4.161   3.755 -0.1523 -0.0910  0.0108
 8198W        W24092  10.023  10.068  13.733  0.0293  0.2711 -0.0209
 8199W        W24093   5.298  15.241   2.527 -0.2248 -0.0283  0.0432
 8200W        W24094   1.378  12.834   4.564 -0.1824  0.1480  0.1824
 8201W        W24095  16.992  11.493   0.103 -0.1373  0.1884  0.1777
 8202W        W24096   0.218   4.827  14.622 -0.2208 -0.0386 -0.1312
 8203W        W24097  12.186   8.441  12.907 -0.0174 -0.0120  0.0044
 8204W        W24098  18.138  10.788  13.652  0.1562  0.0768 -0.2858
 8205W        W24099   7.104   1.264  11.161  0.0894 -0.0251  0.1426
 8206W        W24100   1.149   0.726   2.783  0.3582 -0.2384 -0.2711
 8207W        W24101   1.305   5.235   5.762  0.0747 -0.2142 -0.1883
 8208W        W24102  15.651   5.672  15.454  0.0986  0.1555  0.3207
 8209W        W24103  12.209  13.341  14.586 -0.2208  0.0237 -0.1070
 8210W        W24104   5.962  10.061   0.244 -0.0346 -0.0425 -0.1207
 8211W        W24105  10.865  15.961  10.933  0.2455 -0.1506  0.1130
 8212W        W24106   7.921  10.294   2.405 -0.1517 -0.3602  0.0056
 8213W        W24107   1.675   5.158  13.654 -0.0108 -0.0604 -0.1302
 8214W        W24108  14.393   9.027   2.273 -0.1552 -0.2645 -0.0788
 8215W        W24109   7.049  10.569   0.492 -0.3053  0.1206  0.2515
 8216W        W24110   0.563   8.517  11.046  0.1267 -0.2215  0.1059
 8217W        W24111  13.917  15.576   3.986 -0.2067 -0.2380  0.0386
 8218W        W24112  16.277  15.865  12.308 -0.4426 -0.1502 -0.1351
 8219W        W24113   9.341   7.684  15.307  0.2327 -0.1212  0.0011
 8220W        W24114   2.233   9.187  10.608  0.2260 -0.1365  0.0892
 8221W        W24115  17.031  12.489   3.721  0.0732  0.0003 -0.0070
 8222W        W24116   1.113  18.323   3.314 -0.4093 -0.1366 -0.0661
 8223W        W24117   6.391  17.053  10.419  0.1075  0.3872  0.0563
 8224W        W24118  15.953  17.682   2.603 -0.0738  0.1973  0.1698
 8225W        W24119   4.869  12.965   4.471 -0.0626 -0.0236 -0.0531
 8226W        W24120   4.947  18.070  14.040 -0.2188 -0.0667  0.1613
 8227W        W24121   6.879   3.804   2.784  0.2607  0.2488 -0.3545
 8228W        W24122   9.378  16.405   4.223 -0.0591 -0.2123  0.3596
 8229W        W24123  17.364  11.263   5.038  0.0351  0.2284 -0.0530
 8230W        W24124  15.561  11.325  12.673 -0.2466  0.0821 -0.1052
 8231W        W24125   9.638   7.308   3.099 -0.1533 -0.2924  0.1752
 8232W        W24126  18.528   3.833  11.107  0.0448 -0.1966 -0.1087
 8233W        W24127  17.852   6.815  13.699  0.1792 -0.1863 -0.1033
 8234W        W24128   8.170  17.866   4.868  0.2312  0.1494  0.6873
 8235W        W24129  17.277  12.781   1.120  0.1330 -0.4853  0.1503
 8236W        W24130  17.035  12.552   4.667 -0.0353  0.1330 -0.0719
 8237W        W24131   3.819  18.164   1.464 -0.2968 -0.1078 -0.0062
 8238W        W24132   9.859  15.151   4.303 -0.4056 -0.1204 -0.2310
 8239W        W24133  14.173  18.411   4.005 -0.3951 -0.0006 -0.1978
 8240W        W24134  10.964  14.399   1.325  0.1451  0.4512 -0.1632
 8241W        W24135  17.828  12.604   1.818  0.2303  0.1046  0.1465
 8242W        W24136  14.820   6.070   0.451  0.2578 -0.0968 -0.0293
 8243W        W24137   3.722  12.137   2.083  0.5223 -0.1607 -0.1571
 8244W        W24138   2.418  14.909   0.591  0.1002  0.0229  0.0717
 8245W        W24139  18.677   7.462   0.091 -0.0121 -0.0572  0.2065
 8246W        W24140  16.825   8.816   6.192  0.2165  0.4199  0.2101
 8247W        W24141  12.720   7.374  11.477  0.3852  0.0026 -0.3333
 8248W        W24142  16.108   1.595   2.763  0.0082  0.0984 -0.2476
 8249W        W24143  14.703  17.180   0.236 -0.5200  0.0045  0.1022
 8250W        W24144   0.259  11.122   2.154 -0.1249 -0.1283  0.3817
 8251W        W24145   0.868  14.242   2.819 -0.1963  0.2417 -0.1555
 8252W        W24146  12.556  12.863   4.804  0.1679 -0.1774 -0.0336
 8253W        W24147   9.670  10.774   5.391  0.4588  0.0151 -0.0243
 8254W        W24148  11.059   5.696   1.251  0.0878  0.2749  0.0248
 8255W        W24149   0.437  14.157   0.743 -0.0507  0.1800  0.1460
 8256W        W24150   6.369   9.952   1.500  0.2552  0.2322  0.1498
 8257W        W24151  15.024   0.672  13.206  0.3391  0.1847  0.0459
 8258W        W24152   1.179   4.236   4.882  0.0208 -0.1734 -0.1779
 8259W        W24153   3.650  18.740   0.735  0.3572  0.1441 -0.0227
 8260W        W24154   9.110  11.795   2.017  0.2147  0.7853 -0.0656
 8261W        W24155   0.183   1.236   3.853 -0.1547 -0.0431 -0.1085
 8262W        W24156   1.821   2.381   5.093  0.1755  0.2574  0.0091
 8263W        W24157   2.480   5.758  14.779  0.0336 -0.1699 -0.1454
 8264W        W24158  11.270  17.534   4.691  0.0337 -0.2643 -0.2076
 8265W        W24159   9.285   0.136   1.908  0.6089  0.0373 -0.2057
 8266W        W24160  17.452   9.511   4.560 -0.1811 -0.0202  0.0386
 8267W        W24161  14.724   7.575   2.517  0.3132  0.0536  0.0673
 8268W        W24162   2.733   4.229  14.663  0.2215  0.2100  0.0712
 8269W        W24163   6.380  17.873   4.664  0.1883  0.4396  0.1633
 8270W        W24164  15.875   1.056   3.839  0.2080 -0.1893  0.1035
 8271W        W24165  18.395   4.656   5.227 -0.1057 -0.0917 -0.0057
 8272W        W24166  18.703   7.974  12.402 -0.0388  0.0830  0.1146
 8273W        W24167   0.502   9.454   4.476 -0.0442 -0.0933 -0.1585
 8274W        W24168   6.153   6.995  13.529  0.1069 -0.2679  0.0018
 8275W        W24169  11.651  13.447   5.685 -0.1752  0.1670  0.0854
 8276W        W24170   0.247  18.007  13.481  0.1774 -0.0014 -0.1255
 8277W        W24171  13.138   7.320  11.754 -0.1283 -0.0137  0.0555
 8278W        W24172  16.505  11.601  11.578 -0.0651 -0.0641 -0.1720
 8279W        W24173   1.904  10.571   1.309  0.2179  0.0335 -0.0234
 8280W        W24174   9.487   3.047   1.420  0.1365  0.2208 -0.1424
 8281W        W24175  13.166   3.575  15.526 -0.0009 -0.3470 -0.0239
 8282W        W24176  18.037  14.060   2.885 -0.1653 -0.2193  0.2184
 8283W        W24177  13.249   2.489   1.333 -0.2560  0.0200  0.1910
 8284W        W24178   9.932   4.377   0.757  0.0620  0.1639 -0.1796
 8285W        W24179  10.901   2.711   3.009  0.3438 -0.1482  0.1046
 8286W        W24180  11.634   7.380   2.178  0.0191 -0.2288 -0.2976
 8287W        W24181  12.746  11.062  12.860  0.2061  0.2156  0.0815
 8288W        W24182   8.412   5.650   0.486  0.1268 -0.0764  0.2432
 8289W        W24183   3.044   2.855  12.441  0.0091 -0.0826 -0.0810
 8290W        W24184   4.617  14.151   2.450 -0.2460 -0.0245  0.1540
 8291W        W24185   6.667   3.643  13.403 -0.2191 -0.2256 -0.1183
 8292W        W24186  17.946   8.217   0.970 -0.3334  0.1099 -0.0835
 8293W        W24187   8.471   0.948   5.132 -0.0032 -0.2711 -0.0073
 8294W        W24188   0.875   2.688  13.198  0.0171  0.0025 -0.1236
 8295W        W24189  17.846   8.249  10.874  0.2003  0.2324 -0.0128
 8296W        W24190  13.988   8.662   5.018  0.1250 -0.0122 -0.3706
 8297W        W24191   0.890   5.927  11.513  0.1487  0.1433  0.0762
 8298W        W24192   3.542  12.908  15.248  0.0051  0.0230 -0.0769
 8299W        W24193   7.672   4.112   5.080 -0.0822 -0.2638 -0.1559
 8300W        W24194   6.020   7.184  15.605 -0.2972 -0.0552  0.0039
 8301W        W24195   4.414   4.754  15.507 -0.0491  0.0730  0.0001
 8302W        W24196   9.006  17.716  12.519 -0.0818 -0.3708  0.2218
 8303W        W24197  13.536  10.959   2.799  0.3502  0.0217 -0.0170
 8304W        W24198  10.771   4.254   1.924 -0.0019  0.1169 -0.2832
 8305W        W24199   8.534   7.788   1.897  0.1769 -0.3225 -0.0023
 8306W        W24200  11.554  17.388   5.655  0.1663 -0.0756 -0.0748
 8307W        W24201   2.449   8.006   3.560 -0.1123  0.1314  0.0020
 8308W        W24202   3.622   3.974   5.474  0.0318 -0.1381  0.0515
 8309W        W24203  13.456  16.654   4.584 -0.2147 -0.3930  0.0192
 8310W        W24204   9.965   7.651   0.340  0.0618 -0.1836 -0.1177
 8311W        W24205   5.567   5.201  14.159 -0.0310 -0.1133 -0.2813
 8312W        W24206  10.783   3.603  12.426  0.0322 -0.2074 -0.2271
 8313W        W24207  15.770  17.969  11.642 -0.0292 -0.0750 -0.3331
 8314W        W24208  13.321   6.972  15.508  0.0216 -0.2304  0.1901
 8315W        W24209   6.120   4.530   2.941 -0.4898 -0.1023 -0.0356
 8316W        W24210  16.521   4.891   5.904  0.1068  0.0821  0.1112
 8317W        W24211   1.498   5.283  14.936 -0.0806  0.2363 -0.0225
 8318W        W24212  15.494  13.876  14.247  0.2079 -0.1255  0.1902
 8319W        W24213   3.941  15.763  12.109 -0.3367  0.2460 -0.1495
 8320W        W24214  15.737   9.078   2.459  0.0882 -0.2622  0.0240
 8321W        W24215   8.187   1.937  11.385 -0.0540  0.1824  0.0052
 8322W        W24216  13.644   8.508  14.341  0.0326  0.0998  0.2657
 8323W        W24217  14.705   2.553  10.866  0.1386  0.0250  0.5289
 8324W        W24218  15.323   8.218   2.790 -0.1659 -0.2318  0.2021
 8325W        W24219   8.482  17.959   0.227 -0.0220 -0.0188 -0.1491
 8326W        W24220   9.695  14.295   2.730  0.1906  0.0657  0.1528
 8327W        W24221   3.781   4.009  11.618  0.3190  0.1150  0.2875
 8328W        W24222  11.087  11.880   0.205  0.0482 -0.3188 -0.1533
 8329W        W24223   4.061  16.992  14.166 -0.0821  0.1298  0.1447
 8330W        W24224   3.601  14.690  10.248  0.0320  0.1560 -0.0583
 8331W        W24225   8.531  17.731  13.436 -0.1394  0.0348  0.0785
 8332W        W24226  11.630  16.130   4.502  0.1118  0.0803 -0.0512
 8333W        W24227  11.027  18.522  12.746  0.2829 -0.0906 -0.2513
 8334W        W24228   3.867  16.236   0.689 -0.0556 -0.2663 -0.0512
 8335W        W24229  18.013  17.157   6.063 -0.2383  0.0974 -0.0933
 8336W        W24230  18.196  14.056  11.434 -0.0410 -0.0638 -0.1336
 8337W        W24231   1.677  15.918  14.261 -0.3162 -0.1492  0.2793
 8338W        W24232   9.976   7.136  11.024  0.1060 -0.0642 -0.0114
 8339W        W24233  17.660   9.975  13.266 -0.0031 -0.1204  0.2030
 8340W        W24234   4.278   6.377   1.785 -0.0397 -0.0632 -0.3025
 8341W        W24235   6.126  14.799  13.799  0.1131 -0.0692  0.1308
 8342W        W24236   3.632  18.683  14.167 -0.2906 -0.3139  0.1273
 8343W        W24237  14.212   0.705  14.194 -0.0256  0.1011 -0.1766
 8344W        W24238   8.615  13.396   4.144 -0.1091 -0.0876 -0.0056
 8345W        W24239  13.723  11.149  14.113  0.1761 -0.0353  0.1103
 8346W        W24240  11.181   3.306  13.409  0.3085 -0.2226 -0.0459
 8347W        W24241   5.486  11.427   0.782  0.1367 -0.2738  0.0227
 8348W        W24242   6.439  16.877  13.709  0.1856 -0.0038 -0.3246
 8349W        W24243   6.297   1.274   2.097  0.1739  0.1232  0.1036
 8350W        W24244   4.126  11.268  13.563  0.4770 -0.2195  0.1835
 8351W        W24245  13.912  10.383   4.480 -0.2267 -0.0039  0.0394
 8352W        W24246   7.139   3.994   0.231 -0.0534  0.0691 -0.1928
 8353W        W24247  17.393   0.046   1.295 -0.1281  0.3121  0.0409
 8354W        W24248   1.569   1.840   2.081 -0.2438  0.2303  0.0926
 8355W        W24249  18.515  13.219  12.005 -0.0782  0.0518  0.3469
 8356W        W24250  17.254   9.482  13.909  0.1937 -0.3157 -0.3040
 8357W        W24251  15.516   7.617  12.629 -0.2823  0.1910 -0.0543
 8358W        W24252   6.185  17.265   3.962  0.0722  0.3057  0.0714
 8359W        W24253  10.137   8.618  13.891  0.1534  0.0424 -0.1326
 8360W        W24254  11.505  13.430   2.038  0.0609  0.3189  0.3640
 8361W        W24255  10.189  10.565   2.675  0.0539  0.3935 -0.1610
 8362W        W24256  17.293   6.503   2.685  0.0031 -0.1585  0.2850
 8363W        W24257   8.285  16.852   1.213  0.1526 -0.1875 -0.0082
 8364W        W24258  11.946  12.665   5.680  0.1966  0.0066 -0.0342
 8365W        W24259  14.363   9.132   4.267  0.2737 -0.0574 -0.1260
 8366W        W24260   5.401   2.781   3.998 -0.3617 -0.2693 -0.3129
 8367W        W24261  16.113  16.498  13.222  0.0510  0.2242 -0.2388
 8368W        W24262   8.172  10.156  15.290 -0.0423 -0.0980 -0.3253
 8369W        W24263  13.539  17.687  13.976  0.2604  0.1132  0.0473
 8370W        W24264  13.871  15.241  11.519  0.0536 -0.0192 -0.0059
 8371W        W24265   9.413  12.292  11.723 -0.0096 -0.1222 -0.1523
 8372W        W24266   3.378   6.061  13.049 -0.5546 -0.1109 -0.0648
 8373W        W24267   1.715  10.998   1.454  0.1673  0.0765  0.0761
 8374W        W24268  10.559  18.536   4.579  0.1225 -0.0230 -0.2947
 8375W        W24269   5.323  14.272  13.567 -0.3126 -0.2248 -0.2101
 8376W        W24270  13.364   8.059   5.410 -0.4586  0.1396 -0.0416
 8377W        W24271  11.275   8.270  11.392 -0.0114 -0.0567  0.1064
 8378W        W24272  13.177  12.219   1.537 -0.1911  0.1670 -0.3424
 8379W        W24273  16.007   1.997  11.211 -0.0195  0.0373  0.1760
 8380W        W24274  13.825   1.709   1.453  0.1392  0.0086 -0.2002
 8381W        W24275  14.486   1.461   1.848  0.0157 -0.0838  0.1578
 8382W        W24276   7.624   6.592   1.757  0.0981 -0.0497  0.2124
 8383W        W24277   3.266  13.640  15.002 -0.0923 -0.0100  0.0852
 8384W        W24278   4.908   9.747  11.091 -0.2648 -0.1542  0.1464
 8385W        W24279  12.819   4.372   4.851 -0.1721  0.1871 -0.0896
 8386W        W24280  13.534  12.252   1.939 -0.3118  0.0092 -0.1414
 8387W        W24281  15.154   4.475  13.102  0.0884 -0.1762 -0.0672
 8388W        W24282  17.215   9.712   5.260  0.2180  0.0310 -0.1618
 8389W        W24283   4.488  10.085  13.170  0.1224 -0.0545  0.1354
 8390W        W24284   0.835   9.621   1.561  0.0116  0.1865 -0.1797
 8391W        W24285   0.479   9.436  10.380 -0.0466  0.2024  0.1861
 8392W        W24286  10.565   0.244  11.615 -0.1901 -0.0407  0.3311
 8393W        W24287   2.873   8.650   4.050 -0.0588 -0.1768 -0.2730
 8394W        W24288  17.667  17.911   3.874 -0.1042 -0.0225  0.0356
 8395W        W24289   6.944  16.743  13.314  0.1960  0.2549 -0.0508
 8396W        W24290  13.457   2.966   5.529  0.0272  0.1481  0.0579
 8397W        W24291  15.534  10.585   0.010  0.0113 -0.3822 -0.1070
 8398W        W24292  12.547  10.879  13.311 -0.1989  0.2544 -0.1533
 8399W        W24293   0.911   0.458  12.237 -0.0972  0.5371 -0.2911
 8400W        W24294   1.880   3.831   2.102  0.2085  0.1536  0.0368
 8401W        W24295   7.815  16.346   1.662  0.2032 -0.0210 -0.0897
 8402W        W24296  15.959   2.542   4.271 -0.0151 -0.1191 -0.2405
 8403W        W24297   5.542  16.132   5.096 -0.1688  0.3521 -0.0507
 8404W        W24298  16.335   5.231  14.291 -0.0427 -0.0968 -0.0135
 8405W        W24299   9.740  11.175   1.179  0.0492 -0.0970 -0.0821
 8406W        W24300  13.276  12.418   0.648 -0.0174 -0.1665  0.1814
 8407W        W24301   1.822   5.784  12.265 -0.2124 -0.1639 -0.1018
 8408W        W24302  17.666   5.319   4.070  0.1993  0.0932  0.1422
 8409W        W24303  11.045   5.703  13.771  0.2276 -0.0311 -0.0957
 8410W        W24304  11.021   2.648  12.729 -0.0317  0.2286 -0.2871
 8411W        W24305   6.651  10.362   5.929  0.0313  0.0706 -0.0537
 8412W        W24306   0.110  14.861   0.181  0.0293 -0.1915 -0.0219
 8413W        W24307   2.312  11.369  12.735 -0.0077 -0.0506 -0.4253
 8414W        W24308   2.091   6.627  14.930 -0.1070  0.0368 -0.1183
 8415W        W24309   0.935   1.963   1.572 -0.2071 -0.3230  0.0308
 8416W        W24310   7.021   4.250  12.802  0.2099 -0.2468  0.0598
 8417W        W24311   6.058  17.485   4.840 -0.5502 -0.1314 -0.0308
 8418W        W24312  12.572  17.475  14.825  0.0705  0.1713 -0.3728
 8419W        W24313  14.871   5.699   2.392  0.2403 -0.2451  0.1742
 8420W        W24314   4.022   7.403   1.447 -0.4357  0.1271 -0.4205
 8421W        W24315  17.941   9.871   5.889  0.1504  0.1883 -0.2936
 8422W        W24316  12.183  14.910  12.449 -0.0877 -0.4228  0.1591
 8423W        W24317  16.845   3.450   2.471  0.0081  0.1983  0.0874
 8424W        W24318  12.443   6.098   1.730  0.3275 -0.0588 -0.1900
 8425W        W24319   0.012   0.970   3.500 -0.2966  0.2077  0.2446
 8426W        W24320   0.640   8.486   5.367 -0.0140  0.1175 -0.1204
 8427W        W24321  15.582   1.450   4.572 -0.0479  0.1850  0.2869
 8428W        W24322   7.369   3.652   3.144 -0.0006 -0.1398  0.1699
 8429W        W24323  12.240  14.551  11.211 -0.0551  0.0952 -0.0066
 8430W        W24324  13.699   1.369  11.323  0.0899  0.5582 -0.2643
 8431W        W24325   2.457  11.420   5.951 -0.1576 -0.0681 -0.1894
 8432W        W24326   9.281   3.753   0.853  0.0865  0.1672 -0.2424
 8433W        W24327   0.614  16.097   2.808  0.1634 -0.2233  0.3806
 8434W        W24328   0.482   5.114  11.519  0.0004  0.3341  0.3496
 8435W        W24329   7.194   6.905   5.480  0.0771  0.1269 -0.0810
 8436W        W24330   6.145   9.970  14.617 -0.3419 -0.0612  0.1343
 8437W        W24331   9.470  12.140   5.097 -0.3401 -0.0799 -0.1057
 8438W        W24332   3.568  12.271   2.906  0.1758 -0.0586 -0.0206
 8439W        W24333   7.826   8.818  15.505  0.3554  0.0933 -0.0046
 8440W        W24334  12.820   8.519   2.069 -0.1607  0.0108 -0.1015
 8441W        W24335  13.182   6.876   5.049 -0.0521  0.0786  0.1114
 8442W        W24336   0.129   4.863   2.828  0.0294 -0.0750  0.0233
 8443W        W24337   4.987   0.016   3.633 -0.3019 -0.1973 -0.0156
 8444W        W24338   8.888  10.591   0.026 -0.1309 -0.1060 -0.0404
 8445W        W24339   0.540  15.085   1.771  0.0557 -0.2099 -0.0161
 8446W        W24340   8.102  15.143  12.110 -0.0624  0.0889 -0.2390
 8447W        W24341  12.825  10.535   5.131 -0.3415 -0.1733  0.1871
 8448W        W24342  15.943  13.056   3.681 -0.0852  0.1427 -0.0036
 8449W        W24343   2.769  11.035  11.664  0.1613  0.0652  0.1192
 8450W        W24344  15.924  14.768   5.025  0.3027 -0.0474  0.0480
 8451W        W24345  10.702  14.140   4.699 -0.2170  0.1901 -0.0035
 8452W        W24346   5.190  10.585   2.966 -0.3887 -0.0586  0.4050
 8453W        W24347  12.336  16.640  13.995  0.2493 -0.3721  0.0693
 8454W        W24348  17.113   6.326   3.643  0.4441 -0.0165 -0.0816
 8455W        W24349  16.938   9.382   3.213 -0.0522 -0.1472 -0.0261
 8456W        W24350  12.946  12.831  15.250 -0.0516 -0.1672 -0.2617
 8457W        W24351   2.179  14.440   1.515 -0.3913  0.2561  0.1536
 8458W        W24352  11.232   1.558  13.676  0.2072  0.0657  0.1893
 8459W        W24353   8.071   9.609   2.401 -0.2572 -0.4046  0.0037
 8460W        W24354  17.563   1.616  12.872 -0.0049  0.0548 -0.2467
 8461W        W24355   7.099  16.139   2.920  0.5309  0.3801 -0.1350
 8462W        W24356   8.124   8.556   4.330 -0.0410 -0.1680  0.0120
 8463W        W24357   1.390   3.397   4.659 -0.0316  0.2406 -0.0935
 8464W        W24358  18.759  11.419   2.475  0.0786 -0.0129 -0.0181
 8465W        W24359   2.494  16.795  12.275 -0.0870 -0.3193 -0.4472
 8466W        W24360   0.612   4.545  13.425  0.4190  0.0242  0.1174
 8467W        W24361  17.180   9.408  10.373 -0.1643 -0.3282  0.2694
 8468W        W24362   6.545   8.823  12.709 -0.2796  0.1778  0.0896
 8469W        W24363  13.857   9.124   2.476  0.0379 -0.0477  0.0081
 8470W        W24364   1.828   6.752   4.669  0.0564  0.2093 -0.1159
 8471W        W24365  14.232   1.585   4.822 -0.0681  0.0652 -0.0107
 8472W        W24366   5.047   1.589  14.890  0.0659 -0.0706 -0.1138
 8473W        W24367  17.196   5.498   2.687  0.0682 -0.1270  0.1067
 8474W        W24368   1.710   4.801  15.073  0.0997  0.1166  0.1591
 8475W        W24369  14.283  15.479  14.856  0.0372  0.0202 -0.0213
 8476W        W24370  17.416   0.054  13.704 -0.0265 -0.0898 -0.2905
 8477W        W24371   6.628  10.829  15.200 -0.2477 -0.0076  0.1228
 8478W        W24372   2.024   1.965  11.169 -0.3236  0.2369 -0.0936
 8479W        W24373   4.971  16.850   2.464  0.0377  0.1846 -0.0755
 8480W        W24374  16.462  16.991   4.633 -0.1508 -0.0088  0.3395
 8481W        W24375   8.808  18.353   1.503  0.1822  0.2199  0.2593
 8482W        W24376  14.498   3.332  11.398  0.1727 -0.1467  0.0285
 8483W        W24377   6.690  14.959   2.172  0.0225 -0.1263  0.1188
 8484W        W24378  15.728   2.386   2.643  0.1919 -0.1541 -0.0621
 8485W        W24379  10.087  13.913   3.709 -0.1356 -0.1306 -0.1836
 8486W        W24380   8.206  14.639   5.007  0.0209 -0.1225 -0.0972
 8487W        W24381   7.340  14.642   4.805 -0.1926 -0.0024 -0.0072
 8488W        W24382   4.849   8.220  12.366 -0.0928 -0.0994  0.0623
 8489W        W24383   1.508  16.518  13.702 -0.3761  0.0748 -0.0449
 8490W        W24384   8.401  16.375  14.776  0.0373 -0.2343 -0.0791
 8491W        W24385   0.764  14.147   4.667  0.0475 -0.3676  0.1108
 8492W        W24386   8.289  15.864  11.188  0.3717  0.0499  0.1089
 8493W        W24387  12.568   8.068   2.283 -0.1134  0.0929 -0.3524
 8494W        W24388  15.273   7.563   2.568 -0.1179  0.3197 -0.2720
 8495W        W24389  14.957   5.638  11.449  0.2436  0.0707 -0.2314
 8496W        W24390   4.745  17.008  10.759 -0.2954  0.0338 -0.1347
 8497W        W24391   8.146   6.165  12.256  0.1532 -0.1270 -0.0155
 8498W        W24392  12.231   0.271  13.739  0.1779 -0.1082  0.0481
 8499W        W24393   6.242   5.125  12.168  0.0295  0.3750  0.1124
 8500W        W24394   7.244  18.084  15.399 -0.0456  0.0181 -0.1134
 8501W        W24395   4.047   2.081  14.746  0.1893  0.0733  0.2997
 8502W        W24396   5.279  10.100  12.117 -0.1662  0.0910 -0.2739
 8503W        W24397   2.048   0.102   1.348  0.2210 -0.4976 -0.2341
 8504W        W24398  13.181   3.748  11.328  0.1296 -0.0556  0.0295
 8505W        W24399   0.365   3.240  10.971 -0.1548  0.1217  0.1376
 8506W        W24400  16.324   6.072  11.717  0.3291  0.0091  0.1248
 8507W        W24401   1.309  15.521   0.185 -0.0921 -0.1852  0.1915
 8508W        W24402  13.434  10.178  11.568  0.0339  0.0780 -0.0826
 8509W        W24403   2.832  14.202   4.266 -0.0410 -0.0059 -0.0926
 8510W        W24404  12.616   4.666  15.613 -0.0305  0.0580  0.0030
 8511W        W24405  11.522   9.886   3.495 -0.0069 -0.2879 -0.0266
 8512W        W24406   6.256  12.862  15.153 -0.1866  0.0984 -0.3635
 8513W        W24407  14.300   4.185  11.197  0.0991  0.1362 -0.1774
 8514W        W24408   2.487   2.669  13.479 -0.3703 -0.0393 -0.0840
 8515W        W24409   1.242   1.695   5.044 -0.0198 -0.1336 -0.0361
 8516W        W24410   8.619   7.822   0.725  0.2448  0.0578 -0.3193
 8517W        W24411  16.684   3.793  11.563 -0.0306  0.0019  0.2973
 8518W        W24412  11.327  16.713   3.922  0.3451  0.2182  0.0649
 8519W        W24413   8.221   1.907  13.841 -0.1364  0.1250 -0.0607
 8520W        W24414   6.577   9.071   1.238 -0.0266  0.0095  0.0805
 8521W        W24415  17.996   7.922  11.219  0.0020  0.0706 -0.0663
 8522W        W24416   9.967  17.388  15.035  0.0347  0.2422  0.0935
 8523W        W24417   7.948  16.104   4.147 -0.2531  0.2318 -0.0463
 8524W        W24418   4.246  16.201  11.101  0.2678  0.2678 -0.0586
 8525W        W24419  15.357   3.587   3.854  0.1058 -0.0795  0.1116
 8526W        W24420   9.348  15.853   0.469 -0.0101  0.0385  0.1695
 8527W        W24421   7.101  14.169  13.866  0.0122 -0.1346  0.0610
 8528W        W24422   6.548   3.582  10.785  0.0115 -0.0330 -0.1374
 8529W        W24423  16.688  14.751   1.631  0.1141 -0.2618 -0.2911
 8530W        W24424  12.033  16.739   2.886 -0.3759 -0.0405  0.0866
 8531W        W24425  17.691  13.684   0.579  0.2451  0.2669 -0.0570
 8532W        W24426   3.937   5.199  14.613  0.2794  0.0773 -0.0023
 8533W        W24427   4.879  14.906   2.303 -0.2486  0.2480  0.3127
 8534W        W24428  10.982   9.580   5.172 -0.3410 -0.0588 -0.2276
 8535W        W24429  12.722   5.331   3.945  0.0779 -0.0171 -0.0546
 8536W        W24430  15.570  11.210  12.164 -0.0822 -0.3108 -0.2281
 8537W        W24431   3.326   9.591   1.275 -0.0139  0.0522 -0.2211
 8538W        W24432   4.968  12.144   2.940  0.0485  0.1229  0.0484
 8539W        W24433   1.710   1.893   5.182 -0.1105 -0.2252 -0.0241
 8540W        W24434   8.422  14.393   1.603 -0.0194 -0.1332 -0.3818
 8541W        W24435   6.474  17.379  14.173 -0.3205 -0.2331  0.2546
 8542W        W24436  18.026   2.193   2.683 -0.0354 -0.0991  0.0146
 8543W        W24437  14.258  11.678   5.969  0.3127  0.0105  0.0583
 8544W        W24438   4.024  14.461   3.000 -0.1274  0.0625 -0.0915
 8545W        W24439  13.815  15.328  12.060 -0.1840 -0.1296  0.1525
 8546W        W24440  17.654   2.154   1.089 -0.0484 -0.0493 -0.0789
 8547W        W24441  14.366  17.322   2.991  0.0486 -0.1475 -0.2285
 8548W        W24442  11.628  10.125   1.082 -0.1879 -0.1233  0.0307
 8549W        W24443  10.178  18.728  14.529  0.1402 -0.1188  0.1589
 8550W        W24444   0.911  15.762   0.321 -0.0230 -0.1481  0.1111
 8551W        W24445   1.132   7.079  13.690  0.1004  0.0365  0.0847
 8552W        W24446  17.024   5.238   4.902  0.1661 -0.1501 -0.0204
 8553W        W24447  14.435  12.134   5.636 -0.1723  0.0912 -0.1259
 8554W        W24448  14.762  11.438   1.247  0.0346  0.0191  0.2359
 8555W        W24449  12.460  11.636  15.589  0.0933 -0.2008  0.0876
 8556W        W24450   4.272  14.876   9.245 -0.1834 -0.1938 -0.0366
 8557W        W24451   8.457   3.148   1.585 -0.0377  0.1265 -0.0042
 8558W        W24452   5.569   9.447   3.087  0.2096  0.1676 -0.0465
 8559W        W24453   4.210  13.688   4.306 -0.0799  0.0421  0.1201
 8560W        W24454   0.767  18.733  13.769  0.0318  0.1651  0.4896
 8561W        W24455  14.060   4.482  12.167 -0.0234 -0.1392  0.0868
 8562W        W24456   0.584   6.041   5.598 -0.1462  0.1581 -0.2264
 8563W        W24457  14.815   3.257  14.956 -0.0547  0.4979  0.0019
 8564W        W24458   4.208   6.281   2.292 -0.0945 -0.0825 -0.1957
 8565W        W24459  17.629  13.093   4.037  0.2002  0.0705 -0.4004
 8566W        W24460   2.336  13.519   2.983  0.2606 -0.3678 -0.3900
 8567W        W24461  15.621   9.539  11.912  0.5154 -0.2195  0.3175
 8568W        W24462   9.116  12.978   0.017 -0.0727 -0.0976 -0.3840
 8569W        W24463   4.623   6.937  15.085  0.3277  0.0518  0.0477
 8570W        W24464   8.752  12.238  13.883  0.0414 -0.2199 -0.0350
 8571W        W24465   9.831   8.291   0.884  0.1143  0.2722  0.0477
 8572W        W24466  14.648  13.702   3.088  0.0886  0.3486 -0.1238
 8573W        W24467  10.858  13.254  15.317 -0.2220  0.1043  0.0923
 8574W        W24468  16.532   2.348   1.588  0.0356  0.2627  0.1642
 8575W        W24469   4.140  10.232   1.194 -0.2742 -0.2298  0.2413
 8576W        W24470   8.294   6.273   1.901 -0.0251 -0.1246  0.2871
 8577W        W24471   9.339   0.586  13.144 -0.1363 -0.1610  0.0413
 8578W        W24472   8.960   9.550  13.600  0.0151  0.1400  0.0222
 8579W        W24473  18.612   5.176   2.458 -0.0713 -0.0626  0.2249
 8580W        W24474   5.146   9.673   9.534 -0.1617  0.2718  0.1281
 8581W        W24475  10.921   5.186   3.788 -0.3271  0.3196  0.2254
 8582W        W24476  14.927  15.793   1.686  0.1768 -0.0788 -0.0314
 8583W        W24477  12.444   7.540   5.177 -0.2957 -0.1307 -0.1814
 8584W        W24478  17.781  14.733  13.003 -0.0937  0.1613  0.4074
 8585W        W24479   0.801   8.541   1.763 -0.1114  0.2442 -0.1153
 8586W        W24480  14.764  16.275   1.841 -0.3270  0.2796  0.1567
 8587W        W24481   5.565   5.571  11.152 -0.2787 -0.0695  0.1916
 8588W        W24482  18.111  12.489  12.741  0.3872 -0.3185 -0.2253
 8589W        W24483   5.870   4.388  11.914 -0.3001  0.1084 -0.0600
 8590W        W24484   2.361   1.289  13.506 -0.3164  0.0688  0.0003
 8591W        W24485   5.669   6.050  10.469 -0.2172  0.1510 -0.3357
 8592W        W24486   7.597   4.421  11.905 -0.2084  0.3476  0.1009
 8593W        W24487   1.058   1.584   1.234  0.1491 -0.1390 -0.0151
 8594W        W24488   8.526   3.609  11.849  0.0822  0.1277 -0.1182
 8595W        W24489   1.959   4.966   1.573  0.0311 -0.2240 -0.0925
 8596W        W24490   8.239   3.709  14.645 -0.1946 -0.1519  0.0326
 8597W        W24491   8.520   4.242   2.012  0.0327  0.0587  0.2179
 8598W        W24492   0.121   4.881  11.857  0.1700  0.1797  0.1700
 8599W        W24493   8.111  15.293  13.380 -0.0418 -0.1952 -0.2379
 8600W        W24494  18.711   8.267  10.439 -0.0900  0.2785 -0.1151
 8601W        W24495   2.278   4.114  11.979 -0.1977  0.1887  0.0209
 8602W        W24496  16.771   5.194  11.830 -0.1248  0.0314  0.1483
 8603W        W24497  17.171  11.036   4.647  0.1633 -0.0144 -0.2498
 8604W        W24498  15.563  13.028  15.165  0.1591  0.0073  0.4533
 8605W        W24499  16.241  10.465   0.557 -0.1079  0.2850 -0.0492
 8606W        W24500  13.043   1.684   5.450 -0.0826 -0.2774  0.2703
 8607W        W24501  11.429  11.501   6.322 -0.0931 -0.0371  0.0238
 8608W        W24502  18.662  15.325  10.542  0.0761  0.0949  0.3177
 8609W        W24503  10.027  16.775  12.725  0.0987  0.1666  0.2644
 8610W        W24504   5.549   1.335   1.616 -0.0093  0.1032 -0.0199
 8611W        W24505  14.852  11.768   1.620  0.0248  0.0640 -0.2232
 8612W        W24506  16.614  12.324   2.705  0.1581  0.0546 -0.1926
 8613W        W24507  10.539   1.583  13.677 -0.3852  0.0204 -0.2586
 8614W        W24508  17.857  14.394  12.092  0.1555 -0.1594 -0.1546
 8615W        W24509   5.518  12.559  11.426 -0.0443 -0.1952 -0.0628
 8616W        W24510   6.807   0.588  14.612 -0.3289 -0.1544 -0.2845
 8617W        W24511  16.457   4.918   4.092 -0.0980 -0.0661  0.2043
 8618W        W24512  10.682   3.554  14.963 -0.3162  0.0354  0.1495
 8619W        W24513   6.218  17.402  13.062 -0.1123  0.1334  0.2985
 8620W        W24514  16.821  14.132  13.935 -0.0663 -0.0829 -0.1101
 8621W        W24515   4.028   4.253  12.750 -0.1900 -0.1092  0.0443
 8622W        W24516  17.648  16.810  13.028  0.0369  0.1584  0.3125
 8623W        W24517   1.744   0.791   1.168  0.0658 -0.0455  0.0221
 8624W        W24518   7.249   8.749   3.810  0.0397  0.3364  0.0628
 8625W        W24519   6.075   3.013  15.552  0.2672  0.1036 -0.0129
 8626W        W24520   9.531   5.769   1.051  0.0234  0.1434 -0.0725
 8627W        W24521   3.065  14.858   2.288  0.0464 -0.1689 -0.0759
 8628W        W24522   7.001   9.915  14.380 -0.0507  0.2654  0.0263
 8629W        W24523  13.043   5.733  14.282 -0.1100  0.0862  0.1813
 8630W        W24524  18.262   5.873   1.122  0.0237 -0.1506  0.1290
 8631W        W24525   2.417   3.172  11.157  0.1141 -0.0083  0.3603
 8632W        W24526   9.577  18.449  12.403  0.5339  0.2607 -0.0722
 8633W        W24527  13.704  11.397  13.565  0.0854 -0.3433 -0.0237
 8634W        W24528   1.497   4.991   1.288  0.0111 -0.2224 -0.1043
 8635W        W24529   3.191   9.386  12.064 -0.3928 -0.0510  0.4607
 8636W        W24530   9.784  16.679   4.113 -0.1625  0.0055 -0.2102
 8637W        W24531  14.880   2.545  12.844 -0.0401 -0.2986  0.3355
 8638W        W24532   3.953  10.299  11.662  0.0259  0.1354 -0.2047
 8639W        W24533   5.109  11.689   2.501  0.0596  0.0513  0.0807
 8640W        W24534   2.173  18.063  12.189  0.4826  0.0888 -0.0075
 8641W        W24535   0.210  15.177  11.309 -0.1080  0.2237 -0.2674
 8642W        W24536  11.126   7.875  13.765 -0.0708  0.0220  0.1621
 8643W        W24537   9.471  10.804   4.491 -0.1849  0.0658  0.2858
 8644W        W24538   2.335   2.737   2.583  0.0441 -0.1004 -0.1060
 8645W        W24539  14.268   3.250   1.487  0.1705 -0.1093  0.2460
 8646W        W24540  11.115  17.461  12.276  0.0077 -0.0929 -0.0024
 8647W        W24541   5.814  10.218  12.988 -0.3379  0.3853 -0.0682
 8648W        W24542  17.166  13.865   1.313  0.0952 -0.1217  0.0065
 8649W        W24543  11.758   2.735   4.061 -0.1032  0.0439 -0.2906
 8650W        W24544  13.074  15.071  15.602 -0.0057 -0.0268 -0.1769
 8651W        W24545   2.528   2.217  11.107 -0.0258 -0.1386  0.2309
 8652W        W24546  17.467   8.240   2.633  0.0664 -0.0833 -0.1598
 8653W        W24547   9.921   0.184   2.068  0.1577 -0.1330  0.1030
 8654W        W24548  18.040   3.888   0.818  0.2444 -0.3724 -0.1389
 8655W        W24549  15.556  11.440  14.057  0.0723  0.2919 -0.0865
 8656W        W24550   6.742  10.101   2.467 -0.0337 -0.3118  0.0942
 8657W        W24551   0.876  12.516   4.112  0.1781  0.2464 -0.2329
 8658W        W24552   6.789   5.685   3.066 -0.1593 -0.1288 -0.0282
 8659W        W24553  10.622   0.697  11.856 -0.0048  0.2265 -0.3140
 8660W        W24554   2.026   4.082  12.937 -0.5170  0.2313 -0.1156
 8661W        W24555   6.397   2.630  10.799 -0.0445 -0.3767  0.0105
 8662W        W24556  11.246  12.078   2.142 -0.0288  0.0452 -0.1462
 8663W        W24557   4.194  17.657   3.817 -0.2179  0.1308 -0.1498
 8664W        W24558   0.182   9.729  13.378  0.1097 -0.1721  0.3823
 8665W        W24559  16.326   4.877  11.966  0.3944  0.0477  0.2368
 8666W        W24560   9.252   6.332  11.503 -0.1264  0.2541  0.1665
 8667W        W24561  16.683  17.814  12.738 -0.1310  0.0927  0.0208
 8668W        W24562  10.239  11.706   1.957 -0.1512  0.0304  0.0845
 8669W        W24563   0.392  12.363   3.814 -0.0017 -0.2066 -0.1477
 8670W        W24564  14.761   8.169  15.291  0.1084 -0.0904 -0.0986
 8671W        W24565   0.175  13.494  12.953 -0.1108 -0.2634 -0.0023
 8672W        W24566   1.578   8.377   4.204 -0.0225 -0.1364  0.0339
 8673W        W24567   3.598  10.497  11.224  0.1024  0.3964  0.4753
 8674W        W24568   7.351   8.608  11.955  0.0517  0.0268  0.1034
 8675W        W24569   8.986  18.457   2.037 -0.0329  0.3140  0.0981
 8676W        W24570  13.630  10.954   0.801  0.0098  0.0890  0.1259
 8677W        W24571   8.852  17.202  12.714  0.0617  0.1684 -0.1422
 8678W        W24572  10.755  16.927   1.844 -0.0461  0.3438  0.0029
 8679W        W24573   3.694   6.773   4.339 -0.1367  0.3031 -0.1158
 8680W        W24574   3.892   7.194   3.683 -0.0762  0.1275 -0.1814
 8681W        W24575   5.013   5.655   3.742 -0.3146  0.1872 -0.0671
 8682W        W24576  14.858  17.850  12.573 -0.1515 -0.2689  0.1118
 8683W        W24577   2.014   2.384  13.350 -0.1404  0.2370 -0.0535
 8684W        W24578  18.204   5.861  14.241  0.1680 -0.0852 -0.3490
 8685W        W24579  12.124   1.151   5.137 -0.1002 -0.0597 -0.1524
 8686W        W24580   2.313   9.872   1.493  0.1219 -0.3538 -0.1533
 8687W        W24581  11.833   5.267  14.767 -0.0790 -0.1978  0.3183
 8688W        W24582   3.716   7.172  12.941 -0.0853  0.0486 -0.0303
 8689W        W24583  17.424   0.617   0.057 -0.5476 -0.2150  0.2377
 8690W        W24584   2.082  17.840  10.881  0.3296  0.0910 -0.2192
 8691W        W24585  13.558   7.668  14.557 -0.0192 -0.1029  0.0733
 8692W        W24586   7.799  14.144  14.664 -0.0890  0.1262  0.3456
 8693W        W24587   3.302  13.698  10.675 -0.0270 -0.0742  0.1210
 8694W        W24588   6.499   9.475   1.463 -0.4370  0.0942 -0.0946
 8695W        W24589  13.813   9.859   3.899 -0.1165  0.2333  0.0585
 8696W        W24590  17.020   7.235  13.308 -0.3253  0.1310 -0.0464
 8697W        W24591   4.567   5.945   0.898 -0.1538 -0.3628  0.1351
 8698W        W24592   0.446   8.859  11.438  0.1148 -0.0388 -0.2884
 8699W        W24593  17.199   3.531   2.082 -0.0400  0.2208  0.1385
 8700W        W24594  18.254   0.255  13.064  0.0540  0.0392  0.2757
 8701W        W24595  17.462  16.981  15.300  0.3543  0.0415 -0.0440
 8702W        W24596  15.080  14.180   5.410  0.4175 -0.2338 -0.0413
 8703W        W24597  16.002  11.793   5.374 -0.0623  0.3081  0.4672
 8704W        W24598   6.643   1.158  13.690 -0.0725 -0.2543 -0.3019
 8705W        W24599  15.934   1.641  14.804  0.0759  0.2082  0.2951
 8706W        W24600   4.124  18.692  13.237 -0.1872 -0.1003 -0.0174
 8707W        W24601   3.930   2.347   0.387  0.0492 -0.1411 -0.3144
 8708W        W24602   0.898   6.119   4.801  0.0051  0.3532 -0.2352
 8709W        W24603  10.746   4.735   2.597  0.0385 -0.3681 -0.2130
 8710W        W24604   2.782  13.464  14.834 -0.4424 -0.0778  0.1585
 8711W        W24605   2.534  18.185   3.297  0.0713 -0.0506 -0.0852
 8712W        W24606  17.971  17.013   3.741 -0.0550  0.0176 -0.1427
 8713W        W24607   3.980   2.860  13.002 -0.3074 -0.0515  0.2200
 8714W        W24608   5.277   3.676   0.127 -0.3300  0.0437 -0.1601
 8715W        W24609   1.711  17.497   0.160  0.0982  0.1125 -0.5420
 8716W        W24610   2.213   9.253   2.766  0.1384 -0.3220 -0.1284
 8717W        W24611  12.686   5.547  11.835  0.4211  0.0191 -0.0233
 8718W        W24612   3.096  10.746  12.369 -0.4587 -0.0423 -0.3024
 8719W        W24613  18.170  16.084   3.759 -0.2098  0.3153 -0.0407
 8720W        W24614   8.494  10.262   4.696  0.0930  0.0293 -0.1225
 8721W        W24615  11.845   1.232  15.198 -0.0136 -0.3019  0.0707
 8722W        W24616   4.777   7.948  11.406 -0.0187 -0.2282 -0.3509
 8723W        W24617  14.357  17.050   1.473  0.1499 -0.3237  0.1347
 8724W        W24618   0.230   0.151   1.838  0.2363  0.2038 -0.0269
 8725W        W24619  12.076   4.871  11.518 -0.0137  0.3087  0.3822
 8726W        W24620  16.480  12.843  13.730 -0.5023  0.0259  0.4142
 8727W        W24621   6.453   0.984  11.888 -0.0572  0.1915 -0.1891
 8728W        W24622  18.762  12.065  10.794 -0.2087 -0.1306  0.6059
 8729W        W24623  13.977   0.403  10.962  0.1202 -0.2432 -0.0899
 8730W        W24624   5.543   2.527  14.172 -0.0755  0.0707 -0.0936
 8731W        W24625  14.801   8.095   1.150  0.0475  0.2557 -0.0848
 8732W        W24626  12.733  17.264   5.509 -0.1879  0.1824  0.1280
 8733W        W24627   3.241   7.348   3.675  0.2656  0.1142  0.1362
 8734W        W24628   1.398   9.057   1.129  0.0786 -0.0189  0.2640
 8735W        W24629   3.923  18.196  11.769  0.0918 -0.0964  0.2106
 8736W        W24630   3.071  17.631  10.885 -0.4908 -0.0435 -0.1253
 8737W        W24631  18.575   4.438   5.635  0.2608 -0.3889 -0.1158
 8738W        W24632   1.604  16.457  14.199  0.1475  0.1771  0.4860
 8739W        W24633  11.365  12.106  14.786  0.0229 -0.2534  0.5268
 8740W        W24634  14.411   4.106  11.756 -0.1862 -0.1675  0.0573
 8741W        W24635   0.510  14.825  11.088 -0.4321  0.1404 -0.0765
 8742W        W24636  14.833   9.024  13.562  0.1445 -0.1613  0.3313
 8743W        W24637  14.906   7.254  15.211  0.1162 -0.2289 -0.2533
 8744W        W24638  13.435   3.535   1.298 -0.4411 -0.0858 -0.2959
 8745W        W24639   5.890   9.657  14.235 -0.2316  0.1786 -0.0685
 8746W        W24640   3.629   5.873   1.506 -0.2017  0.2894 -0.0706
 8747W        W24641  17.344   5.220   4.508 -0.2065  0.2213 -0.0329
 8748W        W24642   2.587  17.178   2.128  0.1710 -0.3064 -0.4631
 8749W        W24643   1.635   0.373   0.020 -0.0601  0.0091 -0.2239
 8750W        W24644  16.217   0.884  15.017  0.0540  0.1945 -0.0566
 8751W        W24645   2.205  14.858   4.827 -0.2601  0.0677  0.2698
 8752W        W24646   2.508   9.189  11.364  0.1379  0.3336 -0.5434
 8753W        W24647  10.581   4.783   5.015 -0.0095 -0.0052 -0.0245
 8754W        W24648   8.106   4.647  12.016 -0.0821 -0.1061 -0.0030
 8755W        W24649   0.998  14.962  12.746  0.1569 -0.1896  0.0358
 8756W        W24650  18.714   7.861   5.060 -0.2925 -0.1481  0.0404
 8757W        W24651  16.255  13.108   3.241 -0.0214  0.1060 -0.2990
 8758W        W24652   3.928  17.136   4.570  0.0254 -0.0585  0.1158
 8759W        W24653  10.142  13.876   4.231  0.2633 -0.0787  0.2909
 8760W        W24654   4.627   2.233  13.962  0.0339 -0.0459  0.1228
 8761W        W24655  16.868   3.060  11.056  0.2685 -0.1730  0.1626
 8762W        W24656   7.669  15.922   6.111  0.0670 -0.0689  0.1114
 8763W        W24657   2.358   8.448  12.078 -0.0420  0.1891 -0.0530
 8764W        W24658   8.020  18.283  12.465  0.2245  0.3213  0.0648
 8765W        W24659   1.921  18.263   2.438 -0.3001  0.0878 -0.1544
 8766W        W24660  12.762   4.814  14.497  0.1402  0.1042 -0.0488
 8767W        W24661   6.267  15.482  10.403 -0.0677 -0.1579  0.1405
 8768W        W24662  10.101   5.011   3.388  0.4211  0.1175 -0.2783
 8769W        W24663  17.893   5.620   0.912  0.0370  0.2576 -0.2963
 8770W        W24664   5.145  17.462  14.435  0.0980  0.0577 -0.3121
 8771W        W24665  16.844  11.700   2.750  0.2566 -0.4268  0.1026
 8772W        W24666   3.103  16.265   2.186  0.0470  0.2146 -0.1912
 8773W        W24667  11.791  14.772  11.123 -0.1323  0.0521  0.1249
 8774W        W24668   2.177   6.426   1.699 -0.3346  0.0267 -0.1763
 8775W        W24669  18.058   4.674  15.410 -0.0557 -0.0263  0.2052
 8776W        W24670  13.843   0.358   1.894 -0.0509  0.2400  0.0103
 8777W        W24671   3.161   1.536  13.091  0.0035  0.2532  0.0263
 8778W        W24672  18.267  11.479  14.665  0.1486 -0.2502  0.2266
 8779W        W24673   5.518  11.296  11.469  0.0997 -0.1643 -0.0655
 8780W        W24674  18.021   8.995   2.720  0.1932 -0.0678 -0.1089
 8781W        W24675  12.848   5.705   0.839  0.0318 -0.1721 -0.1578
 8782W        W24676  15.137  17.666  14.099  0.0242  0.1296  0.1451
 8783W        W24677   3.556   3.091   5.403 -0.1300  0.0634 -0.0125
 8784W        W24678  14.535   9.054  12.681  0.0884 -0.0292  0.1731
 8785W        W24679   4.856  16.360   3.754 -0.3365  0.0541  0.1721
 8786W        W24680  17.069   5.707   2.257  0.0776 -0.0880 -0.0325
 8787W        W24681   0.502   3.118   0.168 -0.1191 -0.2887  0.0388
 8788W        W24682  16.446   0.724  12.879  0.0996  0.1215 -0.1722
 8789W        W24683   0.611   1.627  10.210 -0.1362 -0.0804 -0.0912
 8790W        W24684   1.766  10.834  10.500 -0.0073  0.1850  0.0077
 8791W        W24685   6.293   4.933   0.450 -0.0283  0.3677  0.1205
 8792W        W24686  15.433   7.822  11.260 -0.0759 -0.1264  0.0706
 8793W        W24687   7.853  15.444  12.423 -0.1509  0.0687 -0.1210
 8794W        W24688  11.604  13.802   4.314  0.1791  0.0676 -0.0032
 8795W        W24689  15.734  17.200   9.930  0.2023  0.2520  0.2118
 8796W        W24690  17.535   5.476   4.879 -0.0445  0.2228 -0.2569
 8797W        W24691  16.625  12.377   0.405  0.1663 -0.0245  0.1530
 8798W        W24692   5.047  16.549  13.244 -0.0386  0.1421 -0.4308
 8799W        W24693   4.600  15.880  12.192  0.2006  0.2198 -0.0286
 8800W        W24694  11.280   0.408  14.131  0.0789 -0.1116 -0.1366
 8801W        W24695   7.066  13.960   2.780  0.0367  0.1859  0.0127
 8802W        W24696   4.534  15.486   3.918 -0.0336 -0.0573 -0.1117
 8803W        W24697   9.313   8.977   1.088  0.0689 -0.1673  0.1681
 8804W        W24698   9.760   8.651  12.249 -0.2600 -0.1198 -0.0368
 8805W        W24699   3.355  10.740   0.637  0.0161 -0.0472  0.3262
 8806W        W24700  14.223   4.910  15.445 -0.0143 -0.2903  0.0843
 8807W        W24701  15.055   3.387  14.504  0.2708  0.1531 -0.0046
 8808W        W24702  18.021  13.462  13.202  0.1018  0.2543  0.2127
 8809W        W24703   2.603   8.587  13.359  0.5430  0.4100  0.0164
 8810W        W24704   1.849   7.760  12.776  0.3002 -0.2306 -0.3680
 8811W        W24705  16.757   8.633   0.028 -0.0835  0.0139  0.1032
 8812W        W24706  11.750  11.994  12.353 -0.0651  0.2152  0.0837
 8813W        W24707  12.388   1.941  14.186  0.1463 -0.0683  0.0068
 8814W        W24708   9.223  13.173   3.883 -0.2347 -0.0234  0.0685
 8815W        W24709   2.526   5.803   3.127  0.0448  0.1368  0.0572
 8816W        W24710  18.503   2.730  14.859  0.1204 -0.0755  0.2705
 8817W        W24711   2.080  17.244  13.833  0.2405 -0.0723 -0.0487
 8818W        W24712  10.103   2.499   3.138  0.0661 -0.0247 -0.2150
 8819W        W24713   3.335  15.292   2.218  0.2143  0.1128  0.2222
 8820W        W24714  13.985   6.914  11.112 -0.1575 -0.0825  0.0209
 8821W        W24715   2.668  11.697  10.308  0.4853 -0.3455 -0.0163
 8822W        W24716   2.678  11.294   3.877 -0.1785 -0.3349  0.0257
 8823W        W24717   6.764  15.855   2.672  0.3772  0.1856  0.1329
 8824W        W24718   8.265   8.569  14.085  0.4504 -0.2366 -0.1485
 8825W        W24719   8.961  17.252   1.354 -0.2291 -0.0494 -0.0108
 8826W        W24720   5.367  16.899   3.370 -0.1231 -0.1057 -0.2055
 8827W        W24721   7.304   3.077  14.546  0.0741 -0.0639 -0.0453
 8828W        W24722   7.379   5.680   4.398 -0.1222  0.1082  0.0103
 8829W        W24723   9.531   0.742   3.132 -0.2362 -0.0962 -0.2035
 8830W        W24724   5.713   0.528   2.505 -0.2001  0.2125 -0.2419
 8831W        W24725   5.125   8.700   1.871 -0.0122 -0.0693 -0.0637
 8832W        W24726   2.833   4.182  14.137  0.0862 -0.1130 -0.1089
 8833W        W24727   5.004  16.389   1.986  0.2620  0.2207  0.0316
 8834W        W24728  17.344   8.872   2.173 -0.1869  0.2424  0.0199
 8835W        W24729  17.561   9.007  13.803 -0.1362  0.0793  0.0972
 8836W        W24730   2.295  12.188   3.559 -0.1030  0.0498 -0.0051
 8837W        W24731   8.764   6.652   4.849  0.0615 -0.3170 -0.1106
 8838W        W24732  13.680   2.089   0.101  0.0385  0.0918 -0.2315
 8839W        W24733  15.461   4.800   5.282 -0.0638 -0.0195  0.0040
 8840W        W24734  10.219   1.849  11.078 -0.1519  0.1371 -0.4802
 8841W        W24735  10.665   2.222   1.466 -0.2032  0.0412 -0.1117
 8842W        W24736  10.392  17.469   2.980 -0.0223  0.1845 -0.3801
 8843W        W24737  14.529   2.531  13.293 -0.1908 -0.0979 -0.0033
 8844W        W24738   5.790   0.107  14.844 -0.2037  0.3933  0.3832
 8845W        W24739  12.138  16.941   5.189 -0.0733 -0.1376 -0.1459
 8846W        W24740   9.222   9.692   3.595  0.1057 -0.1132  0.1157
 8847W        W24741   0.688   0.523  12.678  0.0415  0.3549 -0.1533
 8848W        W24742  17.178   6.754  12.757 -0.3820  0.2604 -0.0575
 8849W        W24743  10.984  14.880  12.860  0.0371 -0.0225  0.0449
 8850W        W24744  10.706   2.186  12.563 -0.2877  0.0732 -0.0918
 8851W        W24745  18.299  11.776  11.552  0.1423  0.1614  0.1719
 8852W        W24746   6.051  17.759   4.257  0.1228 -0.1542  0.0005
 8853W        W24747   3.553   3.743  14.172  0.0547 -0.0310  0.0791
 8854W        W24748  16.911  18.013   1.451 -0.0581  0.0617  0.1765
 8855W        W24749   7.043   3.476  10.544 -0.0886  0.0149  0.0485
 8856W        W24750  14.781  16.747   1.659 -0.0067  0.1773  0.1172
 8857W        W24751  16.753   7.617   0.050 -0.1972 -0.2692  0.0872
 8858W        W24752   4.634  16.670  13.475  0.3590 -0.0880 -0.1470
 8859W        W24753   1.550  17.137   4.280  0.0260  0.0877 -0.0054
 8860W        W24754  17.687   6.996   4.837  0.0035  0.1128  0.1136
 8861W        W24755   8.057   4.308   1.705 -0.0212  0.1156  0.3231
 8862W        W24756  11.017   0.105   0.072  0.2501 -0.4071 -0.2361
 8863W        W24757   4.289   1.741   4.050 -0.0003 -0.1670  0.0348
 8864W        W24758  10.192  11.289  11.877 -0.0972  0.2524 -0.0177
 8865W        W24759  16.525   9.385   0.195  0.3655 -0.3353 -0.0483
 8866W        W24760  11.238  11.712  14.092  0.0786 -0.3395 -0.0842
 8867W        W24761  18.187  11.328   3.693  0.1471  0.0045  0.1868
 8868W        W24762  13.478  13.251  12.061 -0.2825 -0.2841 -0.2904
 8869W        W24763   7.548   5.465  13.244 -0.1398  0.1661  0.1592
 8870W        W24764  12.799   9.104  12.430  0.0749  0.0392 -0.1768
 8871W        W24765  14.426   2.468   2.956  0.1987  0.1515  0.0855
 8872W        W24766   1.806   5.172   4.185 -0.0108  0.1500  0.2457
 8873W        W24767   5.885   0.684   0.072 -0.0632  0.0121  0.0461
 8874W        W24768   4.369  16.751   3.726 -0.0245  0.0643  0.0073
 8875W        W24769  10.107   6.765  11.695  0.0491 -0.0257 -0.0878
 8876W        W24770  11.295   1.028  11.198 -0.1044  0.1630  0.2805
 8877W        W24771  11.834  16.904   5.691  0.0148  0.3130 -0.4657
 8878W        W24772  11.551  12.146   4.068  0.0538 -0.3560  0.1582
 8879W        W24773   1.398  16.940   1.057  0.4283 -0.1020  0.0184
 8880W        W24774  14.755  18.636  15.331 -0.0940 -0.2686  0.1947
 8881W        W24775  16.296   3.645  11.199 -0.3475  0.0162  0.0869
 8882W        W24776   8.074   8.171  14.383  0.1173  0.0549 -0.0446
 8883W        W24777   3.869   1.717  14.386 -0.1809 -0.0448 -0.2754
 8884W        W24778  18.754   7.684   2.145 -0.2564 -0.1542 -0.0644
 8885W        W24779  17.350   8.774  11.508 -0.0566  0.2767  0.2070
 8886W        W24780   4.838   0.667   0.023 -0.0827  0.1702 -0.2300
 8887W        W24781   9.415  13.974  10.848 -0.3569 -0.0899  0.0168
 8888W        W24782  13.131  13.378   0.999  0.0123 -0.0683  0.3705
 8889W        W24783   4.800  13.389  14.175 -0.1997 -0.6046  0.0054
 8890W        W24784   3.467  11.576  10.914 -0.3850  0.1170 -0.0917
 8891W        W24785   8.804   7.710   2.884  0.2217  0.3617 -0.1835
 8892W        W24786  17.641   1.969  10.879  0.1299  0.3737  0.1813
 8893W        W24787  13.453  12.847  14.605  0.0718 -0.1177  0.2164
 8894W        W24788   5.399  15.882   4.717 -0.0231  0.0477  0.0773
 8895W        W24789  14.114   1.138  12.999 -0.2834  0.1587 -0.0707
 8896W        W24790   2.405  17.895  11.393 -0.0734 -0.2109 -0.0627
 8897W        W24791   7.447  14.616  10.872  0.1417 -0.0064 -0.1254
 8898W        W24792   7.508  16.435  12.917  0.2936 -0.0787  0.0684
 8899W        W24793  17.090   1.214   4.453  0.0454  0.0985  0.0187
 8900W        W24794  14.371   5.493  14.456 -0.1860  0.1195 -0.1533
 8901W        W24795  14.375  16.025   2.977 -0.3124 -0.0823  0.0982
 8902W        W24796   2.976   1.022   5.658  0.0883  0.1592 -0.1842
 8903W        W24797  10.513   0.238  15.593  0.0823 -0.2368 -0.1337
 8904W        W24798  15.720  17.664   1.878  0.1390  0.1728  0.2169
 8905W        W24799   4.089  10.164   3.822  0.0504  0.2407 -0.2243
 8906W        W24800  10.099   1.797  13.683 -0.1982  0.1736  0.1779
 8907W        W24801   6.361   6.896  14.838 -0.1734  0.0325 -0.1860
 8908W        W24802   1.852   8.119  10.794  0.0602 -0.1111 -0.0880
 8909W        W24803  15.395  15.566   5.336 -0.1069  0.0474 -0.2848
 8910W        W24804  11.357   4.616   2.811  0.0716 -0.3606 -0.0202
 8911W        W24805  12.318   2.367   2.818  0.0505  0.0461  0.0721
 8912W        W24806  18.597  17.171  11.106 -0.1172  0.2349  0.0139
 8913W        W24807  17.553  16.399   9.953  0.3493 -0.1459  0.3205
 8914W        W24808   5.742   3.846   2.959  0.0400 -0.0317 -0.1682
 8915W        W24809   5.124  10.762  14.304 -0.0315 -0.0084 -0.2603
 8916W        W24810  18.747   1.076  14.627 -0.0059  0.2350  0.0936
 8917W        W24811  11.784   8.766  12.650 -0.0906 -0.2821  0.3244
 8918W        W24812  10.904   6.407   6.261 -0.1559 -0.2550 -0.0011
 8919W        W24813  13.125  11.183   2.454 -0.1452  0.5074  0.0592
 8920W        W24814  14.794  10.451   0.445 -0.0253 -0.1438 -0.2204
 8921W        W24815  14.959  13.957   1.796 -0.1654 -0.0602  0.1072
 8922W        W24816   0.026  11.600  12.776 -0.0082 -0.2674 -0.1020
 8923W        W24817  12.973   6.391   2.809 -0.1082  0.0671  0.1761
 8924W        W24818  10.432   9.896  12.016  0.0832 -0.0380  0.0302
 8925W        W24819   1.083  12.867   5.070  0.0857 -0.3059  0.3303
 8926W        W24820   1.066  10.629   2.602 -0.1090 -0.0142  0.2838
 8927W        W24821   2.687  16.352  13.213  0.2353 -0.0245 -0.1927
 8928W        W24822   4.557   9.304  11.186  0.1194 -0.3228  0.2219
 8929W        W24823   6.429   4.543  13.288 -0.1520  0.0937 -0.2512
 8930W        W24824   7.387  18.202   4.201 -0.0038  0.1739 -0.0285
 8931W        W24825   8.606  12.966  13.286  0.1677  0.2574  0.0217
 8932W        W24826   2.665  15.538  11.797  0.2813 -0.0260  0.0150
 8933W        W24827   1.893   9.573  10.513 -0.1941  0.1950  0.3939
 8934W        W24828   2.478  18.371   0.132 -0.0669 -0.1648 -0.1101
 8935W        W24829   0.281   9.331  11.387  0.2302 -0.0450  0.0433
 8936W        W24830  13.669  12.247   0.947 -0.1296 -0.2786  0.3872
 8937W        W24831  12.448  10.582   3.683 -0.0580  0.0622  0.2020
 8938W        W24832   2.664   8.406   3.120 -0.0813 -0.1844 -0.1469
 8939W        W24833  11.890   3.207   1.014  0.0234  0.2181  0.0393
 8940W        W24834  10.017  10.145   5.207  0.3621  0.0098 -0.0153
 8941W        W24835  15.356   2.417  11.997  0.1697  0.3607  0.2910
 8942W        W24836   6.315  17.597   2.722 -0.1568  0.2011 -0.0818
 8943W        W24837   6.929  17.540   0.455  0.2369  0.1225  0.0885
 8944W        W24838   3.612  13.733  11.125 -0.4024  0.1803 -0.1435
 8945W        W24839   6.531  13.286   1.396 -0.2416  0.0927 -0.1450
 8946W        W24840  16.202  15.518  12.691 -0.1907 -0.0152  0.1391
 8947W        W24841   3.462  18.354   0.456  0.1012  0.0284  0.0620
 8948W        W24842   1.077   7.184   2.469  0.1708 -0.0879 -0.0464
 8949W        W24843  10.318  16.639  12.283 -0.4256  0.3959  0.0438
 8950W        W24844   7.716  14.032   0.306  0.0343  0.0321  0.3412
 8951W        W24845  15.338   1.897  12.055  0.1381 -0.2888  0.1413
 8952W        W24846   4.301  14.833  12.158  0.0158 -0.1669 -0.0575
 8953W        W24847   5.700   4.246   3.699 -0.2011  0.2793  0.0153
 8954W        W24848   6.341  15.227  10.981 -0.0592  0.0863  0.3146
 8955W        W24849  12.308   8.971   0.618 -0.1037  0.0407 -0.2116
 8956W        W24850  13.072  18.130   4.662  0.3124 -0.2548  0.0772
 8957W        W24851  15.605  12.466   0.894 -0.1348  0.3116  0.0506
 8958W        W24852   3.764   0.254  14.481 -0.6051 -0.1475  0.5068
 8959W        W24853  12.662   3.705   3.943  0.1477  0.1841  0.0957
 8960W        W24854   1.451   0.897   3.368  0.4480  0.3114 -0.0673
 8961W        W24855   3.638  18.484   2.751  0.0836 -0.3170  0.0131
 8962W        W24856   9.657  17.092  13.783  0.0263  0.1122 -0.1918
 8963W        W24857  14.287  14.137   0.745  0.2749 -0.1587 -0.2057
 8964W        W24858   6.186  11.844   1.231 -0.0752 -0.0181 -0.0710
 8965W        W24859   1.701  11.275  14.412  0.0585 -0.1246 -0.0813
 8966W        W24860   7.681   6.771  11.810 -0.1318 -0.2272  0.2138
 8967W        W24861   3.451   7.661  15.556 -0.2427 -0.0025 -0.0076
 8968W        W24862  18.396  17.932  13.239  0.1957 -0.0433  0.0317
 8969W        W24863  15.489   5.668   2.228 -0.2460  0.0451 -0.0774
 8970W        W24864   3.964   1.126  14.271  0.1231 -0.0322  0.0165
 8971W        W24865   3.977  18.366   0.650 -0.1516 -0.0203  0.1862
 8972W        W24866   8.441   4.170   4.082 -0.3395  0.3762  0.2838
 8973W        W24867   8.571   4.465   2.616  0.1666 -0.0966 -0.0416
 8974W        W24868  15.467  14.013   4.949  0.1796  0.1728  0.1075
 8975W        W24869   4.505  14.755   1.003 -0.2179 -0.3352 -0.0892
 8976W        W24870   3.337  10.848  11.551  0.0356  0.0347  0.1061
 8977W        W24871   4.843  13.312  13.576  0.0107  0.2266 -0.0751
 8978W        W24872  13.438  16.839  13.861  0.0427  0.2112  0.0342
 8979W        W24873  10.676  10.358   3.301 -0.3027  0.0323  0.1596
 8980W        W24874  17.808   0.904  13.448  0.1949 -0.0170  0.0755
 8981W        W24875   0.917   9.008   1.232 -0.1538 -0.1859  0.0163
 8982W        W24876   7.970  13.276  11.521 -0.0668 -0.0604 -0.0508
 8983W        W24877   7.405   4.797  15.013 -0.0827  0.1168 -0.1152
 8984W        W24878   2.184  17.053   0.643  0.0872 -0.0675  0.3168
 8985W        W24879  16.663   1.784  15.409 -0.1737 -0.0738 -0.1226
 8986W        W24880  14.225   9.942   4.548  0.2639 -0.2237 -0.1050
 8987W        W24881   8.623   3.847  14.953  0.3546  0.5378  0.3633
 8988W        W24882   2.099  11.652  11.597 -0.2456  0.2686 -0.0005
 8989W        W24883  17.253   7.868   3.841 -0.0425 -0.0847 -0.1389
 8990W        W24884  14.117   1.699  12.724 -0.0669 -0.0093 -0.1948
 8991W        W24885  13.410  18.628  13.773 -0.1506 -0.1755  0.2241
 8992W        W24886   0.456   6.791  13.599 -0.1345 -0.0064  0.0204
 8993W        W24887   3.125   3.898  14.520  0.1301 -0.1440  0.1746
 8994W        W24888  11.402  15.033   4.660  0.0617  0.1976 -0.0749
 8995W        W24889   3.758   4.995   2.467 -0.1735  0.2881  0.3140
 8996W        W24890  17.494  12.059  12.984  0.5149 -0.0693 -0.0321
 8997W        W24891  12.099  13.639   2.176 -0.0773 -0.3531  0.2048
 8998W        W24892  12.311  10.923   2.232 -0.0763  0.0501 -0.1570
 8999W        W24893   5.547  17.610   3.540 -0.1271  0.1412 -0.0683
 9000W        W24894   1.862  17.858  15.493 -0.1389  0.3510 -0.0387
 9001W        W24895  12.130   1.267   4.656  0.0434  0.0367  0.1133
 9002W        W24896   5.231  14.138  14.821  0.0636  0.0779 -0.0694
 9003W        W24897  10.754  17.448   3.927 -0.0296 -0.1751 -0.1472
 9004W        W24898   8.135   1.560   1.818 -0.1057  0.2261 -0.2484
 9005W        W24899  14.228  15.912   2.443 -0.1520 -0.0982  0.1635
 9006W        W24900  14.280  10.425   6.107  0.3893  0.0867 -0.1402
 9007W        W24901   6.213  18.052   3.899 -0.0433  0.1372 -0.1838
 9008W        W24902  11.672  15.762   1.720  0.1118 -0.4648 -0.0722
 9009W        W24903  10.566   2.017   2.379  0.0010 -0.1706 -0.0673
 9010W        W24904  10.756   6.593  10.167 -0.0794 -0.2647  0.1726
 9011W        W24905   7.835  12.703   3.000 -0.0560  0.3195  0.0473
 9012W        W24906  16.929  14.371  10.977 -0.2266 -0.1624 -0.0012
 9013W        W24907  11.793  12.995  13.269 -0.0530 -0.2383  0.2099
 9014W        W24908  10.773   2.427   2.114  0.1720 -0.0431  0.0769
 9015W        W24909   0.104   0.052  13.591  0.0143  0.1258 -0.1028
 9016W        W24910  11.812  12.403  12.010  0.1119  0.0094 -0.0263
 9017W        W24911   5.635  12.961   4.469 -0.0637 -0.0558  0.1000
 9018W        W24912  12.428   2.691  12.953 -0.1983  0.3813 -0.0539
 9019W        W24913  17.748   4.613  11.265 -0.0262  0.0008 -0.2465
 9020W        W24914   0.284   4.285   5.304 -0.2263 -0.3924 -0.0349
 9021W        W24915   8.328   7.301  14.646 -0.0013 -0.1324 -0.0258
 9022W        W24916  15.289   4.073   0.946 -0.0204 -0.2985  0.2348
 9023W        W24917   8.490   2.290   3.371  0.1735  0.2551  0.0820
 9024W        W24918   4.979   7.646  15.177  0.2228  0.0557  0.2983
 9025W        W24919   1.602  15.959   2.782  0.0255 -0.0239 -0.2263
 9026W        W24920   7.303   8.801  13.568  0.1267 -0.1595 -0.0241
 9027W        W24921   0.476   7.498  14.122 -0.1043  0.1271 -0.0825
 9028W        W24922  10.502   4.142   4.892 -0.0369  0.1236  0.0547
 9029W        W24923   3.226  11.200  14.367  0.3268 -0.2393  0.0180
 9030W        W24924  17.499  12.722   5.487  0.0570 -0.0814 -0.1577
 9031W        W24925   2.327   0.111   1.811 -0.1455  0.3086  0.0596
 9032W        W24926   3.935  11.073   4.311 -0.3585 -0.0453 -0.2165
 9033W        W24927   2.320   4.901  14.814 -0.2165 -0.0442 -0.2294
 9034W        W24928  10.844   6.428   2.408  0.0357  0.2203  0.1479
 9035W        W24929   4.676  12.171  10.867 -0.0061  0.0005  0.0890
 9036W        W24930  15.817   1.752   0.109 -0.2789 -0.0857  0.0675
 9037W        W24931  10.413  14.971   2.008 -0.1193 -0.0078 -0.0048
 9038W        W24932  13.498   5.147   1.302  0.2428 -0.0770 -0.0088
 9039W        W24933  17.325  12.738   5.003 -0.1118  0.0404  0.0281
 9040W        W24934  17.643   8.386  11.804 -0.0180 -0.1895  0.0924
 9041W        W24935   4.944  17.509  13.603  0.1508  0.3556  0.0400
 9042W        W24936   3.204  17.192  13.282  0.0446 -0.1037 -0.0991
 9043W        W24937   6.514   5.580   0.709  0.0814 -0.0119 -0.1074
 9044W        W24938  13.657   9.146  12.816 -0.0673  0.2663  0.1724
 9045W        W24939  18.724  17.827   0.161  0.0048  0.0474  0.1385
 9046W        W24940   3.278  13.036   1.846 -0.3922  0.1565  0.0217
 9047W        W24941   8.972  12.526   4.510 -0.0951 -0.3796  0.2454
 9048W        W24942  15.744  15.238  13.681  0.1946  0.0821  0.2288
 9049W        W24943   7.294   4.801   1.243  0.1195  0.1178 -0.1486
 9050W        W24944   1.687  11.615   4.895  0.3069  0.0638  0.2142
 9051W        W24945  15.301  10.242   0.393  0.0504  0.3542 -0.1606
 9052W        W24946   3.453  17.168   3.709  0.3503 -0.0505  0.1365
 9053W        W24947  13.967  14.586   4.983 -0.3012 -0.1159 -0.0099
 9054W        W24948   7.956  17.966  12.114 -0.0333 -0.2171  0.1645
 9055W        W24949   8.637   9.459   0.237  0.2506 -0.0853 -0.2087
 9056W        W24950   5.569  16.382   0.471 -0.1653  0.3138  0.2575
 9057W        W24951   3.535   4.432   3.728  0.1164  0.3295 -0.3044
 9058W        W24952  11.747  17.754  11.856 -0.0946  0.1461  0.0670
 9059W        W24953   3.102   5.774  12.111 -0.2343 -0.2359 -0.1761
 9060W        W24954  14.330   3.823  13.505 -0.1264  0.0600 -0.1301
 9061W        W24955  13.403   0.087   4.199 -0.0253  0.2110 -0.0669
 9062W        W24956   1.405  11.766   4.434 -0.0527 -0.0735  0.2375
 9063W        W24957   5.513   4.727  11.791 -0.1147 -0.0470  0.1519
 9064W        W24958  15.904  12.246   2.187  0.0886 -0.2739 -0.0253
 9065W        W24959  10.952   7.481   0.529 -0.2633  0.0086  0.1945
 9066W        W24960  10.510  12.704  15.432 -0.0119  0.1605  0.2344
 9067W        W24961  10.524   1.135  11.676 -0.1802  0.0845 -0.0853
 9068W        W24962   1.380   3.091   1.446  0.1508  0.1318 -0.4949
 9069W        W24963   5.707   2.114  14.386  0.0036 -0.1119  0.3007
 9070W        W24964  10.274  11.182   5.935  0.0375 -0.1968  0.1128
 9071W        W24965   4.794  16.385   4.339  0.1354  0.0744 -0.0474
 9072W        W24966   6.916   2.820   2.158 -0.2704 -0.2477 -0.2583
 9073W        W24967   6.763   4.363  13.671 -0.0743 -0.3702  0.1251
 9074W        W24968   3.341   1.711   0.996 -0.2073  0.2202 -0.0459
 9075W        W24969  15.564   0.323   0.127  0.0134 -0.2823  0.1197
 9076W        W24970  14.945  11.018   1.465 -0.0232 -0.2146 -0.0329
 9077W        W24971  11.966   5.968  11.726  0.4635 -0.4084  0.1824
 9078W        W24972   9.690   4.711  14.904  0.1672 -0.2441 -0.0863
 9079W        W24973   5.891  17.360   1.299  0.0470  0.0421  0.4087
 9080W        W24974   6.267  18.155  14.514 -0.0866 -0.2781 -0.2240
 9081W        W24975   6.041   0.849   0.530  0.0702  0.1582  0.0652
 9082W        W24976  16.138   3.275  13.639 -0.0788 -0.0070 -0.2991
 9083W        W24977   3.267  13.897   2.228 -0.0925 -0.0296 -0.2635
 9084W        W24978   1.617   9.523   1.381  0.0964 -0.0728  0.1736
 9085W        W24979  16.775   1.567   1.096 -0.1244  0.0401 -0.0353
 9086W        W24980  16.723  18.113  11.669 -0.2323  0.3608  0.0181
 9087W        W24981   5.685   6.529  12.290 -0.0620 -0.0997  0.2042
 9088W        W24982   8.819  18.607   5.442  0.0302 -0.3728  0.0764
 9089W        W24983   0.518  11.539   1.675  0.1811 -0.0860 -0.2308
 9090W        W24984   9.891  10.705   4.907  0.1808 -0.1059  0.1196
 9091W        W24985   1.227   9.147  12.076 -0.2487  0.1430 -0.2638
 9092W        W24986  17.785  15.439   6.048  0.3586 -0.4068 -0.1974
 9093W        W24987  12.886   9.251   2.107  0.1953  0.2545  0.1431
 9094W        W24988  17.977  15.704  13.717 -0.1706  0.2308  0.3769
 9095W        W24989  12.508   5.323  13.993  0.1170 -0.0822 -0.1897
 9096W        W24990  14.984   3.355  11.122 -0.0142 -0.1869 -0.0830
 9097W        W24991   3.750   6.012   4.312  0.0304  0.0257  0.1605
 9098W        W24992   4.999   6.965  11.878  0.2375  0.1988  0.0648
 9099W        W24993   8.445  12.885  10.819  0.0900 -0.1010 -0.1865
 9100W        W24994   6.911   5.721   1.505 -0.2876 -0.1926 -0.0777
 9101W        W24995  13.363  10.670   2.456 -0.0055 -0.0809 -0.0918
 9102W        W24996   7.218   3.496   4.428  0.0961 -0.0983 -0.1654
 9103W        W24997  14.465  17.863  13.558 -0.0213  0.1617 -0.0271
 9104W        W24998   6.153   7.311  15.108  0.0357  0.0239 -0.0727
 9105W        W24999   6.235   8.904   3.888 -0.0792 -0.2446 -0.0725
 9106W        W25000   8.739   0.168   2.645 -0.2204  0.1360  0.0234
 9107W        W25001  13.348  12.201  13.691 -0.0908  0.1996  0.0001
 9108W        W25002   1.124  13.320  10.088  0.2311 -0.0801  0.0853
 9109W        W25003  14.273  10.479  15.616  0.0370 -0.2418  0.3295
 9110W        W25004  10.814  15.685  11.372  0.2039  0.4422 -0.0826
 9111W        W25005   3.214  15.960   0.355 -0.2738 -0.0816  0.2196
 9112W        W25006  17.262   0.949   2.733  0.1830 -0.4526  0.0919
 9113W        W25007  11.410   4.347  12.403  0.2508 -0.4400 -0.1231
 9114W        W25008   6.381   4.196  14.681 -0.2743  0.2533 -0.4105
 9115W        W25009   2.083   2.841  12.516 -0.3926 -0.2425 -0.0978
 9116W        W25010   3.826   4.296  14.046 -0.5733  0.0942  0.1452
 9117W        W25011  17.810  10.838   3.803 -0.1554 -0.1771  0.0972
 9118W        W25012  13.496  14.741  15.534 -0.0482  0.0184 -0.0726
 9119W        W25013  18.368  14.183   0.916 -0.0020  0.1924 -0.3574
 9120W        W25014  14.652   4.470   0.107  0.1247  0.0563  0.0193
 9121W        W25015   9.441  11.041  13.440  0.1801  0.1050 -0.2683
 9122W        W25016   8.175  10.363   3.263  0.3527 -0.3543 -0.3233
 9123W        W25017   9.338  10.659  14.597  0.0109 -0.0944  0.1675
 9124W        W25018   4.560   8.392  15.345 -0.1023  0.0388 -0.2407
 9125W        W25019  16.325   0.904  15.539 -0.1322 -0.3168  0.1913
 9126W        W25020   6.878  10.239   0.170  0.3780 -0.0408  0.0872
 9127W        W25021   7.831  18.620  14.205  0.2484  0.0559 -0.1249
 9128W        W25022  15.645   3.310  15.270  0.0047 -0.1288  0.1007
 9129W        W25023   2.926  10.447  10.855  0.1626  0.1362  0.0081
 9130W        W25024   4.349   6.062   3.194  0.2306 -0.0383 -0.0338
 9131W        W25025  13.480   2.904  10.884 -0.1340  0.2329  0.2366
 9132W        W25026  14.594  14.716   4.793  0.1532  0.1180  0.0624
 9133W        W25027   0.025   3.157  14.964 -0.0400 -0.3915 -0.2060
 9134W        W25028  17.195  18.709  14.213 -0.0275 -0.1753 -0.0073
 9135W        W25029  14.670  18.723   2.328 -0.0144 -0.2341  0.0609
 9136W        W25030  18.508  12.728  14.834 -0.0013  0.4062 -0.0306
 9137W        W25031   0.583   9.992  11.630 -0.1751 -0.0726  0.1870
 9138W        W25032  12.652   3.823   4.482 -0.0729 -0.1849  0.3023
 9139W        W25033   3.888  16.213  14.825  0.1337  0.0368 -0.1856
 9140W        W25034  17.241  10.719   0.455  0.3692 -0.1794 -0.1081
 9141W        W25035  17.658  11.098  11.283 -0.0076  0.1427 -0.1157
 9142W        W25036   1.758  12.307   4.069 -0.1758  0.0332  0.1635
 9143W        W25037   8.799   5.331   2.730  0.2003  0.0568  0.0208
 9144W        W25038  11.166   9.992   0.149 -0.0627 -0.4482  0.1565
 9145W        W25039  10.762   4.984  11.294 -0.0120 -0.1468 -0.1087
 9146W        W25040  13.785   2.492  13.576  0.0074  0.1591 -0.3049
 9147W        W25041   6.438   5.055  15.628 -0.2604  0.0158 -0.0375
 9148W        W25042  14.407  11.963   4.313 -0.0435  0.2851 -0.0603
 9149W        W25043  15.473  17.378   1.429  0.0202  0.3093 -0.0668
 9150W        W25044  18.759  13.794  13.654 -0.0467  0.1877 -0.0352
 9151W        W25045   1.882   3.259  12.390 -0.1057  0.0098 -0.0991
 9152W        W25046  13.229   1.223  12.457 -0.0091  0.0131  0.1484
 9153W        W25047   4.156   0.495   5.263 -0.2630 -0.0888 -0.0505
 9154W        W25048   9.822  17.284  11.072  0.2448  0.1190 -0.1405
 9155W        W25049  12.014   7.084  12.569  0.2811  0.1139  0.1121
 9156W        W25050   6.598   7.863  11.750  0.2955 -0.1728  0.0062
 9157W        W25051  13.717   9.645   1.066  0.1034 -0.0391 -0.1438
 9158W        W25052   2.865  13.326   1.702 -0.0960 -0.4047  0.0802
 9159W        W25053  15.580   5.863  12.910 -0.2120  0.0818 -0.1662
 9160W        W25054   0.304   4.322   3.907 -0.0070  0.0160 -0.1384
 9161W        W25055   4.087   5.507   0.867 -0.0634  0.0398 -0.1422
 9162W        W25056  10.984  10.104  11.254  0.0682  0.2103 -0.3516
 9163W        W25057  17.066   7.273  14.061 -0.1032 -0.0839 -0.3743
 9164W        W25058  16.129  18.562   3.667 -0.2433  0.0421 -0.0499
 9165W        W25059  11.642  16.174  13.241 -0.2201 -0.0449  0.0857
 9166W        W25060  11.851   6.440  13.392  0.0867  0.1015 -0.2950
 9167W        W25061  17.291  18.331   1.156 -0.2271 -0.1955 -0.1565
 9168W        W25062   3.164  14.924  15.388  0.0159  0.2273  0.0190
 9169W        W25063   2.279   0.498   3.487  0.2642 -0.2308  0.0142
 9170W        W25064   0.262   6.349  14.494 -0.0769 -0.0343  0.3013
 9171W        W25065   0.310   1.409  10.874  0.1675  0.0405  0.1475
 9172W        W25066  17.903   0.941  11.971  0.2542  0.3436  0.1104
 9173W        W25067   9.696   2.989   0.387 -0.0504 -0.0981 -0.4625
 9174W        W25068  12.520   7.052   0.807 -0.0267 -0.0127 -0.1360
 9175W        W25069   6.002   1.280  12.076  0.0681 -0.0401  0.0940
 9176W        W25070  13.071  10.332   3.275  0.0329 -0.2154  0.2644
 9177W        W25071   9.724  13.304   4.210  0.1187 -0.0195 -0.0080
 9178W        W25072   9.418   3.804  14.081 -0.3327 -0.1705  0.0904
 9179W        W25073  16.186  16.172  14.646  0.0349  0.5159  0.2053
 9180W        W25074   8.241  11.539  10.789 -0.4161 -0.0243  0.3316
 9181W        W25075  14.885  12.776  11.258  0.0296  0.0790  0.1060
 9182W        W25076  15.394  18.178  10.866  0.0242 -0.0356  0.1417
 9183W        W25077  11.312  11.707   3.514 -0.0503  0.0126 -0.1758
 9184W        W25078   4.924   6.096   1.234 -0.0734  0.0815 -0.3375
 9185W        W25079   3.893   5.937  15.083  0.0859 -0.0237 -0.0647
 9186W        W25080  13.037   7.316   4.233  0.0441 -0.0478  0.0248
 9187W        W25081   7.709   0.680  11.979  0.0903  0.1206  0.1037
 9188W        W25082  10.234   6.357   1.769 -0.1526 -0.0868 -0.0348
 9189W        W25083   3.746   3.199   2.541  0.2258 -0.0208 -0.6955
 9190W        W25084   7.171   4.290   3.406 -0.2806 -0.2913  0.0439
 9191W        W25085   3.381  14.376  10.680 -0.1500  0.1101 -0.1104
 9192W        W25086  12.173  11.086   4.649 -0.1756 -0.1364 -0.2189
 9193W        W25087   1.497  15.638   3.181  0.3602  0.2098  0.0141
 9194W        W25088  10.585   6.654   4.826 -0.0377  0.0856  0.0545
 9195W        W25089  15.625   2.843   4.835  0.0890  0.0565 -0.0144
 9196W        W25090   7.952   2.931   0.939  0.2407 -0.2162 -0.0172
 9197W        W25091   0.858   2.925   2.178  0.1561 -0.1794 -0.0833
 9198W        W25092   4.072  13.841  14.038 -0.2619 -0.1835 -0.0635
 9199W        W25093   7.674   6.867   2.683  0.0915  0.0521 -0.2511
 9200W        W25094   7.369   2.870   1.872 -0.1824 -0.0214 -0.2266
 9201W        W25095   8.978   1.955   0.208  0.2985 -0.0131  0.1593
 9202W        W25096  17.492  13.624   0.093 -0.4732  0.0731 -0.3326
 9203W        W25097   9.051  17.880  13.480 -0.1071 -0.0270  0.2162
 9204W        W25098  11.396  16.210   4.072 -0.0754  0.3568 -0.1044
 9205W        W25099   0.284   2.226  10.006  0.0966 -0.1217  0.3316
 9206W        W25100   7.337  10.076  10.711 -0.0881 -0.0920 -0.2101
 9207W        W25101   2.332  18.525   4.861 -0.3122  0.1518  0.0217
 9208W        W25102  18.603   2.502   3.232  0.1274 -0.3354  0.1093
 9209W        W25103   6.595   7.620  15.297 -0.1034  0.0261 -0.2229
 9210W        W25104   2.609   4.218   1.495 -0.0289 -0.2115 -0.0920
 9211W        W25105  14.943   9.784  12.556 -0.1544 -0.1505 -0.0297
 9212W        W25106   5.998   6.553   4.707 -0.0656 -0.0479  0.2508
 9213W        W25107  14.041   4.594   1.177 -0.2578  0.0404  0.0416
 9214W        W25108   7.038  12.219   3.800 -0.3773 -0.1461  0.0594
 9215W        W25109   7.468   8.873  14.718  0.0758  0.1498  0.0105
 9216W        W25110   0.860  15.010   0.896  0.3759  0.0296 -0.0987
 9217W        W25111   9.385  13.260  15.269 -0.0759  0.0748 -0.0511
 9218W        W25112   0.761   7.312  12.172 -0.0716 -0.1906  0.1244
 9219W        W25113   7.195  14.465   2.728 -0.0577  0.0460 -0.0334
 9220W        W25114   1.158  16.645   2.345 -0.0005  0.0007 -0.0961
 9221W        W25115  14.712   9.312  13.140 -0.1364  0.2905 -0.1179
 9222W        W25116  15.934  18.049   1.540  0.0918 -0.0191 -0.1305
 9223W        W25117  18.017   8.821   1.060 -0.1934  0.0572  0.2034
 9224W        W25118   4.920  15.512  15.554  0.0136  0.1117  0.1589
 9225W        W25119   2.460   5.831   5.097  0.0154  0.0207 -0.1160
 9226W        W25120  14.824   0.006   3.347 -0.0916 -0.0150 -0.2937
 9227W        W25121  17.226   7.107  15.059  0.1321 -0.1520 -0.1466
 9228W        W25122  17.780  13.475   2.868 -0.2790 -0.1579 -0.2036
 9229W        W25123   7.026   3.327  13.176 -0.0661 -0.0643  0.0119
 9230W        W25124  11.193   1.679   0.361 -0.4146  0.0457  0.1334
 9231W        W25125  17.004   1.632   2.860  0.2259  0.1171  0.1347
 9232W        W25126  15.932   7.527   0.985  0.1893  0.2456 -0.0429
 9233W        W25127   0.466   2.842  12.113  0.1625 -0.2772 -0.1553
 9234W        W25128  13.150   6.063   5.125 -0.0490  0.0056 -0.0124
 9235W        W25129   9.072   2.996  15.292 -0.1463  0.0563  0.0899
 9236W        W25130   1.296   9.722   1.724 -0.0775 -0.0535  0.0808
 9237W        W25131   4.794   1.061  13.516 -0.1340  0.0414 -0.3529
 9238W        W25132  15.958  13.969   3.866 -0.2241  0.0572 -0.1973
 9239W        W25133   1.925   3.998   2.655 -0.0066  0.1535  0.1339
 9240W        W25134   0.922  13.398  11.792 -0.0560  0.0906 -0.2193
 9241W        W25135   9.597  11.796  14.990 -0.0667 -0.0447 -0.1723
 9242W        W25136   6.279  11.981   0.668 -0.0556  0.0369 -0.4350
 9243W        W25137  16.486   6.360   1.244  0.1432  0.0107 -0.1082
 9244W        W25138  13.023   7.741   3.141  0.3347 -0.1484  0.0985
 9245W        W25139   0.302  14.225   2.786  0.0457 -0.0774  0.2929
 9246W        W25140   0.488   1.105   1.311  0.0777 -0.3741 -0.0631
 9247W        W25141   2.460  16.157   3.164  0.4835 -0.1568 -0.2005
 9248W        W25142  12.704  17.744   1.840 -0.0600  0.0504 -0.1374
 9249W        W25143   7.566  16.068   3.678  0.3996 -0.2988  0.0628
 9250W        W25144  14.371  10.220   0.826  0.1093  0.1757  0.1440
 9251W        W25145  17.858   2.913  14.451  0.0329  0.2273 -0.2597
 9252W        W25146   8.813   6.812  14.004 -0.1714 -0.0130 -0.1445
 9253W        W25147   7.243   1.193   2.690  0.0736 -0.1857 -0.3004
 9254W        W25148  12.000   8.034  13.296  0.3056  0.0502  0.0168
 9255W        W25149  11.291  16.000   4.848  0.4304  0.0625  0.1172
 9256W        W25150   9.209   7.840   4.823  0.1661 -0.2612 -0.3243
 9257W        W25151   9.960  14.403  13.089 -0.1261 -0.0083  0.0530
 9258W        W25152   1.975  10.657  11.427  0.0688  0.2262 -0.2572
 9259W        W25153   9.228  12.209  13.821 -0.4834  0.1999  0.2321
 9260W        W25154   4.346  16.303   3.951 -0.0486 -0.2052  0.1693
 9261W        W25155  17.916  14.727  14.916  0.1950  0.0074  0.1424
 9262W        W25156   3.592   9.367  11.549  0.0117 -0.0975  0.0184
 9263W        W25157  18.043   3.850  12.275 -0.0943  0.2353  0.1488
 9264W        W25158  12.268   2.658  10.474 -0.0652  0.1107  0.0313
 9265W        W25159  15.165  14.899   0.174 -0.0202  0.2532 -0.2027
 9266W        W25160  16.688   6.892   1.810  0.2889  0.0911 -0.0529
 9267W        W25161   6.318   0.638   4.231  0.2239  0.2280 -0.0280
 9268W        W25162   4.934  10.327   4.277 -0.0867  0.1313 -0.2281
 9269W        W25163   9.541  13.625  14.874  0.3231  0.0570 -0.2741
 9270W        W25164  12.369  13.172   3.190 -0.2369  0.1310 -0.1080
 9271W        W25165  17.391  16.467  15.485 -0.0867 -0.1861 -0.0019
 9272W        W25166  12.561  15.972  12.114 -0.1819 -0.0832  0.0206
 9273W        W25167   1.212  15.533  11.893  0.1125  0.0954  0.0382
 9274W        W25168   5.490  17.280  13.623 -0.0611  0.0897 -0.3360
 9275W        W25169   4.450   6.306   4.909 -0.1703 -0.1937 -0.0917
 9276W        W25170  16.586  11.878   0.483 -0.0660 -0.0132 -0.1568
 9277W        W25171  14.166   7.563   0.750  0.0707 -0.1219 -0.0724
 9278W        W25172  11.674   1.009   1.498 -0.1654 -0.0188  0.0486
 9279W        W25173   7.792   2.932   2.166  0.0257  0.0917 -0.3708
 9280W        W25174  12.061   2.963   0.435  0.0741 -0.0203  0.0376
 9281W        W25175  11.965  12.684   1.539  0.1427 -0.0094 -0.0761
 9282W        W25176   2.846  10.686   2.791 -0.1014  0.1066 -0.0906
 9283W        W25177   1.680  14.107  12.987  0.1107  0.0315 -0.1984
 9284W        W25178  11.261  14.779  13.342 -0.4106  0.1082 -0.1992
 9285W        W25179   9.216  13.898   3.961  0.2059  0.3378  0.2044
 9286W        W25180  10.053  12.974   0.334 -0.6758 -0.1388 -0.0640
 9287W        W25181  16.795   7.593   2.973  0.1594  0.1839 -0.0554
 9288W        W25182  15.223   5.378  11.792  0.0039 -0.3857 -0.0124
 9289W        W25183  10.064  10.443  12.373  0.0191  0.0074  0.0660
 9290W        W25184  15.572  16.513  15.358 -0.0246 -0.0212 -0.1472
 9291W        W25185   0.552   2.051   3.660 -0.0647  0.2878 -0.0514
 9292W        W25186   4.708  10.556   1.747 -0.3003  0.1252  0.0153
 9293W        W25187   1.636   2.580   1.401 -0.1066 -0.2870 -0.1151
 9294W        W25188   3.308   0.272   2.073 -0.2472 -0.4246  0.0866
 9295W        W25189  16.323   4.904  10.565 -0.0878 -0.1506 -0.3964
 9296W        W25190  12.298  17.883   2.307  0.3444 -0.2789  0.2003
 9297W        W25191   3.873  11.921  12.489 -0.0516  0.1281 -0.0703
 9298W        W25192   7.771  13.003   0.235  0.0931 -0.1396  0.0594
 9299W        W25193   7.912  17.550   4.508  0.1232  0.0068 -0.1768
 9300W        W25194  16.197  16.394   6.075 -0.2787  0.0298 -0.0607
 9301W        W25195  11.813  15.857  12.882  0.0079  0.0817  0.2626
 9302W        W25196   7.132  17.883  12.383  0.1297 -0.1347  0.2202
 9303W        W25197   7.787  18.268  14.732  0.0707 -0.0201 -0.0899
 9304W        W25198   4.044   7.956   0.552 -0.1518  0.4084  0.1088
 9305W        W25199  12.880   4.985  13.184 -0.2153  0.1432  0.1812
 9306W        W25200   4.323  10.533   0.442  0.0245 -0.0202  0.1027
 9307W        W25201   1.696  13.695  12.249  0.1564  0.2196 -0.1421
 9308W        W25202  16.602  11.063   2.213 -0.2867 -0.0194  0.0582
 9309W        W25203  16.430  13.799   4.053  0.1731  0.1412  0.2263
 9310W        W25204  12.396   0.987  14.449 -0.1237 -0.1818  0.1276
 9311W        W25205  11.224  17.309  15.404 -0.1259 -0.2179  0.2876
 9312W        W25206   4.180  10.349  13.470 -0.2810 -0.1322  0.1194
 9313W        W25207  16.419  11.585  12.483 -0.0968 -0.2821  0.0994
 9314W        W25208   7.402   6.873   6.091  0.0178  0.3119 -0.2866
 9315W        W25209   7.627   8.765  12.662  0.1636 -0.3481  0.0976
 9316W        W25210  10.681   5.678   3.781 -0.0405 -0.1376  0.1232
 9317W        W25211   6.473   1.616   1.196  0.1238  0.1755  0.0090
 9318W        W25212   5.935  15.887   1.381 -0.0026 -0.2041  0.1823
 9319W        W25213  12.766   2.930  11.560  0.2477  0.1454 -0.1809
 9320W        W25214   4.448  11.834   4.354 -0.4049 -0.0846 -0.0244
 9321W        W25215  10.752   0.498   4.061 -0.2627  0.0600  0.1499
 9322W        W25216   8.393   8.697   1.388 -0.1489 -0.0597 -0.0055
 9323W        W25217   7.778  13.813  12.454 -0.1428 -0.4532  0.1313
 9324W        W25218   9.237   6.924  14.403  0.2503 -0.0585 -0.4818
 9325W        W25219   4.850  17.772  13.183 -0.2731  0.2194  0.2077
 9326W        W25220   5.443   7.154   5.006  0.3850 -0.1497  0.2068
 9327W        W25221  12.838   6.259  14.605 -0.0013 -0.1194  0.2190
 9328W        W25222   4.438   6.201  11.921 -0.0353  0.2159 -0.0335
 9329W        W25223   4.828  10.277  12.055 -0.2718 -0.1899  0.0759
 9330W        W25224  18.061  14.110   1.988  0.1903  0.0708 -0.3630
 9331W        W25225  16.697   0.791  15.266 -0.3961 -0.1177  0.0393
 9332W        W25226   8.534  17.415   4.399 -0.1374  0.0922 -0.2606
 9333W        W25227   7.192   2.731  10.122  0.2816  0.4101 -0.1091
 9334W        W25228  17.168   5.505   1.312  0.2815  0.0519 -0.1311
 9335W        W25229   8.124  16.188  15.504 -0.3046  0.2250 -0.0693
 9336W        W25230   7.288  17.137  15.134  0.1937  0.2579 -0.0390
 9337W        W25231  13.306  12.718  13.507  0.3436 -0.1289  0.2635
 9338W        W25232   9.989   2.790   2.756 -0.1536 -0.1254 -0.1251
 9339W        W25233  11.278  12.134  10.763 -0.1603  0.1658  0.0367
 9340W        W25234   3.618   4.442  13.121 -0.1796 -0.0055 -0.0011
 9341W        W25235   3.055   9.465   2.504  0.0276 -0.1045 -0.1056
 9342W        W25236   0.365   8.402   3.017 -0.0356  0.0430  0.2835
 9343W        W25237  13.355  11.362  15.269  0.0462 -0.3992  0.1354
 9344W        W25238   9.919  10.032   2.907 -0.2304 -0.0068 -0.4020
 9345W        W25239   9.795   8.184  12.296  0.0402  0.1470  0.1775
 9346W        W25240  11.622  10.838   2.435  0.1965  0.0713 -0.1939
 9347W        W25241   6.570   9.034   1.730 -0.0438 -0.3270  0.0006
 9348W        W25242  18.740   8.774   2.143 -0.2066 -0.3335 -0.1944
 9349W        W25243   7.756   5.058   1.376 -0.0602  0.0500  0.0779
 9350W        W25244  12.278  15.112   3.745  0.1858 -0.1402 -0.1455
 9351W        W25245  14.608  15.016  14.773  0.1200 -0.0428  0.0736
 9352W        W25246  12.283  14.970   0.632 -0.2288 -0.0964 -0.1617
 9353W        W25247   1.947   5.925   5.640  0.1359 -0.0697  0.1735
 9354W        W25248   6.239   5.345  11.676  0.0029 -0.0968  0.0797
 9355W        W25249   1.313  17.995   1.829  0.0672  0.1618 -0.1395
 9356W        W25250   8.159  17.456   3.254 -0.3536  0.1589 -0.0017
 9357W        W25251   7.655  17.395  13.640 -0.0349  0.1411  0.0272
 9358W        W25252   6.189   8.441   4.146  0.1883  0.0376  0.1043
 9359W        W25253   2.036  14.591  15.532 -0.1689 -0.1794 -0.1310
 9360W        W25254  14.840  10.210   0.910  0.1303 -0.0513  0.0126
 9361W        W25255   0.112   8.610  12.919  0.2352  0.1209  0.1779
 9362W        W25256   6.866   3.904  15.308  0.1766 -0.0405  0.1121
 9363W        W25257  16.451  16.165   1.681  0.0172  0.1836  0.0018
 9364W        W25258  12.968  15.313  11.499  0.1075 -0.0158 -0.0365
 9365W        W25259  15.269  10.827  14.806 -0.2030  0.0782  0.2140
 9366W        W25260   9.371   7.140   2.640 -0.0869 -0.2158 -0.2956
 9367W        W25261  15.782  17.807  11.171  0.2561  0.2530  0.0509
 9368W        W25262  15.202  16.292  15.016  0.1694  0.0071  0.3267
 9369W        W25263   1.393  14.873  13.682 -0.1558 -0.0155  0.1080
 9370W        W25264   6.759   2.528   2.751 -0.4819  0.0521 -0.1408
 9371W        W25265  16.128  18.204  13.398 -0.2770  0.4528 -0.2661
 9372W        W25266  18.733   6.350   5.297  0.2249  0.0162  0.1426
 9373W        W25267   6.182  10.282  11.399 -0.0353 -0.0409 -0.0190
 9374W        W25268  17.540   4.090  13.725  0.2682  0.0765  0.2007
 9375W        W25269   2.875   8.688   2.130 -0.2089  0.1155  0.1264
 9376W        W25270  10.815  17.769  10.963 -0.1469 -0.1201 -0.2824
 9377W        W25271  17.117  12.779  12.823 -0.1056 -0.1379 -0.0541
 9378W        W25272  16.484  10.006   1.559  0.0093  0.1522  0.2319
 9379W        W25273   7.688  15.025   0.568  0.1734  0.0462 -0.1835
 9380W        W25274   8.701   4.291  14.749  0.0454  0.0976  0.0609
 9381W        W25275   2.542  17.578   3.611 -0.1018  0.1627  0.2491
 9382W        W25276   7.609  17.598   4.884 -0.2779 -0.1004  0.1304
 9383W        W25277   5.912   3.051   3.344 -0.1123 -0.1841  0.2103
 9384W        W25278  16.741  14.124  12.682  0.1566  0.2224 -0.3005
 9385W        W25279  15.326  16.034   4.039 -0.0938  0.2155 -0.1161
 9386W        W25280   5.768  14.128  13.083  0.0524  0.2331 -0.3219
 9387W        W25281  16.283   2.078   3.668  0.0490 -0.1926 -0.0842
 9388W        W25282   7.298   9.325   3.544 -0.3054 -0.1382 -0.2581
 9389W        W25283  10.204   1.362  13.940  0.0460 -0.3565 -0.1356
 9390W        W25284  12.641   9.929   0.694 -0.2479  0.2944  0.1457
 9391W        W25285  17.390   7.871   5.353 -0.0237 -0.1591  0.0098
 9392W        W25286   6.572   4.763   3.831  0.0072 -0.0483  0.3193
 9393W        W25287  12.140   5.909   2.651  0.2109  0.2110  0.2024
 9394W        W25288   8.747  16.834  12.431 -0.0988 -0.0737  0.0688
 9395W        W25289  11.342  13.819   5.475  0.1618 -0.0338  0.1867
 9396W        W25290  15.390   7.275  15.423 -0.0224  0.1013  0.1351
 9397W        W25291  15.197   1.361   1.450 -0.0435 -0.0777  0.4453
 9398W        W25292  10.458   0.539   3.448  0.1674 -0.2408  0.0786
 9399W        W25293  10.252   7.188   0.018 -0.2159  0.2325 -0.2109
 9400W        W25294   5.813   8.152   0.674 -0.1435  0.0453 -0.0378
 9401W        W25295  14.786  17.972  11.958  0.1252 -0.0645  0.0525
 9402W        W25296  15.100   3.474  12.679 -0.0159  0.0888  0.2126
 9403W        W25297   4.218   0.390  12.335 -0.1192  0.0681 -0.1754
 9404W        W25298   8.135  13.712  14.184  0.1698  0.0702  0.1736
 9405W        W25299   6.692  18.150  12.512  0.1037  0.1294 -0.1219
 9406W        W25300  14.114  12.595  14.615 -0.0365 -0.1450  0.2004
 9407W        W25301  11.935  12.155  13.256 -0.2997 -0.0882  0.2402
 9408W        W25302  11.032   6.978  14.129 -0.2561  0.1243 -0.0348
 9409W        W25303   9.762   6.394  15.499 -0.0314  0.2236  0.1209
 9410W        W25304   0.542  13.779   2.810  0.0515 -0.0900 -0.1477
 9411W        W25305  15.887   8.041   2.106 -0.0843  0.2146 -0.1957
 9412W        W25306   3.200   3.558  10.884 -0.6083 -0.1733 -0.1750
 9413W        W25307   0.092   1.857   0.211 -0.0204 -0.0406 -0.1166
 9414W        W25308   0.469   7.390  13.605 -0.1592 -0.0029  0.0106
 9415W        W25309   3.023   3.983  11.014  0.0562 -0.0162 -0.0884
 9416W        W25310   3.650  13.534   2.258 -0.1458 -0.2713 -0.0358
 9417W        W25311   0.061  12.838  10.360  0.0754  0.1797 -0.0891
 9418W        W25312  18.572  14.075   3.665 -0.1520  0.0962 -0.3399
 9419W        W25313  18.054  16.769   5.102 -0.2125 -0.2066  0.1390
 9420W        W25314  10.188  14.472  14.430  0.0690 -0.0965  0.0020
 9421W        W25315   9.285  13.938   2.659 -0.3719  0.0570 -0.2476
 9422W        W25316   2.296   6.023   4.012 -0.0086  0.2248 -0.1359
 9423W        W25317   6.625   9.212   5.134  0.2050 -0.0587  0.2402
 9424W        W25318   8.473   7.775  14.406 -0.0407 -0.2166 -0.0660
 9425W        W25319   3.738  17.665  11.857  0.3210 -0.1349 -0.0825
 9426W        W25320  11.744  13.686  12.653  0.3461 -0.0650 -0.1018
 9427W        W25321  18.613   8.868  11.798 -0.0506  0.1277 -0.1650
 9428W        W25322   7.516  14.376  11.353  0.0181 -0.3257 -0.0150
 9429W        W25323  15.054  12.476   4.505  0.0799 -0.0488 -0.0294
 9430W        W25324   8.497  16.693   2.014  0.2329 -0.0468 -0.0457
 9431W        W25325  13.729   2.913  11.353  0.1616 -0.3735  0.0754
 9432W        W25326  15.828  17.421  15.621  0.0897  0.1472 -0.2053
 9433W        W25327   6.328   4.013  15.478  0.2239 -0.0739  0.2636
 9434W        W25328   2.430   6.157   0.156 -0.2065  0.0531 -0.0179
 9435W        W25329   1.841  10.339  12.695  0.4433  0.0539 -0.0734
 9436W        W25330   9.128   8.672   5.865 -0.0225 -0.1519  0.0091
 9437W        W25331  16.658  17.866   4.132  0.0895 -0.0582  0.0128
 9438W        W25332   9.393   3.233   4.383  0.2451 -0.1661  0.1711
 9439W        W25333   3.179  16.675  12.685  0.0599  0.0022 -0.3855
 9440W        W25334  12.743   3.176   0.409  0.2388  0.1482 -0.1214
 9441W        W25335  12.278   5.988   4.497  0.2649  0.1402 -0.0122
 9442W        W25336  18.121   4.391   0.183  0.2432  0.0158 -0.0376
 9443W        W25337  12.531   7.617   4.310 -0.0605 -0.0440 -0.3332
 9444W        W25338  11.699   2.719   0.724  0.0468 -0.0856  0.0399
 9445W        W25339  11.336   4.537  10.956  0.0341  0.0410  0.1390
 9446W        W25340   0.832   3.299  13.148 -0.1065  0.0253  0.0519
 9447W        W25341   0.730  15.233  14.741 -0.2044 -0.0188 -0.2313
 9448W        W25342   6.522   2.787   4.587  0.0212  0.0081  0.2039
 9449W        W25343   7.361  10.921  14.749 -0.0343 -0.1584  0.0969
 9450W        W25344  10.081   3.077   3.835 -0.1539  0.0846  0.1716
 9451W        W25345   8.583   7.196   2.063  0.0618  0.1219  0.0954
 9452W        W25346  11.452   3.564  11.723 -0.1685  0.2598 -0.1674
 9453W        W25347   3.340  13.651   3.130 -0.0381  0.1970  0.3248
 9454W        W25348   4.531  17.699   0.156 -0.0061 -0.1016  0.1137
 9455W        W25349   9.344   4.402  10.226  0.2656  0.1833 -0.0600
 9456W        W25350  10.916   5.440  15.444 -0.0607  0.1358  0.0865
 9457W        W25351   0.794   9.448   0.925 -0.1665 -0.0086  0.4480
 9458W        W25352   4.130   7.906   1.575 -0.0179 -0.0451  0.2800
 9459W        W25353  16.555   2.734   5.519  0.0707 -0.1672 -0.0006
 9460W        W25354  10.268   4.451   2.653 -0.0825 -0.0470 -0.2241
 9461W        W25355   3.998   1.859   0.832 -0.0100 -0.2875  0.0389
 9462W        W25356   2.134  11.264  14.079 -0.1940 -0.4039 -0.1638
 9463W        W25357   5.546   5.922  13.666  0.2577  0.1475 -0.0628
 9464W        W25358  14.876   0.095   3.867  0.0372 -0.0624 -0.0477
 9465W        W25359   0.615  14.629  10.448  0.2062  0.1699 -0.0372
 9466W        W25360   8.516  10.038   1.748  0.0372  0.0878 -0.1534
 9467W        W25361   9.496   8.244   1.637 -0.1471  0.1465 -0.2198
 9468W        W25362  10.270  16.626  14.249  0.2414  0.0012  0.2605
 9469W        W25363  10.079  18.517  12.379 -0.1035 -0.1102  0.0481
 9470W        W25364   5.917   5.712   3.405  0.2283  0.0078 -0.0373
 9471W        W25365   2.148   6.481  14.057 -0.1249  0.0823 -0.0912
 9472W        W25366  11.063   8.712   3.197 -0.0068  0.0522  0.2635
 9473W        W25367   4.188  12.853   1.679  0.1891  0.0979  0.1294
 9474W        W25368  16.285   3.199   5.178 -0.2894  0.3928  0.0657
 9475W        W25369   8.281   8.607  11.423 -0.1267  0.0517 -0.0860
 9476W        W25370   2.754  14.995  12.578  0.1264 -0.2858  0.0040
 9477W        W25371  18.482  15.436  11.405 -0.0852  0.0451 -0.1546
 9478W        W25372   2.103  15.141   1.964  0.0461 -0.0559 -0.0985
 9479W        W25373  16.166  12.688   5.622 -0.0910 -0.2528 -0.2969
 9480W        W25374   3.360  12.461  11.988 -0.0918  0.0523 -0.1523
 9481W        W25375  17.706   9.500   0.318 -0.3922 -0.1372 -0.3148
 9482W        W25376  18.283  16.156  11.193 -0.1040  0.2150  0.1472
 9483W        W25377  12.458   9.465   2.509  0.1645  0.0252  0.0507
 9484W        W25378   9.493   6.422   0.514 -0.2939 -0.0264  0.0888
 9485W        W25379  17.476  17.989  14.810 -0.0184 -0.0054 -0.2784
 9486W        W25380   8.909   8.472   4.279  0.0731 -0.2811 -0.1686
 9487W        W25381  10.293   3.946  13.675 -0.0088  0.4508 -0.2250
 9488W        W25382   3.177   7.249  12.097 -0.0118  0.0872  0.1926
 9489W        W25383   4.978  15.758   1.295  0.0520 -0.0783 -0.3108
 9490W        W25384  13.357   5.992  11.386  0.2797 -0.0260 -0.2921
 9491W        W25385  18.634   6.179   4.343 -0.2680 -0.0413  0.0718
 9492W        W25386   8.388   9.872   3.220 -0.0887 -0.0048  0.0637
 9493W        W25387  11.372  12.124  10.003  0.2685  0.1713 -0.0345
 9494W        W25388  17.926   3.661  14.151 -0.0424  0.1973 -0.7337
 9495W        W25389  18.485  15.609  13.648  0.3872  0.0013 -0.0069
 9496W        W25390   1.757   3.038  12.828  0.1057  0.2452 -0.2630
 9497W        W25391  17.442  16.040   3.176 -0.1374 -0.2300  0.1624
 9498W        W25392   3.222  10.946  11.083  0.0698  0.0182 -0.4517
 9499W        W25393   1.863   4.438   5.372  0.0413 -0.0065 -0.0060
 9500W        W25394  15.945   3.521  15.610 -0.1039  0.1391  0.1502
 9501W        W25395  16.471  10.102  12.215  0.0408 -0.3522 -0.2658
 9502W        W25396  11.560  17.777  15.216 -0.2251 -0.1266 -0.0873
 9503W        W25397  13.703   1.211   5.414  0.0106 -0.1181 -0.1114
 9504W        W25398   5.925  12.472  12.019  0.3240  0.0603 -0.4055
 9505W        W25399   3.720   0.191  12.428  0.3487 -0.0027 -0.0957
 9506W        W25400   9.192   9.505   2.799 -0.0190  0.1576 -0.2653
 9507W        W25401   2.983  11.426  12.792 -0.5129 -0.1736  0.2164
 9508W        W25402   5.949   9.854   4.441  0.1351  0.2121  0.0155
 9509W        W25403   5.350  13.585  15.011 -0.0269 -0.0295  0.1654
 9510W        W25404  11.185   8.061   4.817 -0.0335  0.0671  0.1407
 9511W        W25405  13.125  12.522  14.845 -0.0269 -0.0884 -0.0212
 9512W        W25406  11.655  12.297   0.853 -0.2351 -0.2724 -0.2655
 9513W        W25407  15.070  14.762  12.969  0.1247 -0.1044  0.1325
 9514W        W25408   9.195  16.879  13.822  0.2605 -0.2778  0.2417
 9515W        W25409  10.410  10.911   2.978  0.0489 -0.3790  0.1378
 9516W        W25410  16.718   0.850   0.473 -0.3077  0.0997 -0.0137
 9517W        W25411  14.333   7.867   0.348 -0.0569 -0.3378 -0.1132
 9518W        W25412   5.680  10.128  13.987  0.2096 -0.0795 -0.3730
 9519W        W25413  18.343  10.530   3.959  0.1577  0.4661  0.2001
 9520W        W25414  17.036  13.065  10.468  0.0366  0.1370 -0.0755
 9521W        W25415   8.546   7.865   1.274 -0.0652 -0.3047 -0.0218
 9522W        W25416  11.974   1.905  12.681  0.1599  0.0395  0.2962
 9523W        W25417   2.131   7.666   4.237 -0.0613  0.4409 -0.1491
 9524W        W25418  11.543   5.551  14.442  0.1584  0.0680 -0.0624
 9525W        W25419  13.466   7.214   1.286 -0.0731  0.2578  0.2794
 9526W        W25420  16.683   6.362  12.363  0.0580 -0.1482  0.1968
 9527W        W25421   6.493  12.481  13.786  0.1175 -0.0109  0.1153
 9528W        W25422  13.485  17.051   1.739 -0.1116  0.2126 -0.2430
 9529W        W25423   4.196  16.953  11.159 -0.0222 -0.1150  0.4104
 9530W        W25424   3.119  13.235  10.765  0.0589 -0.2597  0.0402
 9531W        W25425  16.611   4.039  13.718 -0.4616  0.0264  0.3384
 9532W        W25426   5.638   9.803   2.741 -0.1222 -0.0113 -0.1333
 9533W        W25427   8.542  17.601  12.228 -0.1756  0.0944  0.0676
 9534W        W25428   4.810   0.888  11.232 -0.3563  0.0917  0.1058
 9535W        W25429  18.528   3.154   5.286  0.1735 -0.3099 -0.1955
 9536W        W25430  11.873  11.606  15.492  0.0342  0.2510 -0.2252
 9537W        W25431   2.343  11.408   3.043  0.0530 -0.2178  0.1320
 9538W        W25432  14.836   2.171   3.330  0.3669 -0.0795  0.0148
 9539W        W25433  15.823   9.691   6.069  0.0902  0.0519  0.6175
 9540W        W25434   4.140  10.967  13.021 -0.0285 -0.3535 -0.0012
 9541W        W25435   3.404  12.155  13.529 -0.1886  0.2611  0.0511
 9542W        W25436   9.911  16.256  14.008  0.0695 -0.2238  0.0011
 9543W        W25437   4.268  14.855  10.389 -0.2900 -0.1275  0.0353
 9544W        W25438  12.935  17.943  11.966 -0.1096  0.0359 -0.0348
 9545W        W25439   8.636  16.008  15.619  0.1396  0.2512  0.1887
 9546W        W25440   6.234  12.864  14.135 -0.0625  0.1379 -0.4408
 9547W        W25441   7.424   7.387   1.200 -0.0038  0.0443  0.3103
 9548W        W25442   4.042  14.854   2.718 -0.3548 -0.1025  0.1198
 9549W        W25443  18.435  10.498  14.656  0.0015  0.1250  0.1521
 9550W        W25444   7.629   0.030  14.705  0.2125 -0.1737  0.0498
 9551W        W25445   5.606  11.680   1.176 -0.0096 -0.1774  0.3363
 9552W        W25446   6.559  11.304   4.063  0.0157 -0.1804 -0.1155
 9553W        W25447  11.621  11.753  15.087 -0.1448 -0.0119 -0.1394
 9554W        W25448  14.700  10.893   1.982  0.3694 -0.0779 -0.0908
 9555W        W25449   8.615  15.392  14.623 -0.0324 -0.3963  0.1578
 9556W        W25450  12.804  12.967   1.929 -0.0661 -0.0281  0.2769
 9557W        W25451   2.092  13.111  15.128 -0.0458  0.1640 -0.5481
 9558W        W25452  12.981   2.026   1.158 -0.0862  0.1456 -0.0483
 9559W        W25453   2.927  12.030  11.598  0.0977 -0.1042 -0.1443
 9560W        W25454   6.441  12.828   1.222  0.1475 -0.0894  0.1414
 9561W        W25455  16.249  12.692  13.249  0.0281 -0.1760  0.1739
 9562W        W25456   5.473   6.599  12.738  0.3195  0.1835 -0.2711
 9563W        W25457   5.493  15.532   4.380  0.3189  0.0616  0.1190
 9564W        W25458   1.012  17.166  14.718  0.1120  0.3281 -0.2234
 9565W        W25459  15.074   1.167   4.620 -0.0388  0.1113 -0.0944
 9566W        W25460  16.604   2.051   2.020  0.0920 -0.1460  0.3150
 9567W        W25461  18.213  13.384  13.657 -0.0965 -0.0462  0.1703
 9568W        W25462   8.536  11.692  14.038 -0.0666 -0.0184  0.0643
 9569W        W25463   0.056   7.106   2.321 -0.0113  0.0734 -0.3569
 9570W        W25464  18.426   2.859   4.631 -0.0378  0.0739  0.1269
 9571W        W25465  12.383  10.921   4.093 -0.0998 -0.1082 -0.1642
 9572W        W25466   0.840   4.669  10.859  0.1340  0.3536  0.0143
 9573W        W25467  16.232   5.960  13.888 -0.1925 -0.1939  0.0432
 9574W        W25468  14.356   2.212   1.734 -0.0665  0.0044  0.0112
 9575W        W25469   4.246   9.929   4.543  0.0127  0.0648  0.1296
 9576W        W25470  18.106  17.823  11.921 -0.0298 -0.0086 -0.1993
 9577W        W25471  15.029   5.537   3.776 -0.3708  0.2598 -0.2164
 9578W        W25472   8.448  10.061  12.560  0.2927 -0.2461  0.0524
 9579W        W25473   4.076  10.211  10.173 -0.0524  0.0604 -0.0109
 9580W        W25474   7.311   3.096   3.056  0.0017 -0.1061 -0.0840
 9581W        W25475   9.941   5.059  15.302 -0.5658  0.3011 -0.0386
 9582W        W25476   8.166   3.988  11.530  0.1766  0.1207 -0.1927
 9583W        W25477  18.107  12.665  13.767  0.1584 -0.1871 -0.3454
 9584W        W25478   9.029   3.102   2.404 -0.1089 -0.0379 -0.2108
 9585W        W25479  16.248   6.961  13.541  0.2725  0.0719 -0.3731
 9586W        W25480   2.642  17.668   0.365 -0.2082 -0.1146 -0.3807
 9587W        W25481   2.504  15.737   0.817  0.2357 -0.2141  0.0535
 9588W        W25482   4.054  18.630   4.510 -0.0297 -0.2501 -0.3386
 9589W        W25483   7.315  11.834   0.447 -0.0169  0.4615  0.2384
 9590W        W25484   4.353  17.819   2.309  0.1546  0.1124 -0.0058
 9591W        W25485   1.865  16.201  15.045 -0.1303  0.2237 -0.1835
 9592W        W25486   0.840   8.858   4.236 -0.3312 -0.2432  0.2182
 9593W        W25487   3.198   4.951  11.115  0.2186 -0.5104  0.1195
 9594W        W25488   6.721   9.618  13.211 -0.2466  0.2012  0.0812
 9595W        W25489   1.547  10.569   0.559  0.2625 -0.0349  0.3098
 9596W        W25490   5.162  12.903   1.128  0.2502  0.0324 -0.2466
 9597W        W25491  16.348   6.030   0.238  0.3279  0.2643  0.3080
 9598W        W25492  12.158   5.649  12.063 -0.1847 -0.1134 -0.1223
 9599W        W25493   2.008   0.962   3.543 -0.0953  0.2721 -0.2174
 9600W        W25494   9.991  15.371  13.120 -0.1121 -0.0409 -0.1178
 9601W        W25495  12.332   3.540   4.262 -0.0676 -0.0304  0.3136
 9602W        W25496   6.878   9.195  15.241  0.5614 -0.2389 -0.0289
 9603W        W25497   9.317   2.670   0.390  0.0152 -0.2771 -0.0291
 9604W        W25498  15.944   5.988  11.165  0.1117  0.0214  0.2087
 9605W        W25499   0.986   1.894  12.903 -0.1348 -0.0404  0.2572
 9606W        W25500   3.494   0.704   1.049  0.0454  0.3183 -0.6095
 9607W        W25501  17.222   9.621  11.287 -0.1201  0.1191 -0.0016
 9608W        W25502  15.943  13.050   5.277  0.1618  0.0442 -0.2984
 9609W        W25503  12.473   1.205   3.051 -0.3280 -0.0327 -0.0265
 9610W        W25504   3.171   9.609  14.579  0.3690 -0.0753  0.2245
 9611W        W25505  13.954  12.103  15.202 -0.2130  0.1991 -0.0364
 9612W        W25506  11.915   6.546  13.967 -0.2124  0.0619 -0.0827
 9613W        W25507  14.250  18.027   1.614  0.0681  0.0050 -0.3231
 9614W        W25508  13.669   2.982  13.639  0.1872 -0.1796  0.1770
 9615W        W25509   7.684  11.577   4.880  0.2029 -0.0336  0.1121
 9616W        W25510   1.371   7.867  12.736  0.2118  0.1226 -0.0420
 9617W        W25511   3.333   6.869   2.032  0.1311  0.2574 -0.1355
 9618W        W25512  12.768  12.951  13.930  0.3375 -0.0461  0.2975
 9619W        W25513  14.197  13.125   5.741  0.1256  0.0028  0.0557
 9620W        W25514  17.542   1.479  10.926 -0.1072 -0.0797 -0.1353
 9621W        W25515  16.277   0.713  13.633  0.1077  0.0401 -0.0560
 9622W        W25516   8.463  11.721  14.798 -0.1014 -0.0684 -0.4055
 9623W        W25517  18.210  18.070   2.447 -0.0761 -0.1310  0.3341
 9624W        W25518  10.827  12.823  15.037  0.0302 -0.2598  0.0007
 9625W        W25519   1.237   6.300   1.454 -0.0350 -0.0886  0.1577
 9626W        W25520  13.622  15.089   2.380 -0.2331  0.2445  0.0221
 9627W        W25521   6.130   0.558   2.070 -0.1681  0.1048 -0.0310
 9628W        W25522   1.418   3.410  14.839  0.1541  0.3415 -0.3120
 9629W        W25523   9.201  17.566   1.060  0.0722 -0.1224 -0.1036
 9630W        W25524   1.195  18.128  12.897 -0.1076 -0.2130  0.0699
 9631W        W25525   2.460   0.283  13.058  0.1373  0.0947 -0.3488
 9632W        W25526  13.068   1.967  10.705 -0.0910  0.3048  0.1513
 9633W        W25527  10.647  13.685   4.942  0.0417  0.1659  0.0415
 9634W        W25528   2.845  17.284  14.168  0.2483  0.1914  0.0817
 9635W        W25529   7.979  10.957   2.382 -0.0866 -0.2054 -0.2783
 9636W        W25530  17.268  16.494   1.311  0.1418 -0.0650  0.0206
 9637W        W25531   8.636  16.316   5.664 -0.0404 -0.0206  0.1335
 9638W        W25532  12.059  17.872   0.119  0.1563  0.3211 -0.1975
 9639W        W25533  11.922  15.566  14.990 -0.1946  0.4165 -0.1935
 9640W        W25534   9.032  15.141  13.948  0.1332 -0.1960 -0.1263
 9641W        W25535   5.717   9.824   9.913 -0.1750 -0.1323 -0.1546
 9642W        W25536  17.548  15.697   0.317 -0.2491  0.0598 -0.0815
 9643W        W25537   2.436   9.016   4.392  0.0656  0.2645  0.0187
 9644W        W25538   4.754   3.426   3.588  0.0636  0.0559 -0.0932
 9645W        W25539  11.768   6.908  11.856 -0.0515  0.2187  0.0199
 9646W        W25540  16.344   5.408   3.637 -0.0632  0.0077 -0.2652
 9647W        W25541   3.534  12.678   3.747  0.1287  0.0393  0.2404
 9648W        W25542   8.608  13.336   1.581 -0.3913 -0.5701  0.0420
 9649W        W25543   5.058  17.362   2.177 -0.2606  0.0611 -0.0404
 9650W        W25544   2.087   5.775   0.232  0.0211  0.0927  0.1889
 9651W        W25545  12.658   3.281   2.616  0.2576 -0.0660 -0.0566
 9652W        W25546   5.865   0.602   3.525  0.0996  0.1813 -0.1070
 9653W        W25547   4.307   3.096   2.519  0.0260  0.1171 -0.1850
 9654W        W25548  14.853   7.626  12.350  0.3177  0.0761  0.1964
 9655W        W25549   1.115   0.399  15.479  0.1004  0.0223  0.0185
 9656W        W25550   2.901   3.918   2.886 -0.2148  0.1951  0.4053
 9657W        W25551  14.410   7.625   5.489 -0.3616  0.1443  0.3027
 9658W        W25552   9.575   7.209  12.738 -0.0817 -0.0047  0.3594
 9659W        W25553   7.809   3.508   2.965 -0.3254  0.0685  0.1058
 9660W        W25554   2.507  11.629  13.302 -0.1721  0.0386  0.0569
 9661W        W25555  15.896   6.955   4.655 -0.0176  0.1478  0.2392
 9662W        W25556   9.147  17.271   9.602  0.1363 -0.0740 -0.2168
 9663W        W25557   3.512   7.799  14.307 -0.3189 -0.0324  0.1470
 9664W        W25558  15.708   3.257   0.369 -0.3339 -0.0664  0.0864
 9665W        W25559   5.803   1.747   0.972  0.1179 -0.0288 -0.3404
 9666W        W25560  17.860   1.950  12.188  0.2404 -0.0328  0.2868
 9667W        W25561   5.129   6.418  13.102 -0.0236  0.1499 -0.0750
 9668W        W25562   8.437   0.424  15.162  0.2149 -0.1814  0.0084
 9669W        W25563  13.794   6.923   3.254  0.0195  0.2034 -0.1613
 9670W        W25564  17.565   4.846  15.408 -0.0892  0.0973 -0.0723
 9671W        W25565   7.366  12.163   0.775  0.2959  0.0566  0.3130
 9672W        W25566  16.841  12.920  15.483  0.4510  0.0211 -0.3336
 9673W        W25567   2.813  15.305   1.577 -0.2199 -0.0265 -0.4100
 9674W        W25568  18.399   2.591   1.476 -0.3332 -0.0337 -0.2311
 9675W        W25569   9.898  17.191   3.038  0.1629  0.1396 -0.2371
 9676W        W25570   0.196   5.192  13.931 -0.0255  0.0895  0.1670
 9677W        W25571  10.161   0.872   2.798 -0.0928  0.0044 -0.0221
 9678W        W25572   7.812   3.476   4.433 -0.1029  0.1100  0.0317
 9679W        W25573  11.280  11.826   1.656 -0.1174  0.0283 -0.1456
 9680W        W25574   5.465  11.519  15.571 -0.0153 -0.1675 -0.3856
 9681W        W25575   0.697  14.101  13.535  0.1726  0.1369 -0.1393
 9682W        W25576  12.675  11.481  12.520  0.3196  0.1630  0.0776
 9683W        W25577   7.760   9.734  13.749  0.2206  0.1716 -0.0413
 9684W        W25578   3.041   0.903   0.900  0.2270  0.1299 -0.1397
 9685W        W25579   1.274  10.640   5.805 -0.2484  0.1660  0.0460
 9686W        W25580  10.236   6.053  15.164  0.2450 -0.0048  0.0864
 9687W        W25581  13.790   8.636   1.054 -0.0929  0.1699 -0.3654
 9688W        W25582   7.959   6.241  13.670  0.3624  0.1897 -0.2547
 9689W        W25583  10.256  10.926  14.010  0.0827 -0.0887  0.2601
 9690W        W25584  14.896   1.326  14.234  0.0456  0.0159  0.0976
 9691W        W25585   2.348   2.931   1.985 -0.0348 -0.1172  0.3551
 9692W        W25586  10.263   6.953   3.713  0.1356  0.0543 -0.0907
 9693W        W25587  11.419   7.123   4.440  0.0222  0.2147  0.0127
 9694W        W25588  14.389   5.350  12.300 -0.0759 -0.1941  0.0317
 9695W        W25589  16.931   6.951   3.142 -0.1639 -0.0577 -0.5402
 9696W        W25590  16.899   7.312   4.948 -0.2369 -0.1113  0.1666
 9697W        W25591   4.521  18.310   1.745  0.0559 -0.2242  0.1119
 9698W        W25592  18.147   7.018  15.183  0.2177 -0.0611 -0.1561
 9699W        W25593  13.942   2.383   3.665 -0.2148 -0.0510 -0.0679
 9700W        W25594   0.449   0.121   3.532  0.1353  0.1069 -0.3235
 9701W        W25595   5.575   3.561  14.863  0.2449  0.0483 -0.0899
 9702W        W25596   8.366   1.781   0.184 -0.0416  0.4842 -0.2215
 9703W        W25597   6.003   5.400   0.743  0.0732 -0.0922  0.1196
 9704W        W25598  11.093   4.402   1.530  0.3685 -0.0279 -0.0168
 9705W        W25599  12.341  11.779  14.404  0.1307  0.1063 -0.1222
 9706W        W25600  12.932  12.044   3.222 -0.1271  0.2664  0.4599
 9707W        W25601   9.295   3.539   2.723  0.1273 -0.0861  0.1452
 9708W        W25602   4.180   8.654   1.597 -0.1090 -0.1297 -0.4928
 9709W        W25603  12.887   6.865   2.081 -0.3109 -0.4053 -0.0181
 9710W        W25604   1.587   1.569  15.227 -0.2771  0.1751  0.0483
 9711W        W25605  11.871   4.933  15.119  0.2901  0.1864  0.2043
 9712W        W25606  12.902   2.791   4.474 -0.1732  0.1557  0.0628
 9713W        W25607   6.239  13.797   4.805  0.1620  0.3015 -0.4496
 9714W        W25608   6.836  16.897  11.218  0.0289 -0.2152  0.0169
 9715W        W25609   0.932  18.524   4.366 -0.1092  0.1216  0.1085
 9716W        W25610   0.147   2.646   0.216  0.1762  0.2029 -0.1446
 9717W        W25611   6.532   0.295  13.780  0.0350  0.2193  0.1022
 9718W        W25612  15.254   8.932  15.336  0.0758  0.1355 -0.1136
 9719W        W25613   1.365   6.619  13.813  0.0460  0.1484 -0.0791
 9720W        W25614   0.692   2.420  12.294 -0.0889 -0.1690 -0.2634
 9721W        W25615   7.006   0.165  13.816 -0.0199 -0.1718 -0.1839
 9722W        W25616   4.167   4.514  13.256  0.1888  0.4026 -0.1767
 9723W        W25617   9.155  13.647   0.800 -0.0235  0.2872 -0.0805
 9724W        W25618  14.787   7.675  14.988 -0.2036 -0.0798  0.1148
 9725W        W25619   2.043   7.116   0.895 -0.2347  0.0908  0.1531
 9726W        W25620  16.992  16.896  11.876 -0.0936  0.3777 -0.1276
 9727W        W25621  10.447   4.173  14.110 -0.0857  0.1151 -0.0382
 9728W        W25622   3.996   1.471  10.778  0.0598 -0.5119 -0.0194
 9729W        W25623   1.749  17.949   0.406  0.1580  0.0354  0.2519
 9730W        W25624  18.341   6.609   4.386  0.4076  0.2128 -0.1809
 9731W        W25625  16.032  13.696   0.131 -0.1059  0.1940  0.2585
 9732W        W25626   4.033  10.131  11.205  0.1097 -0.0013 -0.1426
 9733W        W25627   5.711   8.897   0.275 -0.1718 -0.1361  0.3458
 9734W        W25628  15.228  17.619   6.024  0.0839  0.2756  0.0523
 9735W        W25629   6.334  10.929  14.263  0.1414  0.1731 -0.1838
 9736W        W25630   5.415  15.340   4.829  0.3291 -0.1160  0.1146
 9737W        W25631  13.210   3.067   0.526  0.0027 -0.3712 -0.1852
 9738W        W25632   2.260   5.460  14.382 -0.0703  0.1566  0.1412
 9739W        W25633  17.131  18.376   4.468  0.2189 -0.1241 -0.1446
 9740W        W25634   6.550   7.820  12.270  0.1166  0.0447 -0.0253
 9741W        W25635  11.689   7.185   0.062 -0.2908 -0.0933  0.1327
 9742W        W25636   8.228   0.437  12.692 -0.4311 -0.2038 -0.0460
 9743W        W25637   3.197   3.057   0.566  0.0018  0.1575  0.1634
 9744W        W25638   5.773  12.891   2.273 -0.0494  0.0268 -0.0635
 9745W        W25639  16.552   6.244  14.205  0.0654 -0.2011 -0.1332
 9746W        W25640   9.505   0.730  13.664  0.2809 -0.1006 -0.2138
 9747W        W25641   4.363   4.549   4.938  0.4123 -0.2633 -0.1619
 9748W        W25642  12.825  10.589   4.067  0.0001  0.0665 -0.3664
 9749W        W25643  11.236  11.271  13.131 -0.0757 -0.3649 -0.0101
 9750W        W25644   1.761   6.628   4.139 -0.1834 -0.0651  0.2398
 9751W        W25645  10.014   4.455   3.668 -0.1578 -0.2231  0.5044
 9752W        W25646   7.947  15.904  10.845  0.0229  0.0113  0.1357
 9753W        W25647  14.263  13.441   1.663  0.0396 -0.2493  0.1560
 9754W        W25648   9.803   2.561  14.242 -0.3043 -0.4741 -0.1164
 9755W        W25649  18.482   6.791  10.933  0.1060 -0.2252  0.0541
 9756W        W25650  14.897   0.619   4.783 -0.3208  0.2851  0.4843
 9757W        W25651  13.424  14.794   5.560 -0.0877  0.0678 -0.4311
 9758W        W25652  12.648   3.774  11.221  0.0370 -0.1392 -0.0674
 9759W        W25653   4.278   9.080   3.048  0.0718 -0.0807  0.0246
 9760W        W25654  12.223   0.288   1.534  0.1946 -0.2403 -0.0947
 9761W        W25655  10.662   1.472  12.022  0.1010  0.0774 -0.5215
 9762W        W25656  12.899  14.157   5.187  0.0920  0.0259  0.0745
 9763W        W25657   7.040   4.210  14.655  0.1931 -0.5566  0.1120
 9764W        W25658   9.307   7.159  13.221  0.0577  0.0048  0.0901
 9765W        W25659   3.074  14.310   1.407 -0.2097  0.1055 -0.3421
 9766W        W25660  18.546  15.064  12.899 -0.1938 -0.1847 -0.3857
 9767W        W25661  12.902  10.833   1.707  0.2246  0.2245  0.0247
 9768W        W25662   0.894  16.044  11.603 -0.2340 -0.0885 -0.2498
 9769W        W25663  13.269  14.781   0.516 -0.0391 -0.2158 -0.0234
 9770W        W25664   4.921  16.570  12.650 -0.1819  0.3638 -0.0963
 9771W        W25665  16.048  14.369  15.150 -0.0986 -0.2106  0.1084
 9772W        W25666   0.170  15.059  12.014 -0.2028  0.1372 -0.2665
 9773W        W25667   7.727  15.754  15.466 -0.3557 -0.0279 -0.1460
 9774W        W25668   6.145  16.957  12.856 -0.1693  0.0452 -0.0263
 9775W        W25669  15.110   1.468   3.330 -0.0073 -0.0685  0.0095
 9776W        W25670   2.958   0.036  12.334  0.0121  0.1160  0.1210
 9777W        W25671  15.012  18.286   0.571  0.1009  0.1480 -0.0312
 9778W        W25672   2.734   2.092  12.734 -0.0135  0.1959 -0.2122
 9779W        W25673   3.759   4.810   5.535  0.0909  0.0219  0.1205
 9780W        W25674  11.788  15.277   3.861 -0.0686 -0.1713  0.0310
 9781W        W25675  16.107   6.058   1.028  0.2633  0.3023 -0.1243
 9782W        W25676   7.123   9.088   0.564 -0.1316  0.0897  0.1761
 9783W        W25677  16.406  10.548   3.425 -0.0221 -0.1479 -0.0126
 9784W        W25678   0.146   3.224   1.546 -0.0945 -0.1381  0.0781
 9785W        W25679   6.482   2.430   1.194 -0.1396  0.2256  0.0030
 9786W        W25680   1.388   4.637   1.662  0.1424 -0.0294 -0.1502
 9787W        W25681   1.018  14.084  11.463 -0.1350  0.0510 -0.0957
 9788W        W25682  13.013  18.084  11.383 -0.0478  0.3817 -0.3686
 9789W        W25683  13.564   4.988  11.052 -0.1599 -0.1514 -0.0877
 9790W        W25684  16.365   4.601   0.049  0.1576  0.1144 -0.0366
 9791W        W25685   5.438  14.457  15.428 -0.1082 -0.1772 -0.3367
 9792W        W25686  17.359  10.346  15.552 -0.0034  0.1283  0.4593
 9793W        W25687   9.165  14.743  13.137 -0.1046 -0.0696  0.1157
 9794W        W25688   5.292   7.705  13.444  0.0451  0.2716 -0.1083
 9795W        W25689   6.944   3.929   4.306  0.1689  0.0944 -0.1103
 9796W        W25690  15.511  14.843  13.157 -0.1765  0.1498  0.2995
 9797W        W25691   7.482  18.310  13.186 -0.0141  0.0050  0.0257
 9798W        W25692   4.340   2.292   3.047  0.2547  0.0360 -0.0648
 9799W        W25693   2.638   3.207  11.625 -0.2521 -0.0706 -0.2214
 9800W        W25694   0.212  11.298   5.724 -0.3330 -0.0384 -0.2622
 9801W        W25695  11.984   2.764  11.786  0.2164  0.1764 -0.1851
 9802W        W25696   6.410   4.006  11.043 -0.0816  0.2588  0.1375
 9803W        W25697  10.009  15.325   1.723  0.2937  0.0378  0.1827
 9804W        W25698  10.783  12.648  11.788 -0.2867 -0.2161  0.4589
 9805W        W25699   0.351  12.920   0.167  0.1396 -0.1419 -0.1525
 9806W        W25700   6.244   1.633  13.077 -0.1896  0.0056 -0.1553
 9807W        W25701  11.811   0.371   4.885  0.0163 -0.1249 -0.0212
 9808W        W25702  12.582   8.750  13.664  0.0687  0.1088 -0.0483
 9809W        W25703  17.648  12.272  12.578 -0.4277  0.1750 -0.0911
 9810W        W25704  14.138  14.746  12.711  0.1975 -0.2036  0.1778
 9811W        W25705  18.170   2.234   3.229 -0.1994 -0.2950  0.2423
 9812W        W25706  13.202   7.048  13.609  0.3056 -0.1892 -0.1309
 9813W        W25707   5.838  11.701  11.482 -0.1332  0.1225  0.1122
 9814W        W25708   6.437  11.543  11.998 -0.1626 -0.2482 -0.0790
 9815W        W25709  11.675  10.197   4.866 -0.0600 -0.3634  0.0821
 9816W        W25710  13.539   9.716  14.460  0.1553 -0.1818 -0.1290
 9817W        W25711  14.251   1.675  13.626 -0.1063 -0.0955 -0.0546
 9818W        W25712   3.825   5.981   3.551 -0.0273 -0.0394 -0.2124
 9819W        W25713   8.019  10.567  12.871 -0.1520 -0.3321 -0.4152
 9820W        W25714  18.659   2.150   2.824 -0.1468  0.1751  0.1110
 9821W        W25715  14.215   3.540  12.391  0.4286 -0.0563 -0.1463
 9822W        W25716   2.119   3.320  13.296 -0.3326  0.1410  0.0686
 9823W        W25717   8.819  13.044   2.822 -0.1268 -0.1517 -0.0565
 9824W        W25718   0.380   9.476  10.910 -0.3364  0.0666  0.0517
 9825W        W25719  17.226  16.545  12.176  0.0055  0.0092  0.1651
 9826W        W25720  16.951   0.952   2.279  0.0645  0.4020  0.0906
 9827W        W25721   0.685   0.526   3.375 -0.1105 -0.0093 -0.0224
 9828W        W25722   0.723  11.633   3.587  0.1970  0.2312  0.2164
 9829W        W25723  12.470   9.125  12.112 -0.0525 -0.0036 -0.1691
 9830W        W25724   2.181  10.670  13.579 -0.1371 -0.0218  0.3377
 9831W        W25725  11.261   8.085   2.553 -0.0579  0.0823 -0.0568
 9832W        W25726   8.795  17.688   5.540  0.1681  0.1005  0.1869
 9833W        W25727  11.643   0.473   1.640 -0.0347 -0.2226 -0.1308
 9834W        W25728   3.377   2.428  13.527 -0.1554  0.0270  0.0424
 9835W        W25729  11.025   3.165  10.966  0.2334 -0.0647 -0.1014
 9836W        W25730  14.976   3.055  11.839  0.1657  0.3181 -0.2138
 9837W        W25731  12.481   9.299  15.475  0.1117 -0.0390 -0.0652
 9838W        W25732   9.097   1.908  11.704 -0.1021 -0.0529 -0.0768
 9839W        W25733  17.735  16.208   0.108  0.1369 -0.0517 -0.0518
 9840W        W25734  17.107  12.083   4.571 -0.2591  0.0109  0.2723
 9841W        W25735  17.619   2.833   0.232 -0.0941  0.0347 -0.0947
 9842W        W25736  14.107  10.180   5.567  0.1522  0.2404  0.0909
 9843W        W25737  14.074   1.252  11.920 -0.0258 -0.2551 -0.0276
 9844W        W25738  13.991   1.992  10.117 -0.1312 -0.3439 -0.0570
 9845W        W25739  14.490   0.815   3.284 -0.2116 -0.3612 -0.0901
 9846W        W25740   5.492  11.730   1.972 -0.0024 -0.0703 -0.2846
 9847W        W25741  12.419  11.533   1.869  0.2761 -0.2620 -0.1418
 9848W        W25742  12.105  16.411   2.483 -0.0906 -0.0641  0.2067
 9849W        W25743  11.307   6.134   1.426  0.1472  0.0674 -0.0859
 9850W        W25744  11.581  17.517  13.200 -0.1402  0.2523  0.0203
 9851W        W25745   6.574   8.936  14.049  0.0124 -0.1474  0.0982
 9852W        W25746  17.511   9.492  12.734  0.0564 -0.4763  0.0819
 9853W        W25747  11.167  18.481   0.519  0.2377 -0.0345 -0.2448
 9854W        W25748   9.560  14.268   1.123  0.1087 -0.1362 -0.0231
 9855W        W25749  10.325  16.128  14.378  0.0067  0.3418  0.0057
 9856W        W25750   6.146  14.454  10.664  0.2454 -0.0892  0.0183
 9857W        W25751   8.175  10.131   5.092 -0.1577 -0.1934  0.0423
 9858W        W25752   9.255   4.268  12.533  0.2865  0.1651  0.2454
 9859W        W25753   9.002  11.819   1.242  0.0605  0.1499 -0.3724
 9860W        W25754   7.574   0.750   1.526  0.0697 -0.0166 -0.2566
 9861W        W25755  18.430   6.057   0.065 -0.0790  0.0776 -0.4561
 9862W        W25756   5.377   0.238  15.089 -0.1159 -0.0653 -0.0830
 9863W        W25757   7.800   5.444  12.744  0.3610  0.0701  0.2886
 9864W        W25758   3.399   6.891   0.545  0.0816 -0.0589  0.0565
 9865W        W25759  14.383  10.145   0.307  0.2710  0.1810 -0.3848
 9866W        W25760   1.078   5.149   4.417  0.1644 -0.2480 -0.1083
 9867W        W25761   4.434  18.390  12.517  0.0207  0.0428 -0.1204
 9868W        W25762   8.267   2.719   0.625 -0.1073  0.1654 -0.0556
 9869W        W25763  15.766   0.952  14.316 -0.1121 -0.1312  0.0379
 9870W        W25764   3.208   7.540  14.020  0.1089  0.0469  0.1168
 9871W        W25765  18.020   1.315  14.208 -0.2242 -0.0172  0.1173
 9872W        W25766   8.168  10.756  11.977  0.0014 -0.0134  0.0406
 9873W        W25767  10.761  17.473   1.429  0.0497 -0.1385  0.2173
 9874W        W25768   9.689  12.769  14.379  0.1226  0.1710  0.2961
 9875W        W25769   2.717  15.864   0.222 -0.3093 -0.3456  0.2146
 9876W        W25770   8.527  18.577   9.910  0.0968 -0.3343  0.0096
 9877W        W25771   2.550   3.571   3.145 -0.0458 -0.1541  0.2225
 9878W        W25772   0.607  18.360  11.639 -0.2268 -0.3327  0.1934
 9879W        W25773  15.000  10.541  11.739  0.0014 -0.2440 -0.0938
 9880W        W25774  15.941   8.503   1.915 -0.2658  0.4103  0.2391
 9881W        W25775  13.487   6.483   1.658 -0.1393 -0.1197  0.4080
 9882W        W25776  14.557  14.144   2.144 -0.1026 -0.1909  0.0135
 9883W        W25777   7.515  10.109  14.055  0.0829  0.0255 -0.2360
 9884W        W25778  11.076   9.769   1.795 -0.1745  0.2773 -0.3464
 9885W        W25779  17.352  14.508  13.150  0.0199  0.0878 -0.0239
 9886W        W25780  11.998   9.233   5.207 -0.0635  0.0725  0.4968
 9887W        W25781  15.042  11.582  12.432  0.1484  0.0188 -0.0921
 9888W        W25782   3.319   8.719  10.624 -0.1133 -0.1687 -0.0354
 9889W        W25783  15.749   5.511  12.003 -0.4670 -0.1283  0.3559
 9890W        W25784  17.313   0.397   4.329 -0.1055  0.5370 -0.3157
 9891W        W25785   7.541  15.329   0.939  0.1918  0.0781  0.0952
 9892W        W25786  11.058  13.482   2.320 -0.0149 -0.1573 -0.3735
 9893W        W25787   9.892   3.799  13.426  0.1089  0.3123 -0.1116
 9894W        W25788   4.880   0.141  13.795  0.1743 -0.0125  0.0200
 9895W        W25789   3.971  10.711  12.110 -0.2537  0.2089 -0.2733
 9896W        W25790  17.449  12.459  14.952 -0.2650 -0.1473 -0.0459
 9897W        W25791   2.962   1.946   4.270  0.1422 -0.2126  0.0049
 9898W        W25792   3.582  17.036  14.493 -0.2098  0.0688  0.1647
 9899W        W25793   4.025  16.037   2.557 -0.1233  0.0199  0.2274
 9900W        W25794  15.873   0.687   0.297  0.0295  0.3620 -0.0769
 9901W        W25795   2.666  13.184  14.444  0.1232 -0.0501 -0.1117
 9902W        W25796   2.885  12.018  13.547  0.2421  0.1140  0.0195
 9903W        W25797  15.054   5.651   0.546 -0.1065  0.1707 -0.0184
 9904W        W25798  16.755   4.878  15.522 -0.4737  0.0016 -0.3366
 9905W        W25799   5.448   6.674   2.940  0.0001  0.2621 -0.2557
 9906W        W25800   9.685   3.286  14.641  0.2241  0.1894  0.3106
 9907W        W25801  15.424   3.251   4.628 -0.2502  0.3098 -0.2813
 9908W        W25802  15.950  12.065   4.513  0.0141  0.2871  0.0485
 9909W        W25803   3.051   7.274   0.669  0.0602 -0.0863  0.1506
 9910W        W25804   3.099  14.954   1.285 -0.2368  0.0592 -0.0617
 9911W        W25805   3.682   3.325   4.661 -0.1517 -0.3768  0.5111
 9912W        W25806   3.735  13.259  11.950 -0.3541  0.0464 -0.2405
 9913W        W25807   8.943  13.808   1.393 -0.1405 -0.0071 -0.5381
 9914W        W25808  16.098  16.230   3.202  0.0948 -0.0768  0.1995
 9915W        W25809  14.238  11.146   4.111 -0.1148 -0.0523 -0.2287
 9916W        W25810   0.898  12.462   3.548 -0.2174  0.1659  0.0684
 9917W        W25811   8.989   5.342  11.699 -0.0349  0.0418 -0.0363
 9918W        W25812  11.264  13.518  15.214  0.0890 -0.1110  0.0609
 9919W        W25813  14.265   9.835  12.229  0.1368 -0.1006 -0.3836
 9920W        W25814  11.072   5.369  14.669 -0.0732 -0.3068  0.0505
 9921W        W25815   7.033   7.138  12.575  0.0544  0.1003  0.1166
 9922W        W25816  10.020   8.270   1.827  0.1500  0.0054  0.4244
 9923W        W25817   6.992   1.938  12.650  0.1637  0.3130  0.1455
 9924W        W25818  13.942   8.555   4.529 -0.0325 -0.3259 -0.2449
 9925W        W25819   5.717   6.990   0.311 -0.0454  0.0255  0.1179
 9926W        W25820  18.196  11.263   2.614 -0.0295  0.1141  0.0725
 9927W        W25821   2.286  11.565   0.446 -0.2419  0.0300 -0.2524
 9928W        W25822  14.933  17.049  14.807  0.0229  0.3019  0.1840
 9929W        W25823   5.279   5.936   4.128 -0.4680  0.1311  0.0386
 9930W        W25824  12.594   9.151  12.988 -0.1760 -0.0458  0.0960
 9931W        W25825   4.198   2.443  13.749  0.2176  0.0938 -0.0301
 9932W        W25826   8.024  11.780  15.028  0.0585 -0.1167 -0.1366
 9933W        W25827   0.814   3.266   4.493  0.0307 -0.1527  0.1568
 9934W        W25828  17.772  16.478  11.111  0.0105 -0.1517  0.1410
 9935W        W25829   2.904  15.482  12.532  0.1333 -0.2147  0.1511
 9936W        W25830  16.529  17.288  13.539 -0.3494  0.0075 -0.2417
 9937W        W25831  15.494  18.757  15.429 -0.3946 -0.0249 -0.0775
 9938W        W25832   4.135  13.928   3.475  0.2586 -0.1363 -0.1497
 9939W        W25833  14.260   7.035   4.891  0.0412 -0.1357 -0.1410
 9940W        W25834   1.742  17.368  11.611 -0.1095 -0.1283  0.0226
 9941W        W25835   4.422  16.225   4.724 -0.1637  0.2528  0.3018
 9942W        W25836  13.814  12.616   5.462 -0.0683  0.0581 -0.5160
 9943W        W25837   4.260  17.717  11.867 -0.0453  0.1623 -0.0205
 9944W        W25838  10.053   2.357  12.767 -0.0760  0.1916 -0.0499
 9945W        W25839   6.028  13.651  14.714  0.1051  0.1407 -0.1375
 9946W        W25840  14.087  16.342   0.055 -0.1713 -0.2890  0.0523
 9947W        W25841  11.315   3.000  12.980  0.0057  0.1540  0.1053
 9948W        W25842  18.256  16.884   4.587  0.2797  0.0008 -0.0570
 9949W        W25843  12.340  18.157  12.638  0.1430 -0.0112  0.2121
 9950W        W25844   0.740  12.877  11.698  0.1029 -0.1870  0.0053
 9951W        W25845   6.441  14.202   4.515 -0.1499  0.0833  0.0945
 9952W        W25846   1.459  10.208  14.545  0.4930  0.0951 -0.0245
 9953W        W25847   7.159  10.021   4.220 -0.1266 -0.1702 -0.2050
 9954W        W25848   9.686   5.402   3.661 -0.2485  0.1666 -0.3443
 9955W        W25849  17.027   5.879  11.157  0.1434 -0.0453  0.0322
 9956W        W25850  14.238   1.169  11.459 -0.0815  0.2956  0.1188
 9957W        W25851   9.690   2.089   2.580 -0.1130  0.0119  0.0923
 9958W        W25852   9.416   5.193   9.925 -0.0742  0.1436 -0.5984
 9959W        W25853   0.931   9.311   3.435 -0.2594 -0.0387  0.0859
 9960W        W25854  14.918   1.743   0.552  0.0052 -0.0908 -0.2190
 9961W        W25855  16.135  17.938   4.348  0.4816 -0.1031 -0.0892
 9962W        W25856  17.639  18.153   2.471  0.2085  0.4090 -0.0726
 9963W        W25857   5.044  18.281   1.773  0.1049 -0.2243 -0.2201
 9964W        W25858  13.003   4.453   2.091  0.0348  0.1374  0.1393
 9965W        W25859   3.723  16.025  10.467  0.2459 -0.0294 -0.0105
 9966W        W25860  18.275   5.185   0.971  0.0080  0.2225  0.2488
 9967W        W25861  16.999   8.492   4.359 -0.1989 -0.4622 -0.2619
 9968W        W25862  17.815   0.774   2.508  0.0939 -0.0990  0.0944
 9969W        W25863  14.701   9.378  14.789  0.2120  0.1588  0.0641
 9970W        W25864  13.993   9.965  12.688 -0.1033  0.3473  0.0924
 9971W        W25865   8.456   0.897  14.832 -0.0281 -0.2783  0.2074
 9972W        W25866  15.239   1.955   3.865 -0.2749  0.0744  0.1914
 9973W        W25867  14.017   3.545   3.205  0.0626  0.1255 -0.0004
 9974W        W25868   6.259   1.072   0.009  0.0842  0.1173  0.0397
 9975W        W25869  11.971  13.204   1.984 -0.1657 -0.0093 -0.2775
 9976W        W25870  13.467  15.215   0.853  0.3700  0.2283 -0.3537
 9977W        W25871  14.095   6.194  13.392  0.1598  0.1414  0.0611
 9978W        W25872  14.183   6.405   2.711 -0.2502  0.2882  0.0175
 9979W        W25873   4.542  11.699   3.777  0.0641  0.2337  0.4592
 9980W        W25874   4.861  11.953   4.063  0.1745  0.2359  0.1176
 9981W        W25875  15.759  11.925   4.959 -0.0734 -0.2621 -0.3677
 9982W        W25876  13.066  16.437   1.461 -0.1014 -0.0336  0.1765
 9983W        W25877   2.078  15.769  10.957 -0.0244  0.1286 -0.1843
 9984W        W25878  17.208  16.705  13.246 -0.1138  0.1374  0.0333
 9985W        W25879   8.977  13.533  15.345  0.2605  0.2238  0.0694
 9986W        W25880  14.178  16.951  10.895  0.0891  0.1230 -0.2272
 9987W        W25881  12.355   2.063   4.765 -0.0817 -0.0722  0.1165
 9988W        W25882   7.269  15.417   0.485 -0.0711 -0.0917  0.1646
 9989W        W25883  16.426   8.323  14.633  0.4221 -0.0210 -0.0382
 9990W        W25884   1.787  13.211   4.452  0.0083 -0.1862 -0.3512
 9991W        W25885   1.326   4.989  12.084  0.0807 -0.1109 -0.1138
 9992W        W25886   8.830   0.374   0.380 -0.2135  0.0093 -0.1283
 9993W        W25887   1.289   2.959   5.479 -0.1736 -0.2909 -0.2041
 9994W        W25888   1.474  17.267  12.037 -0.0795  0.1173 -0.0649
 9995W        W25889   4.594  15.466  14.473 -0.1809 -0.0983  0.0510
 9996W        W25890   5.718   6.477   2.462  0.0240  0.1310  0.1012
 9997W        W25891  10.435   0.260   0.946 -0.2825 -0.0539  0.0869
 9998W        W25892   5.110   7.268   3.670 -0.0189 -0.0078  0.1688
 9999W        W25893   1.485   2.080   0.481 -0.0171  0.2600  0.0256
10000W        W25894   2.650   0.838  11.924  0.3172  0.0595 -0.0308
10001W        W25895   8.922  12.109   0.423  0.0026 -0.0557  0.2655
10002W        W25896   7.963  18.390   1.762  0.1083  0.0405 -0.1074
10003W        W25897   7.266   4.308   5.110 -0.0480 -0.0730 -0.0942
10004W        W25898  18.204  17.344   3.338 -0.0393 -0.0009  0.0019
10005W        W25899  11.877  13.602  13.132  0.3202  0.1328 -0.1234
10006W        W25900  15.570   6.707  14.132 -0.0753  0.0507  0.0516
10007W        W25901   3.088  10.246   2.871  0.1416  0.2750  0.1571
10008W        W25902   8.245   5.207   1.476 -0.0098 -0.1114  0.0139
10009W        W25903   4.148  14.456  11.543 -0.2905  0.1494 -0.2829
10010W        W25904  18.642  18.490   0.311 -0.2902 -0.2589  0.1971
10011W        W25905  14.183  13.529   2.848 -0.0981  0.0889 -0.2277
10012W        W25906  16.296   5.305   2.205  0.2043 -0.2900 -0.1881
10013W        W25907  12.488   3.123   1.775  0.1084  0.0328  0.1390
10014W        W25908  17.687   9.079   0.614 -0.0506 -0.1125  0.0069
10015W        W25909  13.625  16.122   4.428  0.0520 -0.2896 -0.0471
10016W        W25910  17.974  10.437   3.490  0.0579 -0.1002  0.0654
10017W        W25911  16.741   3.857  15.249 -0.0462  0.4700  0.0650
10018W        W25912   2.147  13.366  13.533  0.1943 -0.2018  0.0753
10019W        W25913   3.920  17.572  14.174 -0.0996  0.0063 -0.2490
10020W        W25914  17.240  18.324  10.437 -0.2184  0.0557  0.2502
10021W        W25915  15.722   5.330  14.679  0.0587  0.1264 -0.1749
10022W        W25916  15.156  13.517  11.957 -0.0451 -0.0241 -0.1559
10023W        W25917   2.187  14.062  15.189  0.0284  0.0417 -0.2738
10024W        W25918  10.992   4.899  14.298 -0.0877 -0.1424 -0.2226
10025W        W25919   8.122  11.308  13.632  0.0145  0.1106  0.0615
10026W        W25920  13.233  18.718  11.309 -0.1737 -0.1732 -0.2035
10027W        W25921  10.479   6.864   1.735  0.0864 -0.1248  0.1572
10028W        W25922   4.532  16.818  12.247 -0.1664  0.1416  0.4937
10029W        W25923   1.775  18.026  13.086 -0.1131 -0.1588 -0.0903
10030W        W25924   8.020  15.061   0.144  0.0487 -0.0780 -0.3761
10031W        W25925   7.145  14.504   3.953 -0.0517 -0.0964 -0.0450
10032W        W25926  17.969  18.048  10.700 -0.0627 -0.1714  0.1616
10033W        W25927   9.888   4.193  13.871  0.3455  0.2882  0.1720
10034W        W25928  12.467   6.247  15.604 -0.2379  0.2748  0.0622
10035W        W25929   9.884  15.900  11.283 -0.1545 -0.1054 -0.0144
10036W        W25930   7.318   9.976   1.914 -0.1299 -0.1286 -0.0440
10037W        W25931   3.101  13.877  13.379  0.1701 -0.0471 -0.0384
10038W        W25932   8.057   4.354  13.046 -0.0611  0.0044  0.2830
10039W        W25933   7.723   6.140   5.378 -0.0864  0.0177  0.2554
10040W        W25934   4.044   0.980  10.732  0.0640  0.0974  0.0389
10041W        W25935   3.182   9.945   2.467 -0.3823 -0.3390  0.1008
10042W        W25936  16.330  14.294  14.726  0.3202  0.3465 -0.1401
10043W        W25937  17.039   5.468   4.229 -0.0411  0.1692  0.0810
10044W        W25938   0.262   8.393  13.733 -0.0860 -0.2853  0.3684
10045W        W25939  14.285  11.002  11.705 -0.3783 -0.0687 -0.1441
10046W        W25940   1.279  17.214   2.412 -0.1215  0.2466  0.0757
10047W        W25941   3.494  11.370   1.227 -0.2119  0.0600  0.0352
10048W        W25942  17.231   6.834   0.016 -0.0474  0.2309  0.1480
10049W        W25943   6.730   6.486  11.220 -0.2171  0.0939  0.4550
10050W        W25944   5.386   6.052  12.759  0.0246 -0.1305 -0.2943
10051W        W25945   4.941   9.009  11.502 -0.1608 -0.0557  0.0483
10052W        W25946  18.555  12.532  12.833  0.0406  0.1481 -0.1359
10053W        W25947  11.099   0.258  14.666 -0.1070  0.4515  0.0929
10054W        W25948  12.613  17.365   1.534  0.1453 -0.1225  0.2291
10055W        W25949  11.356  15.329   2.481 -0.2054  0.2490  0.0752
10056W        W25950   4.593  11.820   1.523 -0.3159 -0.0504 -0.0536
10057W        W25951  16.551  16.680   5.668 -0.1424 -0.1233 -0.0933
10058W        W25952   9.098  10.062   0.450  0.4883 -0.0717  0.1025
10059W        W25953  16.774  18.733   4.579  0.1479  0.0840 -0.1210
10060W        W25954   1.220  10.227  12.843 -0.2027 -0.1054 -0.1454
10061W        W25955  16.497   6.132   0.741 -0.0353  0.1057  0.2819
10062W        W25956   5.272   2.736  12.771  0.2126  0.0176  0.0479
10063W        W25957  11.699  15.365   2.021 -0.0233 -0.4760 -0.1781
10064W        W25958   7.412   8.657   6.130 -0.1623 -0.0475  0.1252
10065W        W25959   4.983   6.189  14.559 -0.1132  0.0338 -0.1107
10066W        W25960  16.541  10.797  12.817  0.1046  0.1277  0.4758
10067W        W25961  14.580   9.503   1.452  0.2098  0.0362 -0.0556
10068W        W25962  17.693   3.470   2.988  0.2585 -0.1047  0.1467
10069W        W25963  15.552  13.242   3.447 -0.1289  0.0265  0.0845
10070W        W25964   2.800   3.238  12.270 -0.0526  0.2485 -0.2743
10071W        W25965   6.867   3.433  14.326  0.1548 -0.2286  0.0416
10072W        W25966   3.099  15.774   1.432  0.1134  0.0529  0.4127
10073W        W25967   8.641   6.387  12.269  0.0693 -0.3003 -0.2410
10074W        W25968  15.514   2.302   4.087 -0.0323  0.1882  0.2583
10075W        W25969   6.192  16.982   4.751 -0.3226  0.1375  0.0353
10076W        W25970  12.592   0.169   3.644  0.2238 -0.0747  0.0608
10077W        W25971   0.168  17.798   3.541 -0.0617  0.0183  0.0909
10078W        W25972  12.266   4.149  12.015 -0.0744 -0.2790  0.3226
10079W        W25973   9.752  11.416  10.990  0.0784 -0.1083  0.1370
10080W        W25974  14.930  13.366  12.961 -0.0351 -0.0562 -0.0690
10081W        W25975   7.383  12.266   3.414 -0.0466  0.3718 -0.2415
10082W        W25976   9.819   9.066   5.486  0.3774  0.0267  0.0187
10083W        W25977  13.898  15.205   1.167 -0.2660 -0.2002 -0.0072
10084W        W25978  10.299  15.472   3.454 -0.0492  0.2440 -0.0157
10085W        W25979   8.836  10.090  12.896  0.0600 -0.0481  0.1508
10086W        W25980   7.270   5.715  12.199  0.2443 -0.0991 -0.1029
10087W        W25981  12.876   3.197  12.020 -0.0826  0.2265  0.1616
10088W        W25982   4.121  18.093   4.621  0.2385  0.0851 -0.1666
10089W        W25983   5.265   9.145  13.264  0.2303  0.0999  0.2481
10090W        W25984   0.902   7.137   1.826 -0.0967 -0.0148  0.0709
10091W        W25985  15.809  10.770  14.589 -0.0918 -0.2029 -0.1377
10092W        W25986  13.064  16.001   1.197 -0.1853  0.0851 -0.0008
10093W        W25987  11.837  13.834  10.783 -0.2379  0.4785  0.1532
10094W        W25988  17.122   2.659  11.284  0.1629  0.0493  0.0564
10095W        W25989  17.005   4.502  14.552 -0.0571 -0.1504 -0.2433
10096W        W25990  15.782   1.906  14.433 -0.3215  0.0969 -0.1661
10097W        W25991  18.238  13.351   1.413  0.0943  0.1848  0.1935
10098W        W25992   3.386   8.555   2.077 -0.0571 -0.0154  0.3477
10099W        W25993   4.689  16.159  10.540 -0.0223  0.2113  0.1336
10100W        W25994   8.671   1.823   3.302  0.0833  0.0726  0.0893
10101W        W25995   6.998   5.346  13.929  0.0129 -0.0698  0.0327
10102W        W25996  16.572  18.181  10.685 -0.1104  0.1710  0.0538
10103W        W25997   1.326   7.466   2.042 -0.1360 -0.0651 -0.1993
10104W        W25998  11.301   4.915   4.418 -0.0023 -0.1587  0.1199
10105W        W25999   0.786  11.774  14.143  0.0097 -0.2307 -0.0481
10106W        W26000   9.262  14.080   6.129  0.1793 -0.1094 -0.0161
10107W        W26001  17.310   9.941   4.302 -0.0744  0.0995  0.4884
10108W        W26002   4.891  15.952  12.580  0.0414  0.0471  0.2515
10109W        W26003  18.381  15.711   3.241  0.0725 -0.0546  0.1141
10110W        W26004  13.941  16.280  14.522  0.1659 -0.1045 -0.1280
10111W        W26005   6.045  12.160   2.944  0.3299  0.1802  0.4648
10112W        W26006  10.767   4.349  11.996  0.1100 -0.0225  0.1040
10113W        W26007  11.852   1.386   3.025 -0.3500 -0.0765  0.1290
10114W        W26008   7.462  11.512   3.693  0.0174 -0.0059  0.0775
10115W        W26009   2.328   2.508   4.073 -0.4444  0.1811  0.0344
10116W        W26010  18.381  10.550  11.014  0.0458 -0.2362 -0.3215
10117W        W26011  15.224   7.331  11.329  0.0031  0.0117  0.1605
10118W        W26012  13.423  14.165  15.420 -0.0385 -0.0972  0.1118
10119W        W26013  11.055   8.043   3.489 -0.0651 -0.0728  0.0380
10120W        W26014  13.269   5.920  15.612 -0.0874  0.0575 -0.2379
10121W        W26015  14.960   2.581   2.322  0.0907  0.1840  0.0563
10122W        W26016   1.088  10.180   4.601 -0.0136  0.2378 -0.2569
10123W        W26017  14.835   9.147   4.044 -0.4606 -0.0758  0.4887
10124W        W26018  17.934  12.727   0.474 -0.0779  0.0430 -0.0105
10125W        W26019  18.572  10.366  12.333 -0.0444 -0.2997 -0.1408
10126W        W26020   7.714  10.929  13.732  0.3278  0.1463 -0.1987
10127W        W26021   3.883   7.126   1.871  0.0621 -0.0265 -0.0315
10128W        W26022   9.386  14.343  15.365 -0.2723 -0.0090  0.1216
10129W        W26023  10.246   4.670  14.979 -0.1928 -0.0503 -0.0617
10130W        W26024   8.708   5.314   0.937 -0.1212 -0.4018 -0.0895
10131W        W26025  11.921  13.472   0.359  0.2000 -0.0808  0.1476
10132W        W26026   3.515   8.625   1.103  0.0268  0.2250  0.3137
10133W        W26027  17.789   4.852  12.228  0.1019 -0.1606  0.0882
10134W        W26028  11.291   1.217   5.785  0.0981 -0.1181 -0.0197
10135W        W26029  16.632   2.753   4.892  0.1472 -0.2144 -0.3008
10136W        W26030  14.863  15.984  15.253  0.0554  0.1217  0.1939
10137W        W26031  10.767   8.613  14.102  0.3530 -0.1391 -0.2129
10138W        W26032  12.262  16.809   3.652  0.2201  0.1720 -0.2611
10139W        W26033   4.294  16.729  15.590 -0.0716  0.1020  0.0143
10140W        W26034   5.874   3.180   1.202 -0.3590 -0.2226  0.2848
10141W        W26035  12.849   5.026   2.511  0.1674 -0.2286  0.0030
10142W        W26036  16.035   1.200  12.029  0.0305  0.2704  0.0223
10143W        W26037  11.287  10.767   0.369 -0.0880 -0.1299 -0.1876
10144W        W26038   9.987  15.423  14.772 -0.0747 -0.0472  0.0927
10145W        W26039   6.570  13.403   4.827 -0.1395  0.2169  0.0387
10146W        W26040   4.900  12.132  12.311  0.2740  0.0137 -0.3369
10147W        W26041   1.254   0.266   2.563  0.1327 -0.2805 -0.2232
10148W        W26042   2.154   4.686   4.911 -0.0857  0.0543 -0.0893
10149W        W26043  14.038  10.652  11.571  0.2790  0.7382 -0.0365
10150W        W26044   9.272   9.770   1.534 -0.0109  0.4263  0.0556
10151W        W26045   9.326  17.111   0.945  0.2865  0.0460  0.2818
10152W        W26046  16.487   2.003  12.649  0.2686 -0.1520  0.3038
10153W        W26047   4.604   8.718   0.662 -0.1753 -0.2014  0.5512
10154W        W26048   0.101  12.744   4.098  0.4770 -0.1250  0.1747
10155W        W26049   5.111  14.727  13.649 -0.1422 -0.1065  0.0402
10156W        W26050   9.269  16.990  11.864 -0.1842 -0.2101  0.2060
10157W        W26051   4.355   6.275  10.839 -0.0723  0.2898 -0.2411
10158W        W26052   5.298   5.666  14.001  0.1008 -0.1257 -0.0206
10159W        W26053  18.664  16.464   0.040  0.0277  0.1718  0.1476
10160W        W26054   8.564   2.558  12.731 -0.3465 -0.0250  0.1085
10161W        W26055   1.789   7.508   3.771  0.0858  0.2772  0.3667
10162W        W26056   1.110  10.681  11.722  0.1686 -0.3222 -0.0937
10163W        W26057   9.011  15.551  13.650  0.2367 -0.0313  0.0832
10164W        W26058  18.073  15.660   0.534 -0.0251  0.0992 -0.2426
10165W        W26059  15.444   7.013   2.008  0.0556  0.0762  0.2275
10166W        W26060   1.289   3.954  13.573 -0.0451  0.0450 -0.0487
10167W        W26061  12.455  17.969  12.052  0.1099 -0.2148 -0.1633
10168W        W26062  11.485   7.514   1.694 -0.1228  0.1263 -0.1269
10169W        W26063  17.767   8.843  12.347 -0.1787 -0.0489  0.2223
10170W        W26064   3.166   0.767   3.387  0.0224  0.1874 -0.1386
10171W        W26065   6.696  15.463  11.811 -0.0051 -0.2311 -0.0057
10172W        W26066   7.884   8.010   6.237 -0.1957 -0.3740  0.1465
10173W        W26067  12.497  16.078   2.017 -0.1488 -0.2788 -0.0135
10174W        W26068   1.030   3.450   1.196  0.2712  0.0303 -0.1832
10175W        W26069   1.376  16.647   4.134  0.1347 -0.0535 -0.3136
10176W        W26070  10.891   9.387   1.519 -0.0139 -0.1048 -0.0276
10177W        W26071   4.684   1.051   3.110 -0.2564  0.0173  0.0661
10178W        W26072   5.754  12.844  13.666  0.0409 -0.0199 -0.0062
10179W        W26073   6.783  13.880   1.502  0.0156 -0.0323 -0.3825
10180W        W26074  13.998   0.124  14.787 -0.1778  0.1946  0.0818
10181W        W26075   6.827   3.840   2.020  0.3901 -0.0176 -0.0992
10182W        W26076   5.354  16.382   3.653 -0.1865  0.0317  0.1821
10183W        W26077  12.780   2.761  13.330  0.1231 -0.1875 -0.0224
10184W        W26078  11.125  14.178   3.747 -0.0677 -0.0017  0.2757
10185W        W26079   3.880   3.970  12.332 -0.2522  0.1422 -0.1892
10186W        W26080  10.541   2.944   3.740  0.2639  0.2834  0.1267
10187W        W26081   1.187   2.832   0.985 -0.0364  0.0784 -0.5034
10188W        W26082   5.351  14.220   3.721  0.0384 -0.0596 -0.0003
10189W        W26083   5.131   6.420  12.444  0.1042 -0.0839  0.3479
10190W        W26084  12.344  10.133   3.876  0.1586  0.1483  0.3573
10191W        W26085  10.923   4.668  12.411  0.0082 -0.2958 -0.0032
10192W        W26086  10.923  18.259  14.313  0.0584 -0.1043  0.5135
10193W        W26087   1.740   2.682   3.549 -0.3895  0.2009  0.1407
10194W        W26088   2.900   2.490  10.880 -0.1781 -0.0980  0.0945
10195W        W26089  11.056  17.329   1.932 -0.2182  0.3220 -0.2078
10196W        W26090  18.471  15.770   4.200  0.2553 -0.1866  0.0405
10197W        W26091  14.969  13.735  12.376 -0.2629  0.0081 -0.0397
10198W        W26092   3.384  16.105  14.763 -0.0622  0.0592 -0.3216
10199W        W26093   7.652   2.826  10.550  0.1365  0.0294  0.0760
10200W        W26094   2.590   9.920  11.970 -0.2429 -0.3563  0.0204
10201W        W26095  12.686  12.307   1.418 -0.0020 -0.1544 -0.1973
10202W        W26096   1.193  12.948   2.332  0.0260 -0.0640 -0.2822
10203W        W26097  11.675   5.840   3.871  0.1750  0.1318 -0.1655
10204W        W26098  17.585   4.268  15.095 -0.0259  0.2042  0.0150
10205W        W26099   9.343   8.956  12.506  0.0228  0.3790  0.3038
10206W        W26100   7.810  13.358   3.516  0.3189  0.1833 -0.3628
10207W        W26101  16.352   6.773  14.407 -0.1386 -0.1782  0.1964
10208W        W26102   3.251  16.222   3.555  0.0637 -0.1267  0.1913
10209W        W26103   2.542  12.791  15.412  0.0256  0.1616  0.1594
10210W        W26104   8.633  10.332  14.482  0.1501  0.3319  0.4545
10211W        W26105   3.996   7.169   1.007 -0.0467  0.2044 -0.1680
10212W        W26106  11.330  14.547   4.963 -0.3261  0.0415 -0.1901
10213W        W26107   3.345   6.196  12.166  0.1749 -0.4083  0.1552
10214W        W26108  10.430  12.318   4.944  0.1531 -0.1064  0.0785
10215W        W26109  13.149   1.205  13.438  0.1101  0.0407 -0.0298
10216W        W26110  12.988   5.796  12.440 -0.0379 -0.1493  0.2227
10217W        W26111   5.609   0.506   1.126  0.1550 -0.1222  0.2273
10218W        W26112  15.061  17.324  10.721 -0.0521  0.0419 -0.0349
10219W        W26113  18.403  11.805   2.430 -0.1713  0.0607  0.0642
10220W        W26114  16.666   6.901   4.970  0.0191 -0.0803  0.2747
10221W        W26115  15.523   0.240   4.280  0.1575  0.0629 -0.0808
10222W        W26116   3.100   4.295  10.573  0.0626  0.0058  0.1399
10223W        W26117   5.372  12.500  13.854 -0.1430  0.3390  0.0136
10224W        W26118   9.264  14.085   2.156  0.1468 -0.0936 -0.1257
10225W        W26119   6.798  18.375  13.976  0.2457 -0.4888 -0.1780
10226W        W26120  16.705   6.330   3.353 -0.2242  0.0794  0.0551
10227W        W26121  18.087  12.000   5.707 -0.0641  0.0474  0.2015
10228W        W26122   3.065   5.749  10.701  0.1353  0.1314  0.2792
10229W        W26123   0.408   6.071   1.402  0.0419  0.0909 -0.0549
10230W        W26124   8.165  12.688  13.084 -0.0671 -0.0681 -0.2445
10231W        W26125   8.183  18.621   2.238  0.0448 -0.1594  0.1221
10232W        W26126   7.744   3.107  14.335 -0.0811 -0.2429 -0.4374
10233W        W26127  11.441  11.955   0.589 -0.0481 -0.1058 -0.0980
10234W        W26128   4.011  12.274  15.324 -0.0863  0.1418 -0.1004
10235W        W26129   1.324   9.330  14.801  0.2746 -0.0614  0.4291
10236W        W26130  13.965  10.150  11.336  0.1248  0.1035  0.3358
10237W        W26131   0.635   0.066  12.420 -0.0360  0.0233 -0.2261
10238W        W26132   5.445   7.776  11.892  0.2041  0.0740  0.2528
10239W        W26133  12.717   0.083  12.144 -0.2026 -0.1072  0.0731
10240W        W26134  14.103   7.325   5.251 -0.0073 -0.0074  0.1900
10241W        W26135  10.206  16.608   1.552  0.0854 -0.0118 -0.1468
10242W        W26136   8.133   0.761   0.911  0.0970 -0.0662 -0.2946
10243W        W26137  12.854  10.211   2.307  0.2342 -0.6494  0.5192
10244W        W26138   2.432   3.404   0.106 -0.1723  0.0169  0.3032
10245W        W26139   0.385  10.216   1.907  0.2319 -0.4583  0.2945
10246W        W26140  11.027  12.856  14.524  0.0782 -0.2061 -0.0909
10247W        W26141   3.794   2.832  11.244  0.0367 -0.0179  0.1502
10248W        W26142  18.107   4.357   3.282 -0.2806  0.1019  0.1661
10249W        W26143  18.357   9.724  15.383 -0.0992 -0.0498 -0.0747
10250W        W26144   8.004   8.833   0.435 -0.1352  0.4547 -0.1939
10251W        W26145   5.729   7.170  12.508 -0.1487 -0.2876  0.2458
10252W        W26146  12.972  12.084  13.256  0.0573 -0.0190 -0.0656
10253W        W26147  13.744  15.970  15.452  0.2613  0.1499 -0.0904
10254W        W26148   2.805  16.650   0.746 -0.0805 -0.1044  0.0283
10255W        W26149  12.198   8.307  11.890  0.0975 -0.0058 -0.1096
10256W        W26150   4.514   7.620  15.317 -0.2512 -0.2237  0.0416
10257W        W26151   6.307   2.292   2.932 -0.1097  0.0722  0.2888
10258W        W26152  18.375  11.177  12.286  0.1686 -0.2813  0.0296
10259W        W26153  12.958  13.474   3.764 -0.1671 -0.0780 -0.2977
10260W        W26154  13.309  12.775  12.994 -0.0953  0.0363  0.0085
10261W        W26155   9.017  12.654   1.772 -0.0385  0.1149 -0.1440
10262W        W26156  16.068   0.796   4.248  0.2968 -0.0181  0.1909
10263W        W26157  11.793  12.932   3.006  0.1110  0.4622  0.1092
10264W        W26158   0.776  15.372   2.109 -0.1823 -0.1570  0.2663
10265W        W26159   6.179   0.239  15.359 -0.1349  0.0910  0.1156
10266W        W26160  17.627   6.447   0.044  0.0353 -0.0156  0.0060
10267W        W26161   3.901   2.742   2.864  0.0006  0.1864 -0.1036
10268W        W26162  14.651   8.792   0.631  0.2108  0.0758 -0.1613
10269W        W26163   3.074  12.531   2.501  0.1842  0.0154 -0.0838
10270W        W26164  16.920   8.191   1.836 -0.0848  0.0515  0.1766
10271W        W26165   9.437   2.253   1.690  0.2347  0.0894  0.3666
10272W        W26166   6.982  14.234  11.791  0.0025  0.0816 -0.0691
10273W        W26167  12.773   4.843   4.942 -0.2279  0.0660 -0.0553
10274W        W26168  15.380  12.196  11.080 -0.2072  0.0903 -0.0587
10275W        W26169  14.159   4.697  11.186  0.1697  0.1410  0.1663
10276W        W26170  13.131   1.245   3.704  0.1188  0.2155  0.2147
10277W        W26171  10.870  14.503  13.810 -0.0234 -0.2327 -0.1117
10278W        W26172  17.945   1.486   3.211 -0.1475  0.0433  0.2401
10279W        W26173  12.698  15.214   1.313  0.1511  0.0354 -0.1666
10280W        W26174  16.666  10.164  11.654 -0.1711  0.1570 -0.0929
10281W        W26175   2.822  16.305  12.550  0.0963 -0.2918 -0.1736
10282W        W26176   9.969   0.514   3.820 -0.1258 -0.0934 -0.1984
10283W        W26177  15.397   8.496   1.164  0.0626  0.2631 -0.2513
10284W        W26178  10.421   1.783   4.813 -0.0564 -0.1476  0.0509
10285W        W26179   3.296   5.365  13.437  0.3014  0.0632 -0.0109
10286W        W26180  10.016  10.712  12.807 -0.1991 -0.1383 -0.2589
10287W        W26181  17.199   2.134  13.263  0.0696 -0.2443  0.0736
10288W        W26182   3.026  14.717  11.163 -0.2289 -0.0600 -0.4895
10289W        W26183   0.493  16.527   3.054  0.1578 -0.1623  0.0126
10290W        W26184   8.126  16.079  14.436  0.3305  0.4449 -0.0546
10291W        W26185   0.579   4.536   0.461 -0.0531 -0.1680  0.0003
10292W        W26186  18.144   9.921  14.586 -0.1361 -0.0776  0.0377
10293W        W26187  16.120   6.816  12.791  0.1816 -0.2561 -0.0318
10294W        W26188   6.339   3.024   5.363 -0.1886  0.1351 -0.3996
10295W        W26189   7.958  12.812  11.081  0.2747  0.3899  0.0398
10296W        W26190   4.653   8.012   3.951  0.0047  0.2971  0.0246
10297W        W26191   5.581  17.523   1.695 -0.0330 -0.3558  0.0585
10298W        W26192   7.178   4.153  11.644 -0.1199  0.2125  0.1067
10299W        W26193  16.620   6.977   0.478  0.1141  0.2130 -0.1848
10300W        W26194  15.325  10.683  12.571  0.0561  0.1327 -0.1233
10301W        W26195   9.640   5.931   0.559 -0.0143 -0.0872 -0.1241
10302W        W26196   5.367  14.590  10.532  0.2851 -0.1103 -0.1020
10303W        W26197   4.278   3.385   3.749 -0.0306 -0.0678  0.1311
10304W        W26198   4.082  10.798  13.696  0.0718 -0.0067  0.0308
10305W        W26199   4.275  11.393  10.353  0.5085 -0.1114 -0.0592
10306W        W26200   6.301  16.796   2.743  0.0754 -0.1277 -0.0388
10307W        W26201   6.846   9.255  14.322 -0.0726 -0.1724  0.1366
10308W        W26202  11.218  15.837   4.389  0.0385 -0.1451  0.2943
10309W        W26203  18.394  17.243  14.408 -0.1874  0.2242  0.4792
10310W        W26204  15.901  15.998  15.444  0.0122  0.3563 -0.0736
10311W        W26205  18.259  14.670  14.103 -0.3605  0.1969 -0.2967
10312W        W26206   6.281   4.880   1.970 -0.1994 -0.1060 -0.2659
10313W        W26207  16.032  10.044  12.489 -0.0121 -0.0112  0.1641
10314W        W26208  18.372   0.258   4.509  0.0968  0.2239 -0.0037
10315W        W26209  13.637  18.140  10.527  0.0797 -0.1744  0.0494
10316W        W26210  13.243  13.797   4.392  0.1457  0.1935  0.2873
10317W        W26211  13.077   7.984   0.885  0.0791 -0.2324 -0.0688
10318W        W26212  14.425   0.332  12.418  0.0923  0.0709  0.0358
10319W        W26213   7.248  15.858   5.857 -0.0237  0.1467  0.2440
10320W        W26214   7.268   1.915  13.400  0.0251  0.0531 -0.0130
10321W        W26215  11.343   7.192   2.553  0.1582  0.1239 -0.0867
10322W        W26216  15.832   7.995   0.278  0.0370 -0.4248  0.2730
10323W        W26217  16.459  14.229  15.393  0.0528 -0.0883 -0.0443
10324W        W26218   3.628  16.929   5.206 -0.2839 -0.2860  0.2239
10325W        W26219   9.355   6.923  12.392  0.2109  0.2595  0.2302
10326W        W26220   2.587   1.899   1.965 -0.2098 -0.4012 -0.3285
10327W        W26221   3.767  15.507   1.461 -0.0870  0.1057 -0.1034
10328W        W26222  18.349   7.190   0.324 -0.1079  0.1185  0.1938
10329W        W26223   8.796   5.828  11.498  0.0103 -0.2542  0.1143
10330W        W26224   8.566  14.433  13.620 -0.1158 -0.1109 -0.1079
10331W        W26225  18.664   4.803  11.337 -0.0863 -0.1252 -0.3889
10332W        W26226   5.868  17.573  13.400 -0.1842  0.3207  0.0300
10333W        W26227   8.023   5.523   0.230 -0.1346  0.4576 -0.1302
10334W        W26228   1.460   1.127   2.508 -0.1548 -0.3861  0.1111
10335W        W26229   5.856  17.483   2.662 -0.0075 -0.0769 -0.1068
10336W        W26230  13.838   2.713   5.746 -0.4686  0.0725  0.0274
10337W        W26231   3.686   0.911   3.336 -0.1535 -0.1847  0.5626
10338W        W26232  11.218   1.630  12.802 -0.1286  0.2163 -0.1990
10339W        W26233  18.128   7.276  12.774  0.0639 -0.1396 -0.2766
10340W        W26234  17.755   8.946  11.861 -0.3678 -0.0373  0.3324
10341W        W26235  18.643   5.573   2.873  0.2460  0.0748 -0.1716
10342W        W26236  10.894   0.171  12.016 -0.2110 -0.0805  0.0838
10343W        W26237  11.587  13.849  12.167 -0.1851 -0.1809  0.0762
10344W        W26238   7.153  11.934  12.542  0.0630  0.0081 -0.2797
10345W        W26239   2.595   8.864   2.966 -0.3766 -0.3198 -0.1844
10346W        W26240   8.030   1.164   2.104 -0.2216  0.1589  0.0527
10347W        W26241   9.431   3.841  14.930 -0.2414  0.0164 -0.2392
10348W        W26242   0.160   7.480  12.886  0.0546 -0.1110 -0.0337
10349W        W26243   3.617   8.693  12.366  0.1123  0.2353 -0.0874
10350W        W26244   9.926   1.655   4.073 -0.3940 -0.0062  0.0623
10351W        W26245   6.237   8.609  13.227 -0.0305 -0.1468  0.1720
10352W        W26246   3.608  16.615  12.453  0.2188 -0.2198  0.2090
10353W        W26247   5.223   9.396   3.820  0.1305  0.4032 -0.0211
10354W        W26248  16.576   2.619  12.132  0.0413  0.0871  0.4040
10355W        W26249   9.787  16.833   1.228  0.2117  0.2585 -0.0867
10356W        W26250   7.727   5.512  11.018  0.1499  0.2175 -0.0192
10357W        W26251   7.515  10.499   3.348  0.1088 -0.2866  0.1156
10358W        W26252   2.971   3.940  12.733  0.1189 -0.1615 -0.0617
10359W        W26253  11.414   4.817   1.772 -0.2208 -0.1020 -0.1678
10360W        W26254   2.673  16.172   4.958 -0.0244  0.0330 -0.1069
10361W        W26255   4.508   0.043  14.723  0.3485  0.1607 -0.2372
10362W        W26256   2.616  13.796   4.404 -0.4424 -0.0398  0.0178
10363W        W26257  10.931   3.967   4.583  0.0748  0.1709 -0.1887
10364W        W26258   1.479  17.851  13.857  0.1023 -0.1189 -0.0229
10365W        W26259   7.514  15.803   2.216  0.0641 -0.1501 -0.0525
10366W        W26260  18.695   3.384   1.037  0.2005 -0.0199  0.1052
10367W        W26261  16.797  10.823   3.256  0.1899 -0.2947 -0.4863
10368W        W26262   2.837   7.162  10.749  0.0029  0.1044 -0.0510
10369W        W26263  17.330   1.592   0.421 -0.3292 -0.0442 -0.3408
10370W        W26264  15.202   6.431  13.967  0.0452 -0.1126 -0.1884
10371W        W26265  18.528   2.147  12.917 -0.0001 -0.4434  0.1948
10372W        W26266  10.895  10.781   2.994 -0.0575 -0.0205 -0.0322
10373W        W26267   9.689   8.806  13.508  0.0597  0.3635  0.0729
10374W        W26268   0.207   2.583  15.210 -0.1144  0.1178 -0.2979
10375W        W26269   1.159   5.233   5.176 -0.0719  0.4318 -0.5910
10376W        W26270   3.632   3.527  13.370  0.1399  0.2750 -0.0707
10377W        W26271  14.398   9.591   3.136  0.1301 -0.2416  0.0507
10378W        W26272   9.180   9.892  13.254  0.0291 -0.3692  0.3420
10379W        W26273   3.882  15.937  15.294  0.1429 -0.4225  0.0868
10380W        W26274   8.162   2.315   0.315  0.0654 -0.0371  0.2010
10381W        W26275   9.473   6.084   0.078  0.0645  0.0577  0.1815
10382W        W26276  17.589   8.543  13.944  0.0138 -0.2972 -0.0989
10383W        W26277   6.713  16.516  14.556  0.2345  0.0125 -0.0225
10384W        W26278   5.524   8.458   3.277 -0.0533  0.1271 -0.0231
10385W        W26279  18.625   2.916   1.057  0.2371  0.1846  0.2314
10386W        W26280   6.208  17.230  15.545  0.0127  0.0426  0.0539
10387W        W26281  12.046  17.258  14.679  0.3148 -0.1934 -0.1604
10388W        W26282  14.358   8.144  14.440  0.0106  0.1742  0.0914
10389W        W26283  10.838  11.612   1.813 -0.1445  0.2558  0.1633
10390W        W26284  14.888  14.820  10.683 -0.1117  0.0013 -0.0041
10391W        W26285   7.268   4.726  12.241  0.0289  0.2335  0.1048
10392W        W26286   9.248   0.274  11.416 -0.3652  0.1964  0.1073
10393W        W26287  10.884  14.166  12.756 -0.1005 -0.2355 -0.0267
10394W        W26288  15.221  12.079  12.215  0.1002 -0.0414 -0.1358
10395W        W26289   2.727   0.124   0.878  0.1914 -0.3155 -0.2066
10396W        W26290   5.168   0.354  12.356  0.1238  0.1722  0.2056
10397W        W26291   1.509  13.816   0.157 -0.0715 -0.4308  0.1071
10398W        W26292  10.212  18.477   3.950  0.0614 -0.0298  0.2896
10399W        W26293  14.045   2.149  13.886 -0.2259 -0.1159  0.1229
10400W        W26294   1.641   9.954   2.045 -0.3250  0.1272 -0.2189
10401W        W26295  11.321   9.266   0.661  0.2067 -0.1757  0.0683
10402W        W26296   1.460  15.291  15.389 -0.0538  0.1135  0.1167
10403W        W26297   0.053  16.207   1.881  0.1223  0.0491  0.1948
10404W        W26298  11.587  11.002  11.961  0.2469 -0.5740  0.3967
10405W        W26299  10.050  14.820  11.688  0.1400  0.1802  0.1647
10406W        W26300   7.900  18.526  10.849 -0.1624 -0.5020  0.0876
10407W        W26301  12.175  16.589  14.578  0.2236 -0.0007 -0.0175
10408W        W26302   1.867  10.168   2.609 -0.0152  0.1415  0.0048
10409W        W26303  13.598   2.540   5.333  0.1152 -0.1455  0.2904
10410W        W26304   9.774  18.336  11.894  0.2488  0.3075 -0.0612
10411W        W26305  13.422  14.615   1.512 -0.3366 -0.0063  0.2182
10412W        W26306   3.863   8.888  12.801 -0.0807  0.3567  0.0049
10413W        W26307   7.185  13.752   3.216 -0.1698 -0.0077  0.3485
10414W        W26308  11.997   9.230  14.680  0.0877  0.2711  0.0282
10415W        W26309   6.233   7.583  13.720 -0.2044  0.0091 -0.2456
10416W        W26310  17.146   5.933  14.080 -0.4085  0.0666 -0.2939
10417W        W26311   1.609  13.865  15.264  0.2290  0.2110  0.1575
10418W        W26312   8.868  12.464  12.443 -0.0758 -0.1324  0.0452
10419W        W26313   4.780   0.812   2.043 -0.1552  0.1180  0.4994
10420W        W26314   7.077  16.774  14.383  0.1057  0.1793 -0.1058
10421W        W26315  13.933  14.735   1.626 -0.2400 -0.0506 -0.3650
10422W        W26316   0.108  14.738   5.331 -0.0183  0.0422 -0.0675
10423W        W26317  11.343   4.659  15.166  0.0001 -0.0905 -0.1114
10424W        W26318  11.253  14.299  14.100 -0.2109 -0.0957  0.1358
10425W        W26319   8.249   8.000   3.193  0.1373  0.1637  0.0597
10426W        W26320  12.732  13.211   1.433 -0.0178  0.0293  0.1833
10427W        W26321   4.420   7.474   1.100 -0.0286 -0.1725  0.3155
10428W        W26322  15.886   2.419   0.836 -0.1676 -0.1389  0.0717
10429W        W26323   4.568  10.842  14.387  0.1962 -0.0532  0.1828
10430W        W26324  17.790   3.975  10.978  0.1139  0.2176 -0.0437
10431W        W26325  12.889   7.788  15.284  0.0015  0.0505 -0.0886
10432W        W26326  12.263  11.612   3.904  0.1213 -0.0073  0.0959
10433W        W26327  16.578   8.796   4.260 -0.2551  0.0144  0.1120
10434W        W26328  10.543  18.746   2.604 -0.0090  0.0217  0.1013
10435W        W26329  11.343   5.102   4.885 -0.0055 -0.1220  0.3848
10436W        W26330   3.118   8.908  11.060  0.0438  0.0474 -0.0045
10437W        W26331  15.956  15.938   3.947 -0.1930  0.2082  0.1165
10438W        W26332   9.127   7.191  11.057  0.0735 -0.2358 -0.0989
10439W        W26333   8.033   0.113   4.811  0.1217  0.4714  0.1722
10440W        W26334  14.000   5.171   4.325  0.2374 -0.3442 -0.0311
10441W        W26335  18.107   8.685  15.550  0.0080 -0.3353  0.0653
10442W        W26336   9.244   0.979  12.381 -0.4092  0.0711 -0.1330
10443W        W26337   9.782   1.227   2.909 -0.1220  0.1641 -0.0625
10444W        W26338   3.712   7.085  14.846  0.0720 -0.0664 -0.2294
10445W        W26339  17.372   5.857   6.239 -0.1609  0.0411  0.0631
10446W        W26340  15.799  17.781  12.774 -0.1148 -0.1729 -0.0102
10447W        W26341   4.380  10.391   4.647  0.3033 -0.1277  0.0988
10448W        W26342  18.240   0.637   2.727  0.2711 -0.2295  0.0377
10449W        W26343  12.277   5.108  15.343  0.1753  0.0591 -0.2347
10450W        W26344  15.677  17.628  14.063  0.0952 -0.0103 -0.1255
10451W        W26345   6.718  15.970   3.348 -0.1311  0.2728 -0.0996
10452W        W26346   0.003   2.287   5.260  0.1137 -0.4286 -0.2435
10453W        W26347   3.401   1.020   4.839  0.1472 -0.1104  0.0165
10454W        W26348  11.423   8.382   4.147 -0.2416  0.1825  0.2206
10455W        W26349   7.305   8.606  14.331 -0.4944 -0.0147  0.1132
10456W        W26350   8.516  14.774  14.592 -0.1199 -0.1321 -0.0641
10457W        W26351   8.509  10.752   4.809 -0.0019 -0.0231  0.0636
10458W        W26352  15.001   5.105   2.733 -0.0636  0.3979 -0.0258
10459W        W26353   6.681   5.637  13.577 -0.0067 -0.0233  0.0744
10460W        W26354   2.745  10.824  14.347  0.2302  0.0904 -0.0957
10461W        W26355   3.849   6.760  12.481 -0.0003 -0.0339 -0.0218
10462W        W26356  14.030  12.060   4.617  0.0939  0.1674 -0.1264
10463W        W26357   7.536   5.012  12.589  0.1782  0.0346  0.1013
10464W        W26358  15.603   2.345  11.066 -0.3134  0.0615  0.2374
10465W        W26359   9.893  18.010   0.109  0.2538 -0.2694 -0.1604
10466W        W26360  18.585  18.563  12.396 -0.1554 -0.0538  0.2012
10467W        W26361   5.607   0.869  10.676 -0.1281  0.0225 -0.2163
10468W        W26362  17.854   5.048   0.748 -0.2475  0.2807 -0.1101
10469W        W26363   1.097   9.444   5.111 -0.0133 -0.0409  0.1464
10470W        W26364   4.210   7.182  13.765  0.0492  0.3428 -0.1407
10471W        W26365  12.935  18.535  13.352  0.1788  0.3348 -0.0147
10472W        W26366   3.645   5.223  15.058  0.2770 -0.1270 -0.1271
10473W        W26367   6.381  13.612  11.221  0.1064  0.3227  0.2382
10474W        W26368   2.221   9.570  14.716  0.2274 -0.0038 -0.3044
10475W        W26369  10.153  17.879   5.374  0.1216  0.2837 -0.0093
10476W        W26370  16.624   0.319   2.932 -0.0321  0.1628 -0.3563
10477W        W26371   1.867  10.384   2.188  0.0793 -0.3321  0.0627
10478W        W26372  12.072  17.518   4.318  0.3147  0.0456  0.1035
10479W        W26373  14.198  10.018  15.286  0.1141  0.0249 -0.1085
10480W        W26374  18.517   1.304  13.333 -0.1121 -0.0774 -0.0453
10481W        W26375   9.539   0.803   3.672 -0.4888  0.2786 -0.0321
10482W        W26376   5.125  13.232   4.003 -0.1871 -0.0898 -0.1122
10483W        W26377   0.118   6.760  15.315  0.0989 -0.0776  0.0196
10484W        W26378   9.802  15.167  10.714  0.0725  0.0866  0.0680
10485W        W26379  18.723   1.989   4.070 -0.0435  0.1569  0.1385
10486W        W26380   1.144  13.838  15.464  0.0666  0.1913  0.0209
10487W        W26381  15.123   4.660   0.887 -0.5256  0.1604  0.1116
10488W        W26382   2.664   1.220   0.927  0.2047  0.0183  0.1649
10489W        W26383   9.046  10.043   4.923  0.2133 -0.1361  0.2518
10490W        W26384   2.620   5.287  14.703  0.1797 -0.2539 -0.1588
10491W        W26385   8.991   9.559   5.061  0.4098 -0.1917  0.0119
10492W        W26386  10.006  10.349   1.373  0.0434 -0.1866 -0.0543
10493W        W26387   2.200  17.764   5.495  0.1875  0.0273  0.1206
10494W        W26388  11.784  14.607  13.687 -0.0556 -0.0017 -0.1046
10495W        W26389  17.504   7.257   0.771 -0.0226 -0.2473  0.2894
10496W        W26390   3.481  11.115  10.703  0.2221  0.0530 -0.1774
10497W        W26391   8.576   2.086   0.472  0.0592  0.0685 -0.0652
10498W        W26392  12.580   0.182  14.028 -0.1336  0.0534 -0.0906
10499W        W26393   8.925  11.029   4.683  0.1650 -0.0884  0.3352
10500W        W26394  17.351  10.835  13.748  0.1687 -0.0429 -0.0781
10501W        W26395   6.749  15.651  14.423 -0.1217  0.0846  0.2160
10502W        W26396   1.781  17.253   1.986 -0.0147  0.1436 -0.0485
10503W        W26397   9.399   4.482   2.445 -0.1361 -0.1588  0.1265
10504W        W26398  11.150  15.413  14.465 -0.1816  0.0278  0.3027
10505W        W26399  13.612   7.660  10.453  0.1143 -0.0227 -0.1689
10506W        W26400   4.221   7.871  12.257  0.0182 -0.0743 -0.0257
10507W        W26401   9.049   2.745   0.755  0.0441  0.1629 -0.2389
10508W        W26402  18.210   4.016  11.833 -0.4446  0.1511 -0.0455
10509W        W26403  10.134  12.262  14.262 -0.1543 -0.2388  0.1873
10510W        W26404   5.623  16.423  14.553 -0.0144  0.2056  0.3173
10511W        W26405   3.542   4.740  15.484 -0.0231 -0.1623  0.3549
10512W        W26406  12.177  13.463   5.459  0.1216  0.1966 -0.2300
10513W        W26407  16.547  17.386  13.039 -0.1952  0.0105  0.2971
10514W        W26408  18.358   0.796  11.054 -0.1353  0.1875 -0.0410
10515W        W26409  17.309  17.932   2.200 -0.3349 -0.1430 -0.2222
10516W        W26410  11.062   1.643  11.761 -0.1222  0.2634  0.0857
10517W        W26411   6.565  12.819   3.279 -0.0105 -0.1100  0.0305
10518W        W26412  10.048  10.324  15.243  0.0671  0.1793  0.3423
10519W        W26413   7.304  10.521   1.989  0.3258  0.0954  0.2370
10520W        W26414  15.563   0.454   5.616  0.0713 -0.0845  0.4141
10521W        W26415   5.747  16.385   1.350 -0.1092  0.1397  0.0470
10522W        W26416   3.036   1.738  13.974  0.1014 -0.5087  0.0150
10523W        W26417   7.960   0.521  15.417  0.1715  0.0660  0.2294
10524W        W26418   5.291   9.375  14.890 -0.0847 -0.0351  0.0204
10525W        W26419   2.154  13.332   1.281 -0.2014  0.1336  0.1249
10526W        W26420   8.252  18.400   4.290  0.3650 -0.2092  0.3503
10527W        W26421  10.774   2.250  11.588 -0.0547  0.2357  0.0714
10528W        W26422   0.574   2.997   4.905  0.0024 -0.2318  0.1106
10529W        W26423  15.989  16.117  12.021  0.1092 -0.0023 -0.1910
10530W        W26424   2.721   8.795  14.667 -0.1562  0.1058  0.1054
10531W        W26425  14.959   5.449  15.280 -0.0087 -0.1018 -0.0582
10532W        W26426  16.794  15.210  15.323  0.1949 -0.2282  0.2517
10533W        W26427   3.758   6.522  14.405 -0.1328 -0.1205  0.2752
10534W        W26428   4.488   3.877   3.563 -0.4367  0.0186 -0.0440
10535W        W26429   8.241   2.506  13.680  0.0326 -0.1431 -0.0391
10536W        W26430  13.006   6.389   0.059 -0.1691 -0.1449  0.0617
10537W        W26431  10.255   3.721   5.261 -0.0171 -0.0518  0.1902
10538W        W26432  13.482   7.760   2.093 -0.0212  0.2963  0.2301
10539W        W26433  18.657  14.296  14.531  0.0279 -0.2533 -0.2597
10540W        W26434   1.033   8.252  14.480  0.0131  0.2712  0.3537
10541W        W26435   3.549   0.400  11.559  0.0429  0.2981  0.1921
10542W        W26436  11.173   8.921   4.273 -0.0364  0.1544 -0.0407
10543W        W26437   2.774  17.327   2.598  0.3020 -0.3645 -0.0885
10544W        W26438   6.031  10.016   5.063 -0.1792  0.3344  0.0959
10545W        W26439   6.959   5.185   1.344 -0.2691 -0.2274  0.0231
10546W        W26440   2.105   6.604  11.782 -0.0352 -0.1880 -0.0354
10547W        W26441  17.196   8.604  12.646 -0.2631  0.0428  0.2034
10548W        W26442   5.696  14.662  10.862  0.0618 -0.3943  0.0973
10549W        W26443   9.946  17.721   2.784 -0.0760 -0.3846  0.0644
10550W        W26444   6.242   0.601   4.765  0.1326 -0.0097  0.3490
10551W        W26445  11.379   6.466  13.743  0.1266  0.0975 -0.0288
10552W        W26446   2.734  14.268   2.882  0.5118 -0.1629  0.0857
10553W        W26447   3.069  14.633  12.660  0.2392 -0.1347 -0.3224
10554W        W26448   6.421   7.617   4.589 -0.0170 -0.0701 -0.0025
10555W        W26449   3.033   0.605   2.861  0.0313  0.1829 -0.0903
10556W        W26450  18.463   2.008   2.375  0.4278 -0.1224 -0.1274
10557W        W26451   3.434   4.550  11.895 -0.2169 -0.2752  0.3165
10558W        W26452   9.230   1.792  15.434  0.0209  0.0577  0.1066
10559W        W26453  17.660   3.914  11.900  0.0610  0.2380 -0.0638
10560W        W26454  12.292  13.091  15.030  0.0102  0.1653 -0.0274
10561W        W26455  11.624   3.695   1.808 -0.0930 -0.0996  0.1179
10562W        W26456   4.042  15.443   5.062 -0.2840  0.3802 -0.2715
10563W        W26457  16.040   0.995   1.920 -0.1788  0.1761  0.0816
10564W        W26458   4.627   7.684   3.130  0.2969 -0.0798 -0.2390
10565W        W26459  11.659  14.588   2.789 -0.2185 -0.1019 -0.3229
10566W        W26460  13.856   8.078   1.156 -0.2550 -0.2987 -0.0570
10567W        W26461  18.356  13.261   9.803  0.2833  0.2655 -0.0910
10568W        W26462  11.495   6.002  11.537 -0.1366 -0.3821  0.0455
10569W        W26463  11.863   5.981  10.839  0.1383 -0.0000 -0.1635
10570W        W26464  12.881  17.314  12.397 -0.1292  0.1521  0.2655
10571W        W26465   2.926   8.772  13.847 -0.1807  0.1814  0.4844
10572W        W26466   7.821   1.164  11.834 -0.1244 -0.0466 -0.1387
10573W        W26467   7.215   4.643   2.339 -0.4407  0.1719 -0.1767
10574W        W26468  12.778   2.348   4.661 -0.0705 -0.0793 -0.2128
10575W        W26469   0.440   3.828  14.760  0.0883 -0.1799 -0.0814
10576W        W26470   3.781  11.037   0.777 -0.0553  0.1017 -0.0306
10577W        W26471  13.125   6.471   5.454 -0.0954  0.1244  0.1477
10578W        W26472   8.703   3.853  13.306 -0.2615 -0.2339 -0.0282
10579W        W26473   2.322  10.036   2.350  0.0480 -0.0495 -0.0367
10580W        W26474  17.337   1.641  14.674 -0.0243 -0.0634  0.0797
10581W        W26475   2.098   5.258   0.038  0.1905 -0.0879  0.0476
10582W        W26476  13.306  17.010  11.671  0.0156 -0.1337  0.3228
10583W        W26477  17.618   9.043   5.189 -0.1590  0.0041 -0.4593
10584W        W26478   8.508   7.362   1.568  0.0420 -0.3330 -0.0581
10585W        W26479   4.011   8.600  12.010  0.3746  0.1935 -0.4757
10586W        W26480   4.635   1.381   1.969 -0.0989  0.2208  0.1402
10587W        W26481   6.572   0.009  12.143  0.1176 -0.1616 -0.0352
10588W        W26482   4.504   2.070   3.541 -0.1363  0.0242  0.3410
10589W        W26483   9.509  15.679  11.753  0.1251  0.0625 -0.2407
10590W        W26484   1.347   0.623  13.426 -0.1619 -0.1289  0.1565
10591W        W26485   5.684   9.392   1.054 -0.0652  0.0837  0.1297
10592W        W26486   6.611  15.779   4.704 -0.1549  0.2018  0.0783
10593W        W26487  15.100  10.789   3.195 -0.1216  0.0972  0.1462
10594W        W26488   5.917   7.664   3.765 -0.3614 -0.0824  0.1891
10595W        W26489   2.829   3.896   3.455  0.1859 -0.0094  0.1600
10596W        W26490   0.179   9.323   5.402 -0.0413  0.0789 -0.0730
10597W        W26491  14.755  14.537  14.612 -0.0462  0.0910 -0.1317
10598W        W26492  12.765  14.378   5.928  0.0181  0.1622  0.0092
10599W        W26493   4.771   5.102   3.879 -0.2203 -0.1213 -0.0324
10600W        W26494   3.511   9.262  12.838 -0.2051  0.0414  0.0010
10601W        W26495   4.697   0.757   2.519  0.0004 -0.0228 -0.1406
10602W        W26496   0.991  12.189  14.842 -0.0406  0.4388  0.1384
10603W        W26497   5.305  14.678   2.088 -0.0055  0.2863 -0.0396
10604W        W26498  18.526  12.167   2.120 -0.1596 -0.0001  0.3068
10605W        W26499  16.875  12.111  12.899 -0.2845 -0.1889  0.0317
10606W        W26500  18.577  13.832  14.256  0.2124  0.1676 -0.2358
10607W        W26501  16.890   9.200  11.353  0.0844 -0.2803  0.1753
10608W        W26502  11.476   9.077  14.728 -0.1137  0.0972 -0.1760
10609W        W26503  15.487  10.847  10.361  0.0922 -0.3617 -0.4986
10610W        W26504  12.251   4.447  12.550 -0.0806 -0.2194  0.0729
10611W        W26505  15.652   3.616   3.040 -0.0005  0.0571  0.1337
10612W        W26506  10.165   8.048  10.846 -0.0047 -0.2278  0.0170
10613W        W26507  15.205  18.598  15.081 -0.0329  0.1021 -0.1291
10614W        W26508   6.324   3.343  13.004 -0.0926  0.1715 -0.0724
10615W        W26509  14.357   1.005   2.206  0.2723  0.2713  0.3686
10616W        W26510   2.209  17.625  14.537 -0.1740 -0.2232 -0.1171
10617W        W26511  16.144   3.244  15.210  0.0960 -0.0565  0.0663
10618W        W26512  10.291  17.666  11.914  0.2915  0.0313 -0.0368
10619W        W26513  12.801  11.506   3.717 -0.1673 -0.0988  0.0968
10620W        W26514  14.517   8.705  12.253  0.2850  0.0183  0.0480
10621W        W26515  13.425   6.153   3.729 -0.1088 -0.0326 -0.2308
10622W        W26516  11.878  10.081   3.789  0.2638 -0.3540  0.0195
10623W        W26517   7.504   6.241   4.103  0.1417  0.1711  0.1126
10624W        W26518  11.686   1.701   3.865 -0.0223 -0.0571 -0.1652
10625W        W26519  14.144  13.097  11.602  0.0300  0.1452 -0.4109
10626W        W26520   3.232   4.152   3.272  0.0283 -0.0170 -0.1338
10627W        W26521   1.262  16.809  11.212  0.0709  0.1421 -0.2023
10628W        W26522  11.025  10.665   0.819 -0.3079 -0.0642 -0.2456
10629W        W26523  12.037  13.783  14.258 -0.0398  0.0242  0.1623
10630W        W26524   9.207   7.152   0.729  0.0101  0.0184  0.0331
10631W        W26525  18.358   5.315   4.680 -0.1163  0.1611  0.1981
10632W        W26526   8.654   7.815   4.996 -0.0743 -0.3510  0.1066
10633W        W26527   6.240  17.989  15.394 -0.0788 -0.0807 -0.0583
10634W        W26528  14.446  18.711  11.534 -0.0822  0.0335 -0.1027
10635W        W26529   5.466  15.843  15.447  0.3471  0.1732 -0.0406
10636W        W26530   2.691  13.514  14.014  0.1532  0.1713 -0.3026
10637W        W26531  18.678  11.075   0.722 -0.1459  0.1141 -0.1064
10638W        W26532   7.960   9.215   5.046 -0.1108 -0.0473  0.0885
10639W        W26533   3.950  13.718  12.649  0.0834  0.2119 -0.1140
10640W        W26534  13.330  10.853   3.212  0.0322  0.4518 -0.1080
10641W        W26535   2.582  17.502   1.305  0.0296  0.0912  0.0175
10642W        W26536   5.393  11.180   0.313 -0.3175 -0.0647 -0.2156
10643W        W26537  12.965  15.190  13.366 -0.0590 -0.1827 -0.1076
10644W        W26538  18.644   9.750   3.778  0.1150 -0.0042  0.1903
10645W        W26539  15.160   8.106   3.331  0.1228 -0.2285  0.1246
10646W        W26540   6.798   0.772   5.255 -0.0720  0.1301  0.3173
10647W        W26541   8.878   4.426  13.432  0.1332  0.0172  0.2405
10648W        W26542   2.638   2.666   1.035 -0.1620 -0.0737  0.1305
10649W        W26543  11.826   4.862  12.996  0.3509 -0.0347 -0.1758
10650W        W26544   3.599   1.661  11.203  0.0961 -0.3061 -0.3025
10651W        W26545   9.337   2.339  14.612  0.1550 -0.0697 -0.3445
10652W        W26546   3.459   7.169  15.421 -0.1226  0.0566  0.2350
10653W        W26547   9.231   8.936   2.006 -0.1953 -0.1858 -0.1806
10654W        W26548   3.949  14.803   3.830 -0.1820 -0.1633  0.1611
10655W        W26549  18.409   4.304   4.656  0.2932 -0.1731  0.3527
10656W        W26550   9.359  15.460  12.420  0.0074  0.0404 -0.0192
10657W        W26551   3.345   4.386   0.282  0.1266  0.2677  0.1487
10658W        W26552   4.236   2.550   1.295 -0.2359  0.2659 -0.1033
10659W        W26553   3.945  16.421  15.345 -0.1260 -0.4104 -0.0990
10660W        W26554  12.813  12.567  13.604  0.1505 -0.0061 -0.2173
10661W        W26555   1.557  10.405  11.607 -0.0609  0.5533 -0.0292
10662W        W26556   9.835   1.687  14.095  0.0831  0.3024  0.1325
10663W        W26557   8.767  16.010   4.353 -0.0735  0.2162 -0.0621
10664W        W26558   2.475  18.737   2.342  0.0860  0.2759  0.0184
10665W        W26559  13.469   3.403   5.036  0.1130 -0.0922 -0.2190
10666W        W26560  10.936  12.170  11.572 -0.0362 -0.1129  0.3512
10667W        W26561   8.978  12.687  13.888 -0.1795 -0.0717  0.0278
10668W        W26562  17.100   5.976   3.990 -0.3977 -0.1531  0.2613
10669W        W26563  11.454   6.634  14.794 -0.2254  0.1332 -0.1548
10670W        W26564  10.921   9.310   4.450 -0.2071 -0.3319 -0.1138
10671W        W26565  11.587  15.064  13.608  0.2554 -0.2026 -0.1521
10672W        W26566  15.446  16.046  13.523  0.1037 -0.1468 -0.2138
10673W        W26567  10.087  10.793   1.287 -0.1313 -0.3534 -0.2471
10674W        W26568  13.017  16.844   5.434  0.2326  0.0456 -0.2744
10675W        W26569  12.255  18.699   2.013  0.1759  0.2884 -0.1353
10676W        W26570   7.488   6.486   2.276  0.1906  0.1022  0.0699
10677W        W26571   6.117  12.078  11.117  0.1762 -0.3038 -0.1489
10678W        W26572  10.709   2.681   4.920  0.0493 -0.1454 -0.2389
10679W        W26573  12.045  12.583  12.980  0.1926 -0.1378  0.1677
10680W        W26574  18.694  17.286  12.486 -0.0668 -0.0638  0.3246
10681W        W26575   0.248   7.145   4.221  0.0674 -0.1178  0.1285
10682W        W26576  17.200  15.734   9.957 -0.2130  0.1245  0.2017
10683W        W26577  15.213   7.442   5.001  0.1183  0.3065  0.1846
10684W        W26578  17.428   7.411   6.221  0.1776  0.1929 -0.3801
10685W        W26579  18.320   6.640  13.890  0.2560 -0.1736 -0.2061
10686W        W26580  18.700   7.501   4.173 -0.0408  0.4332 -0.2635
10687W        W26581   1.138   4.182   1.623  0.1004  0.1422 -0.0624
10688W        W26582   6.216   8.096  13.491 -0.0144  0.4790 -0.0009
10689W        W26583  16.157   2.681   1.876 -0.1059 -0.1546 -0.1556
10690W        W26584   7.382   2.626   2.328  0.0633 -0.0069 -0.0673
10691W        W26585  11.043  10.482   3.737  0.4802  0.2568  0.2419
10692W        W26586  13.168  10.366  12.146 -0.2287 -0.1576 -0.0365
10693W        W26587  18.147   7.083   2.553 -0.0632 -0.0939  0.2261
10694W        W26588  16.305   6.840   1.282  0.3698  0.0558  0.3244
10695W        W26589   1.657   9.933   2.941  0.0095  0.0198 -0.0935
10696W        W26590  18.287  16.001   2.770  0.0728 -0.2365 -0.2251
10697W        W26591   4.286   6.675  11.786  0.0007  0.3074 -0.0452
10698W        W26592  14.868   8.678  13.952  0.0709 -0.2188 -0.2836
10699W        W26593   5.803  14.907   3.293  0.0472  0.3150 -0.2041
10700W        W26594  15.441  10.930  14.180 -0.0069 -0.1255  0.1658
10701W        W26595   3.297  14.818  13.303 -0.0243  0.2708  0.2534
10702W        W26596  10.820  15.622   5.245  0.1743  0.2385  0.0258
10703W        W26597  10.686  14.284  11.210 -0.4852 -0.3930 -0.4306
10704W        W26598   1.707  17.758   2.159 -0.3714  0.0032  0.0118
10705W        W26599  13.806   9.738   3.096  0.1116 -0.0703  0.0544
10706W        W26600  10.543  10.825  15.167 -0.0094 -0.0207  0.2167
10707W        W26601   5.490  18.229  13.924 -0.1499  0.0470  0.0568
10708W        W26602   8.156   4.569   3.255 -0.1402  0.2880  0.0188
10709W        W26603   4.026  12.420   1.655  0.2629 -0.1078  0.0557
10710W        W26604   1.716   0.059  12.623  0.0691 -0.2664  0.2503
10711W        W26605   2.391   1.729  11.832  0.2490 -0.4176  0.0536
10712W        W26606   8.864   2.598   4.901 -0.0699 -0.0962  0.0188
10713W        W26607   9.953  16.233   5.082  0.0674 -0.0393 -0.0635
10714W        W26608  17.398  12.936  15.086  0.1431 -0.1781 -0.1419
10715W        W26609   1.845   8.545  12.781 -0.1461  0.1458  0.0087
10716W        W26610   0.526   3.357  14.925 -0.1779  0.0610 -0.3839
10717W        W26611  16.885  14.412   3.505  0.0933 -0.0673 -0.0696
10718W        W26612  11.990   4.180  15.589  0.0414 -0.0136 -0.0150
10719W        W26613  15.086   1.243   2.846 -0.0930  0.0039  0.5412
10720W        W26614   5.327  11.179  12.085  0.2346 -0.2615 -0.0030
10721W        W26615  10.169  12.532   5.329  0.1147 -0.3802 -0.1015
10722W        W26616   0.803   1.939   9.843  0.1397  0.0503  0.0346
10723W        W26617   4.830  12.095   0.941  0.0416 -0.2074 -0.0859
10724W        W26618  11.063   3.428  14.424 -0.2623 -0.0988 -0.3016
10725W        W26619   1.115  18.040  12.072 -0.1018  0.1287 -0.1520
10726W        W26620   0.444  11.909   4.490  0.0643  0.1913  0.1645
10727W        W26621  15.015  10.018   5.503  0.2654 -0.0890  0.0183
10728W        W26622  13.115  12.320   5.969  0.1030 -0.0554  0.1638
10729W        W26623   5.125  10.042  13.707 -0.0131 -0.1769 -0.2308
10730W        W26624   0.122  11.225   3.008  0.0847 -0.1331  0.0691
10731W        W26625   3.890   0.053  11.675  0.2219  0.1982  0.0168
10732W        W26626  14.321  15.661   0.508  0.2760  0.1234 -0.0759
10733W        W26627   7.709  15.452   0.222 -0.0118 -0.2227  0.0170
10734W        W26628  17.923   3.320   0.918 -0.2819  0.2212  0.0044
10735W        W26629   5.248   8.966  12.719 -0.2030  0.3019  0.2200
10736W        W26630  12.360  14.647  11.735 -0.1998 -0.4749  0.1151
10737W        W26631   9.212   2.051   3.285 -0.2345 -0.2816  0.1354
10738W        W26632   6.304  10.998  12.009  0.1113  0.1808  0.0306
10739W        W26633   7.722   7.589   5.949  0.2195 -0.0294  0.3465
10740W        W26634   2.606   2.990   0.209 -0.1356  0.1278  0.2863
10741W        W26635   4.822   3.677  13.740 -0.3807  0.0486 -0.2430
10742W        W26636   4.475   8.679  12.408  0.2543 -0.1325 -0.1732
10743W        W26637  15.827  14.712  10.437  0.0102  0.2062  0.0770
10744W        W26638   5.115   6.255   5.184 -0.0410  0.1579  0.0417
10745W        W26639   1.784  13.982   1.210 -0.2764 -0.1244 -0.1747
10746W        W26640   2.953  15.543   3.397  0.0096  0.0434 -0.2858
10747W        W26641   7.673  17.232  15.427 -0.1153 -0.0084 -0.2151
10748W        W26642  16.341   6.379   4.180  0.0985  0.3788 -0.1812
10749W        W26643  17.613  13.174  12.974  0.0795  0.2031  0.1175
10750W        W26644   9.523   7.272  10.766 -0.0641 -0.0222  0.0454
10751W        W26645   7.329  17.777   4.509 -0.1939  0.0345  0.3926
10752W        W26646   2.684  14.792   2.668  0.1869 -0.0370  0.0942
10753W        W26647  10.522  16.624  11.269 -0.2092 -0.0521  0.0234
10754W        W26648   1.502   7.008   0.872 -0.5847  0.2868  0.0333
10755W        W26649  10.325  15.515  15.196 -0.0746 -0.1735  0.0071
10756W        W26650   8.656   5.590  14.829 -0.2395 -0.1829  0.0022
10757W        W26651   4.807   8.462  10.592  0.1060  0.0258 -0.0164
10758W        W26652  12.112   5.515  10.802 -0.0051 -0.0913 -0.0217
10759W        W26653  18.646   1.334   6.040  0.1395  0.0851  0.0213
10760W        W26654  14.659   0.447  11.439  0.0836 -0.0014 -0.2906
10761W        W26655  12.906  12.115  13.836  0.1373 -0.1692 -0.1746
10762W        W26656  16.111   9.662  14.530  0.1397 -0.1728  0.3033
10763W        W26657  12.341  14.554  15.624 -0.0150 -0.2601 -0.0199
10764W        W26658   3.767  12.513  11.268  0.1486  0.1677  0.0160
10765W        W26659  10.264  18.621   5.264  0.2937  0.0020 -0.2740
10766W        W26660   1.304   3.554  13.161 -0.2449  0.1934  0.5125
10767W        W26661   5.069   8.626   3.294 -0.0020  0.0728  0.3504
10768W        W26662   4.724  16.714   0.258  0.1079  0.0388  0.2482
10769W        W26663  11.082  13.982   2.366 -0.0515  0.5580  0.1340
10770W        W26664   1.875  14.188  13.883 -0.3247  0.0292 -0.3037
10771W        W26665  17.666   0.720  14.306  0.3031 -0.0491  0.0628
10772W        W26666   2.562  15.908   2.651  0.1426 -0.0253 -0.0523
10773W        W26667   6.570  12.874  14.658  0.1224 -0.0015  0.2296
10774W        W26668   6.290  17.695  13.873  0.3261 -0.1608 -0.2117
10775W        W26669   4.321   8.619   1.047 -0.0128 -0.1565 -0.0055
10776W        W26670   8.629   1.527   2.052 -0.1190 -0.0240 -0.0002
10777W        W26671  10.470  18.447  13.440 -0.0640 -0.1751 -0.0817
10778W        W26672   1.173  10.766  11.239 -0.0300  0.2265 -0.1490
10779W        W26673  11.897   9.955  10.980 -0.2261 -0.4005 -0.1305
10780W        W26674   2.962   2.661  11.945 -0.2657  0.0669  0.2012
10781W        W26675   4.458  10.530  13.870  0.0357 -0.1544  0.1794
10782W        W26676   5.456   9.905  13.194  0.0533 -0.0273  0.1154
10783W        W26677   0.254   4.740  14.130 -0.0641  0.3739  0.0947
10784W        W26678  12.961   2.592   0.921 -0.5113 -0.0452 -0.0525
10785W        W26679   9.182   6.912   5.036 -0.1263  0.1706 -0.2138
10786W        W26680  10.435   8.789  14.459  0.1045 -0.0618 -0.1422
10787W        W26681   6.801  14.376  15.545  0.1782 -0.2635  0.1022
10788W        W26682  16.602   1.288  15.236 -0.1830  0.1813  0.0117
10789W        W26683  12.595   0.542   1.852  0.0815  0.1529  0.3212
10790W        W26684   4.524  15.163   2.097 -0.1008 -0.0865  0.0992
10791W        W26685   2.117   6.973   2.062 -0.0487  0.1883  0.0907
10792W        W26686   1.728   7.618  14.686 -0.1209  0.2045 -0.2448
10793W        W26687  13.286   1.191  14.339 -0.0474 -0.4244  0.1648
10794W        W26688  13.266  14.515  14.195 -0.3684 -0.0232 -0.0009
10795W        W26689   9.636  13.840  14.405  0.3142 -0.2837 -0.3141
10796W        W26690   2.272   5.830  15.256  0.0218  0.3445  0.1532
10797W        W26691   5.303   5.183  15.072  0.0696 -0.0580  0.0016
10798W        W26692  13.966  18.554   3.576 -0.0917 -0.1368  0.2472
10799W        W26693  14.988  14.864  12.471 -0.2513  0.1173  0.1109
10800W        W26694   9.956   1.192   2.467 -0.0231  0.2339  0.1281
10801W        W26695  12.376   7.693   1.546  0.1167 -0.1827  0.1210
10802W        W26696  12.064   5.997  15.445  0.0977  0.2866  0.1117
10803W        W26697   1.193  15.090  12.200 -0.0274 -0.0299  0.0232
10804W        W26698  16.526  11.800  15.025  0.2509 -0.0256 -0.1662
10805W        W26699  10.528   5.205  14.364  0.1496 -0.2418 -0.3499
10806W        W26700  18.383  12.155   0.319 -0.0658 -0.4522 -0.1460
10807W        W26701   5.987  15.509   0.662  0.0008 -0.0830  0.1064
10808W        W26702   9.103  18.650  11.013  0.0760  0.2643 -0.1659
10809W        W26703  10.986  17.969  12.290  0.1266 -0.2166 -0.0547
10810W        W26704  12.151   5.358  14.376  0.2124  0.0948 -0.0578
10811W        W26705   9.965  16.675  13.681 -0.3118 -0.0041 -0.2044
10812W        W26706  16.838   4.556   3.022  0.0967  0.1736 -0.1279
10813W        W26707   9.715   6.867   3.456  0.5196  0.1516  0.0026
10814W        W26708  17.076   6.883   0.828 -0.2806 -0.1731 -0.0063
10815W        W26709  13.321  16.386  12.980 -0.3701  0.0588 -0.1705
10816W        W26710   3.781  12.314  10.537  0.0359  0.1661  0.1228
10817W        W26711  10.781   0.735  11.389 -0.4836  0.1308  0.0681
10818W        W26712  11.552  17.277   4.387  0.2266 -0.0575  0.0808
10819W        W26713   0.513   4.411  15.616 -0.1974 -0.2910 -0.2235
10820W        W26714  15.007   4.910   3.552 -0.0488  0.0222  0.0422
10821W        W26715   8.144  18.706  12.895 -0.1159 -0.2583  0.0981
10822W        W26716  16.934  18.647  12.989  0.1905  0.0927  0.1323
10823W        W26717   1.649  14.286  14.335 -0.2584  0.0077  0.4030
10824W        W26718  17.780  16.848   2.062  0.0748  0.1085 -0.1560
10825W        W26719   7.308   4.100   2.920  0.0637  0.0588 -0.0335
10826W        W26720  17.024  13.808  14.943  0.1048 -0.1367 -0.1540
10827W        W26721   3.387  13.555   0.327 -0.2434 -0.1959  0.0298
10828W        W26722   9.417   9.279  15.274 -0.0006 -0.1181 -0.2604
10829W        W26723  15.009   4.413   2.721  0.2050 -0.0215 -0.0293
10830W        W26724   6.029  11.232  11.624 -0.0944 -0.2068 -0.0844
10831W        W26725  10.792  14.378   6.062  0.3354 -0.0835  0.1539
10832W        W26726  10.030  10.311  13.160  0.0928  0.2185  0.0384
10833W        W26727  16.535  11.293  12.025 -0.0857 -0.1262 -0.1557
10834W        W26728   6.949   1.884   3.901  0.2830 -0.2231  0.1047
10835W        W26729   8.029   2.339  11.082 -0.0478 -0.1056 -0.1686
10836W        W26730  14.955   3.592   4.970  0.0357  0.2357  0.0937
10837W        W26731  10.276   8.899  13.356 -0.2240 -0.1161  0.2764
10838W        W26732  16.410   4.844   1.085 -0.3593  0.0184  0.1677
10839W        W26733  17.525  13.953   2.878 -0.1589  0.0553  0.1345
10840W        W26734   4.416  14.386  11.086 -0.0026 -0.1863  0.2351
10841W        W26735   3.245   5.361  11.433  0.0990  0.2480  0.0020
10842W        W26736   8.234   1.379  13.775  0.2408  0.0578 -0.1541
10843W        W26737   0.653  13.362  14.250  0.0103 -0.0783 -0.0162
10844W        W26738  16.767   9.599   5.781 -0.0367 -0.0607 -0.0642
10845W        W26739  14.616   7.847   2.952 -0.0036  0.1693 -0.1186
10846W        W26740  16.426   2.577  12.727  0.0130  0.3672  0.1255
10847W        W26741   5.906   4.801   2.243  0.1203  0.0622 -0.1213
10848W        W26742   4.975  10.531  10.436 -0.1613 -0.0066  0.2624
10849W        W26743   0.718  15.412  15.555 -0.1153  0.2357 -0.0544
10850W        W26744  13.249   2.349  15.524  0.0435  0.0879  0.0783
10851W        W26745   2.505   0.070   1.300 -0.0309 -0.1695 -0.5033
10852W        W26746  14.900   6.913   4.298 -0.0178 -0.0592  0.0136
10853W        W26747  10.522   0.279  12.834 -0.2963  0.2228  0.1691
10854W        W26748  15.853  10.611  11.621  0.1337 -0.2176  0.3167
10855W        W26749  16.950   4.828   5.630 -0.2152 -0.0440 -0.0961
10856W        W26750   7.019   0.275   0.873  0.1331  0.1884  0.0676
10857W        W26751  14.584   9.951  12.970 -0.3179  0.1496 -0.0796
10858W        W26752   9.493   7.346   4.906  0.1010  0.0780  0.2089
10859W        W26753   0.099   8.910  13.555  0.0696 -0.0775  0.1421
10860W        W26754   3.146  16.087  12.025 -0.0351  0.0739 -0.1786
10861W        W26755   6.783  11.369  11.171  0.1957  0.1521  0.0637
10862W        W26756  13.708   1.575   0.167  0.1813  0.1362  0.3240
10863W        W26757  17.441   2.998   5.767  0.0459 -0.0848  0.1635
10864W        W26758   2.248  12.537   4.122 -0.3629 -0.1807 -0.0604
10865W        W26759  12.208  10.584  14.354  0.0064 -0.0099  0.2304
10866W        W26760   2.787   7.595  14.821 -0.1049  0.0889 -0.2316
10867W        W26761  11.969   5.484   5.788  0.1803  0.1460  0.0593
10868W        W26762   3.069   8.712  11.515  0.0937 -0.0700  0.2377
10869W        W26763   0.502   1.766  14.344  0.2011 -0.4035 -0.1395
10870W        W26764  16.369   3.586   1.886 -0.0083  0.0088 -0.2175
10871W        W26765  10.023  15.292   5.052  0.2773 -0.1243 -0.0444
10872W        W26766   6.446   4.076   5.452  0.0513 -0.0656  0.0589
10873W        W26767   9.259   9.703  12.813 -0.1280  0.0737 -0.0268
10874W        W26768  12.029   7.228   3.988 -0.0343  0.1303 -0.1711
10875W        W26769  15.466   7.022   0.224 -0.0821  0.1235  0.1697
10876W        W26770   2.170   9.383  12.353 -0.0244  0.3780  0.1984
10877W        W26771  10.291   6.372   0.880 -0.1437  0.0884 -0.3577
10878W        W26772   0.447   7.281   2.037 -0.0808  0.3880 -0.3125
10879W        W26773  14.089  10.435   3.090 -0.1314  0.1693 -0.1756
10880W        W26774  11.928   8.439   4.631  0.0738  0.0458 -0.0729
10881W        W26775  11.688  17.775   4.586  0.1228 -0.1041 -0.0526
10882W        W26776   4.502   8.264  12.047  0.2523  0.3528  0.1752
10883W        W26777  16.087   4.653  11.518 -0.0560  0.1284  0.0114
10884W        W26778   7.810   5.855  13.372 -0.3026  0.3179  0.3927
10885W        W26779   9.818   1.905   1.762  0.0780 -0.1632 -0.2824
10886W        W26780  11.730  10.982   1.076 -0.1511 -0.0154 -0.3939
10887W        W26781   7.122   1.564   4.268 -0.0211 -0.2817  0.0168
10888W        W26782   6.365  18.021   0.408 -0.0979  0.0642 -0.2471
10889W        W26783   2.695   4.009   5.314  0.0284  0.0786 -0.2285
10890W        W26784  11.776   0.378  13.922  0.2642 -0.0072 -0.0419
10891W        W26785  13.672  11.096  13.177 -0.0590 -0.1800 -0.1046
10892W        W26786  17.885  14.964   5.309 -0.2422  0.1724 -0.2776
10893W        W26787   9.266  16.841   3.895  0.4723 -0.0376  0.0790
10894W        W26788  16.856   5.085   3.847 -0.1569  0.0450 -0.0358
10895W        W26789  10.432  15.948  11.209  0.4999 -0.1305 -0.1245
10896W        W26790   4.753   2.455  14.411  0.1156 -0.1766  0.1708
10897W        W26791   2.528  14.877   4.031 -0.4294  0.1085  0.1420
10898W        W26792  15.258   1.928   3.389  0.0219  0.2340  0.1457
10899W        W26793  18.380  10.977   5.868 -0.1159  0.1908 -0.0778
10900W        W26794   1.667  18.378  10.972  0.0014 -0.0051  0.1676
10901W        W26795   6.170   4.263  12.864 -0.0863 -0.2678 -0.0710
10902W        W26796  11.177  11.809  12.986 -0.0522 -0.1471  0.1771
10903W        W26797  15.408   4.565  14.851 -0.1070 -0.1678 -0.2039
10904W        W26798   9.584   1.809  14.623  0.3009  0.0831 -0.0260
10905W        W26799  12.834  15.778   2.210  0.0048  0.0310 -0.1943
10906W        W26800   1.292   2.960  13.062 -0.2299  0.2969  0.0100
10907W        W26801  17.099  15.164  12.449  0.0179 -0.0015 -0.1362
10908W        W26802  18.056   0.850  13.935 -0.1083 -0.0181  0.2682
10909W        W26803  12.269   4.178   4.257  0.2018 -0.0400  0.0539
10910W        W26804   2.268  12.783  14.411  0.1178  0.0039  0.2287
10911W        W26805   3.766   8.038  11.431 -0.2195 -0.2061  0.0402
10912W        W26806  10.606   9.360  14.282 -0.0503 -0.1775 -0.3230
10913W        W26807   5.804  15.107   2.717 -0.0395 -0.0486 -0.0288
10914W        W26808   4.308  15.996   0.907 -0.0665 -0.1263 -0.0447
10915W        W26809  13.357  15.680  11.266 -0.0091 -0.0333  0.2751
10916W        W26810  16.557  17.593  12.272  0.2573 -0.1106  0.1514
10917W        W26811  15.567   3.779   4.712  0.0276  0.0911  0.3163
10918W        W26812   4.560  16.114   1.445  0.1648 -0.0740  0.1673
10919W        W26813   3.730  14.042   3.148 -0.5133  0.1595 -0.0457
10920W        W26814  17.661  16.520  13.523 -0.3186 -0.1983 -0.1366
10921W        W26815  15.278   9.709   5.079 -0.1265 -0.2692  0.2513
10922W        W26816  17.832   1.138   6.081  0.2725 -0.0987  0.3043
10923W        W26817   0.047   0.501  11.743  0.0360  0.0737  0.2469
10924W        W26818  18.315   0.765   3.476 -0.0817  0.1749 -0.1096
10925W        W26819  11.605   6.399  10.550 -0.1712  0.1792 -0.3055
10926W        W26820   7.526   3.724  10.470 -0.3176  0.1550 -0.4402
10927W        W26821   3.190   4.751  14.205 -0.0393  0.4648 -0.1149
10928W        W26822  18.494  16.213  14.783  0.1760 -0.1696 -0.1524
10929W        W26823  10.721   1.056  13.771 -0.2008  0.0449 -0.2193
10930W        W26824  15.988  11.053   3.553  0.0319  0.0312  0.0011
10931W        W26825   4.345   0.216  11.305 -0.2054 -0.2691 -0.0161
10932W        W26826   5.497   7.585  13.960  0.1457 -0.3535 -0.0257
10933W        W26827   4.650  12.514   2.752 -0.2539 -0.1963 -0.2086
10934W        W26828  11.456   2.487   4.455 -0.5122  0.0260 -0.1790
10935W        W26829  11.498   9.034  12.993  0.0259 -0.0199  0.2658
10936W        W26830  12.913  10.137  12.580  0.0854 -0.1716  0.0943
10937W        W26831   1.033   9.928  10.984 -0.2238 -0.0238  0.1800
10938W        W26832  10.739   1.470   1.700 -0.0684 -0.1737  0.0684
10939W        W26833  13.636  13.076   5.582  0.0940 -0.2197 -0.4044
10940W        W26834   3.335  15.307   2.754 -0.0161 -0.0877 -0.0824
10941W        W26835   2.974   6.382  11.265 -0.1247 -0.3197  0.0322
10942W        W26836   1.930   4.907  10.510 -0.0030 -0.2316  0.2002
10943W        W26837  10.685  10.833   3.461 -0.2547 -0.4412  0.1487
10944W        W26838   7.128   8.963   1.063 -0.1549  0.1318  0.0037
10945W        W26839  10.069   9.502   2.080 -0.0527  0.5808 -0.1569
10946W        W26840   2.554   4.390   4.812  0.0424  0.1261 -0.0487
10947W        W26841   9.453   4.822   0.976 -0.0151 -0.0090  0.0157
10948W        W26842   2.069  16.316   0.888  0.0072  0.1598  0.1217
10949W        W26843  12.835   3.800  12.906 -0.0779  0.0097 -0.1071
10950W        W26844   1.078  16.567  12.831 -0.0613 -0.0103 -0.0049
10951W        W26845   8.143  18.153  10.552  0.0583  0.0796  0.0532
10952W        W26846  11.226   0.234   0.538 -0.0558 -0.0309 -0.1528
10953W        W26847  10.282  15.850  13.899  0.1378 -0.1080 -0.2421
10954W        W26848   0.898   0.156  10.908 -0.0780 -0.4653  0.1136
10955W        W26849  12.573  11.879   4.858  0.1180 -0.1102  0.0635
10956W        W26850  15.250   4.056  10.544 -0.2073  0.1351 -0.2159
10957W        W26851  10.958   1.118   2.610 -0.1572  0.0150  0.1126
10958W        W26852  12.128   0.881   2.946 -0.0589 -0.1029 -0.0897
10959W        W26853   0.483  11.038  14.077 -0.2662 -0.1609 -0.3535
10960W        W26854   2.538   7.479  13.346 -0.2610 -0.2731 -0.3947
10961W        W26855  15.507   4.004   3.440  0.0132 -0.3192 -0.0611
10962W        W26856  15.606   8.425  14.233  0.0956  0.2629  0.1007
10963W        W26857   0.133  12.485   2.020 -0.5388 -0.1364  0.1001
10964W        W26858  14.033   2.178   4.780 -0.1112  0.0864  0.2020
10965W        W26859   1.988  18.638  14.477 -0.0447 -0.4420 -0.2229
10966W        W26860   8.184   5.758  11.645  0.0435  0.0127  0.0250
10967W        W26861   6.471   9.697   2.334  0.0212 -0.0265 -0.0278
10968W        W26862   2.649  13.888  12.245  0.3029 -0.3538 -0.1031
10969W        W26863   4.124   0.421  14.748 -0.1398  0.3567 -0.2328
10970W        W26864  11.833   3.361   0.469  0.0482 -0.0845  0.3644
10971W        W26865  12.999   3.774  12.171  0.1394 -0.2282 -0.4171
10972W        W26866  15.442  14.739  13.713  0.1595 -0.0024  0.2268
10973W        W26867   7.723  10.043  14.926 -0.0453 -0.0457 -0.0361
10974W        W26868  14.220  17.931  14.382 -0.1530  0.0501  0.3046
10975W        W26869   9.675  14.964   3.354 -0.2050  0.1491 -0.2640
10976W        W26870  18.155  17.781   1.998  0.2416  0.1270 -0.2087
10977W        W26871   6.892  13.350   3.418 -0.1700 -0.0894  0.2775
10978W        W26872  10.504  12.936   1.301  0.1703 -0.1463  0.2389
10979W        W26873   7.520  15.828   0.641  0.0521  0.0335  0.0079
10980W        W26874  12.492  15.232  12.725 -0.3037 -0.1037 -0.1423
10981W        W26875   8.332  14.138  14.020 -0.1395  0.1766 -0.0511
10982W        W26876   9.446   9.354  11.524 -0.1084 -0.2436  0.1913
10983W        W26877   7.984  16.741  12.902  0.2080  0.1076  0.0569
10984W        W26878   8.284  14.818   0.693 -0.1513 -0.4277  0.4102
10985W        W26879   5.468  10.731   2.558  0.0044  0.2214  0.0314
10986W        W26880   9.794  13.650   5.076 -0.2115  0.0045  0.1879
10987W        W26881   3.871  10.904  11.508 -0.0198  0.2686  0.2795
10988W        W26882   0.289   6.408   1.823  0.0585 -0.4103 -0.1098
10989W        W26883   4.996  16.634  12.109 -0.0954  0.2667  0.2625
10990W        W26884  10.930  11.096   2.072 -0.2456  0.4856 -0.3557
10991W        W26885  16.999   6.647  11.552  0.1296  0.2166 -0.4156
10992W        W26886  17.923   6.893   2.130  0.2246 -0.4181  0.1265
10993W        W26887  14.070   3.436   3.901 -0.2863 -0.0699  0.0074
10994W        W26888   5.060   7.829   1.796  0.1460  0.0093 -0.2513
10995W        W26889  18.595  16.739  13.505 -0.1853  0.0004  0.0421
10996W        W26890  13.507  15.177   0.299  0.0852 -0.0479 -0.0341
10997W        W26891  11.507   0.463  14.954  0.1380  0.3852  0.2082
10998W        W26892  12.083  14.503  14.921 -0.0395 -0.1002 -0.1756
10999W        W26893  16.657   1.503   4.439 -0.1056  0.0831  0.1557
11000W        W26894  10.526   9.806   2.276  0.5422  0.1884 -0.1540
11001W        W26895  16.637  18.690  14.128 -0.0638 -0.1525 -0.3492
11002W        W26896  11.528  17.037   3.577  0.2027  0.1185 -0.1210
11003W        W26897  18.040  11.757   3.429 -0.1488 -0.1617 -0.0712
11004W        W26898  18.220  12.708  11.138  0.0839  0.2872 -0.0003
11005W        W26899   8.505   5.655  15.488  0.1259 -0.2341 -0.2415
11006W        W26900   7.977   1.102  14.666 -0.0912 -0.0135 -0.2125
11007W        W26901  11.596   6.144   2.889 -0.1945  0.0760  0.0741
11008W        W26902   2.863  15.908  10.990 -0.3086 -0.2745 -0.1572
11009W        W26903   6.931   7.130   2.153  0.3755  0.1766  0.0420
11010W        W26904  17.190  13.225   4.807 -0.1986  0.0731  0.0413
11011W        W26905  16.414  18.754  12.903 -0.3156 -0.0636  0.0509
11012W        W26906   2.764   4.114  12.261 -0.1140 -0.0729 -0.1475
11013W        W26907  15.370   2.342  15.221 -0.0535 -0.3021  0.3438
11014W        W26908   4.550  14.606  15.250 -0.5496  0.1267 -0.0616
11015W        W26909  12.626  12.018   1.921  0.0296  0.1495 -0.2604
11016W        W26910  12.042   3.018  10.206  0.1206  0.2674  0.1493
11017W        W26911   3.662  11.569  12.125 -0.1013 -0.1980  0.0128
11018W        W26912   9.280  14.344   3.086  0.0883  0.0885 -0.0764
11019W        W26913   0.853  15.605  13.966 -0.1656  0.1003 -0.0838
11020W        W26914  18.486   2.636   5.078 -0.1250 -0.3221  0.0130
11021W        W26915   8.324  16.936   3.781  0.1101  0.1172  0.1704
11022W        W26916   0.060   4.383   0.652 -0.0095 -0.0962  0.4512
11023W        W26917   0.020  11.494  11.415  0.2120 -0.0922 -0.1318
11024W        W26918  12.055  10.509   2.338  0.0573  0.0583  0.1757
11025W        W26919   2.615   4.573  15.153 -0.0723 -0.0418  0.0622
11026W        W26920  18.150  14.391  13.716  0.0978  0.2697  0.0678
11027W        W26921  16.045   9.008   1.904 -0.2464 -0.2600 -0.0252
11028W        W26922  17.997  11.043   0.948 -0.0208 -0.1324  0.4079
11029W        W26923   5.415  12.112   1.067  0.0282 -0.2126 -0.1720
11030W        W26924  15.889  10.107  11.521  0.2496 -0.0094 -0.2948
11031W        W26925  15.808  11.216  15.537 -0.1897 -0.1781 -0.0881
11032W        W26926  12.168   9.902   0.873 -0.1246  0.2941 -0.0257
11033W        W26927   2.054   2.877  10.878 -0.2115  0.0460 -0.0522
11034W        W26928   0.933  11.343  11.800 -0.1144 -0.3009  0.2661
11035W        W26929  15.884  11.316   1.689 -0.6477  0.1723 -0.2280
11036W        W26930  10.258   3.354  15.498  0.3068  0.1696 -0.0893
11037W        W26931  15.352  14.166   1.548 -0.0534 -0.2206 -0.3163
11038W        W26932   2.988  17.190  15.169  0.0901 -0.3757 -0.0833
11039W        W26933  10.531   0.163  13.632 -0.4376  0.4863 -0.1169
11040W        W26934   4.765   2.069   3.042 -0.1008  0.0781  0.0272
11041W        W26935  13.970  17.959   4.140  0.1341  0.2637  0.4145
11042W        W26936  14.788   7.896   5.717  0.1486 -0.1607 -0.1366
11043W        W26937   7.608   9.360  11.862 -0.0483 -0.1409 -0.1965
11044W        W26938  11.875   9.496  15.591 -0.1110  0.1753  0.1076
11045W        W26939   9.194  14.033   3.439 -0.1026  0.0232 -0.2075
11046W        W26940  11.904  14.042   2.939 -0.1138 -0.1260 -0.0141
11047W        W26941  18.434   0.734   1.248 -0.0803 -0.1680 -0.0056
11048W        W26942  11.304  10.103   2.041  0.1043 -0.0758  0.0776
11049W        W26943   2.772   5.699  14.314  0.2411  0.0458 -0.2211
11050W        W26944   2.914   5.831   3.919 -0.0876  0.2785 -0.2160
11051W        W26945   7.851  14.626  12.183  0.1512  0.1622  0.0840
11052W        W26946  18.088   6.760  11.801 -0.0133 -0.2139 -0.1779
11053W        W26947   0.259   7.720  13.291 -0.0340 -0.0761  0.0939
11054W        W26948   7.929   9.867  11.345  0.2617 -0.3353  0.1209
11055W        W26949   1.626  14.930  12.564 -0.2703  0.0416 -0.3146
11056W        W26950  13.889  16.329  15.130  0.1264  0.2458  0.0339
11057W        W26951   5.284  18.686  13.002 -0.3037 -0.1237  0.0740
11058W        W26952  11.877  13.389  12.192 -0.0509  0.1501  0.0579
11059W        W26953  11.382   9.872   5.295  0.1022 -0.2228  0.2198
11060W        W26954   6.848  17.920   3.301  0.3073  0.1621 -0.3990
11061W        W26955   3.588   0.451   0.604  0.3086  0.1255 -0.1694
11062W        W26956   8.872   6.521  10.651  0.1507 -0.0202  0.0859
11063W        W26957  10.965  17.916  10.525 -0.0223  0.3437  0.0891
11064W        W26958   8.378   2.319  14.132 -0.0015 -0.0224  0.0694
11065W        W26959   1.791  15.785  13.042 -0.0608 -0.1244 -0.2604
11066W        W26960   9.272  17.878   4.616 -0.0211  0.2705  0.1536
11067W        W26961   7.511   2.657  14.247  0.0191  0.1885 -0.0896
11068W        W26962   8.637  16.175   1.879  0.2589  0.1650 -0.0858
11069W        W26963   8.535   9.409   2.340  0.1995  0.1718 -0.0606
11070W        W26964  10.781  10.091  10.785 -0.0542 -0.4566 -0.0123
11071W        W26965  15.563   1.361  11.909 -0.1427  0.1315  0.3823
11072W        W26966  13.198   0.803   3.972  0.3434 -0.0775  0.1284
11073W        W26967  12.351  13.895   2.746  0.0989 -0.1700  0.2067
11074W        W26968   1.405  14.401  13.825 -0.1104  0.0462  0.0334
11075W        W26969  17.430  11.855  15.041 -0.0937  0.3034 -0.1029
11076W        W26970  17.797  10.376   1.425  0.2439  0.1990  0.3865
11077W        W26971  13.576   1.150   3.503 -0.0654 -0.1592 -0.0482
11078W        W26972   4.008   0.053   5.006  0.0537  0.1264 -0.0986
11079W        W26973   3.088  11.929   3.469 -0.0185 -0.4719 -0.1920
11080W        W26974  18.409  15.271   1.341 -0.0013  0.0855  0.4132
11081W        W26975   2.616  17.900   4.286 -0.0919 -0.3358 -0.1172
11082W        W26976  10.780   4.062  14.961  0.1049 -0.1198  0.1954
11083W        W26977  15.597   8.396   3.178 -0.1669  0.2533 -0.0890
11084W        W26978  12.546   9.504   6.186  0.0435 -0.1835 -0.0583
11085W        W26979   2.166   5.626   2.310  0.2543  0.0834 -0.0505
11086W        W26980   9.375   2.099  12.422  0.0425 -0.0233  0.3944
11087W        W26981   2.549   3.880   0.455  0.1151 -0.6664 -0.1176
11088W        W26982   1.502  12.150  10.718  0.0680  0.4229 -0.4375
11089W        W26983  17.313   0.638  11.983 -0.4451 -0.0025 -0.3561
11090W        W26984   3.439  11.896  13.118  0.3374 -0.0353  0.0788
11091W        W26985  17.931  10.232   3.944  0.0375  0.2182 -0.0820
11092W        W26986   2.195   8.208  11.134  0.1341  0.1243  0.2649
11093W        W26987  10.623  18.705  12.387 -0.2045 -0.0280 -0.0890
11094W        W26988  17.928  10.442  15.390  0.1016 -0.0904 -0.3596
11095W        W26989  12.874  10.475   0.548 -0.2462  0.2942 -0.1666
11096W        W26990   9.089   2.109   1.320 -0.3904  0.3177 -0.1751
11097W        W26991   2.097   0.373   4.812 -0.5983 -0.2503 -0.2450
11098W        W26992  15.916  18.537   5.208 -0.0569  0.3057  0.0618
11099W        W26993  14.852  10.440   2.217  0.0122 -0.1816 -0.1040
11100W        W26994  15.696  16.364   4.153 -0.0875  0.2787 -0.0070
11101W        W26995   7.872   9.936   3.895  0.0227 -0.1335  0.1273
11102W        W26996  11.803  11.701   6.018 -0.3287 -0.2212  0.0915
11103W        W26997  13.525  12.030   4.564 -0.1596 -0.1587  0.2059
11104W        W26998  16.802  11.142   2.877  0.3385  0.3673  0.0388
11105W        W26999   4.958  16.479   3.164 -0.1293 -0.0921  0.1421
11106W        W27000   8.545  13.514   0.619  0.0577 -0.5167 -0.1259
11107W        W27001  11.462   9.953  11.147  0.2082 -0.3307  0.1849
11108W        W27002   9.659  10.222   0.352 -0.7405  0.1468 -0.0191
11109W        W27003   2.170   2.229  10.633 -0.1346  0.2673  0.1073
11110W        W27004  11.357  15.522  14.932 -0.2217 -0.3663 -0.0947
11111W        W27005  12.837  18.293  14.290 -0.2293 -0.1909  0.0320
11112W        W27006  10.719  10.675   1.939 -0.1379 -0.0229 -0.0293
11113W        W27007   9.142   1.340  14.958  0.1199 -0.1462  0.3004
11114W        W27008   2.522   4.508   0.855  0.1536 -0.2359 -0.1560
11115W        W27009   0.670  18.036   3.196  0.1911  0.2899  0.1099
11116W        W27010  18.762   5.705  13.986  0.0009 -0.1093 -0.0354
11117W        W27011   3.042  10.678   1.472  0.1919  0.4212 -0.1140
11118W        W27012  18.282  16.147  15.384  0.0242 -0.4525 -0.0670
11119W        W27013  18.173  14.696   5.658  0.1438  0.1035  0.0767
11120W        W27014   3.024  10.889   4.679  0.0286  0.3597 -0.2971
11121W        W27015  17.228   9.163  13.500  0.0439 -0.0718 -0.0169
11122W        W27016   6.929  12.986   1.364  0.0362  0.1391  0.4759
11123W        W27017  17.410  17.096   5.186  0.0403  0.1656 -0.2408
11124W        W27018  15.945   5.679   6.119 -0.1036  0.0831 -0.2365
11125W        W27019  12.021   2.647  11.288  0.0189 -0.2524  0.2204
11126W        W27020   3.103  10.990   0.332  0.2236  0.0421 -0.3110
11127W        W27021   9.878  16.424  15.579 -0.0680 -0.3180  0.1303
11128W        W27022  12.275  15.663   1.992  0.1948  0.2846  0.1192
11129W        W27023  18.032   8.129  13.788 -0.0732  0.0890  0.0176
11130W        W27024  17.694  15.475   3.382  0.2105  0.2618  0.1505
11131W        W27025   2.848  17.178   4.207 -0.1296  0.0066  0.1758
11132W        W27026   1.018   3.844  15.531 -0.2504 -0.2022  0.0339
11133W        W27027  12.206  12.310   5.463 -0.3382 -0.2727 -0.0612
11134W        W27028   0.506   7.729   5.024 -0.0480  0.2569  0.0288
11135W        W27029  15.400  11.835  12.719 -0.2554 -0.0610  0.1314
11136W        W27030   1.107   5.493   3.190 -0.0806 -0.1950  0.0729
11137W        W27031  10.095  14.226  15.586 -0.0526  0.0594 -0.2255
11138W        W27032  18.519  16.921  15.586  0.1688  0.0857  0.0099
11139W        W27033  18.588  14.508  15.599 -0.0992 -0.2179 -0.2739
11140W        W27034   1.914   6.230  13.249  0.2386  0.3428  0.0878
11141W        W27035   7.044  14.870  13.140  0.2905 -0.3189 -0.0191
11142W        W27036   0.050  12.888   3.612 -0.1520  0.0276 -0.1160
11143W        W27037   6.733   8.823   0.232 -0.2763 -0.0994  0.0164
11144W        W27038  16.843   0.274   3.401 -0.0190  0.2585 -0.2480
11145W        W27039   9.659   1.809   0.071 -0.0026  0.1875  0.0254
11146W        W27040  14.437  11.484   2.918  0.3464 -0.0740 -0.1365
11147W        W27041   6.193   9.515  13.463  0.1863 -0.2765  0.2121
11148W        W27042   9.093   8.049   4.124  0.2391  0.1549 -0.2172
11149W        W27043   2.402  13.648  14.434  0.1667 -0.1224 -0.1863
11150W        W27044  14.124  11.330   5.059 -0.0921  0.2686 -0.4838
11151W        W27045   6.596  18.654  15.138 -0.0688  0.2769 -0.2568
11152W        W27046   6.961  15.782  12.096  0.2574 -0.3347 -0.0580
11153W        W27047  17.734   6.046   4.695 -0.2591 -0.1703  0.0097
11154W        W27048   9.656  13.194   1.751 -0.2148 -0.1929 -0.1037
11155W        W27049   3.029  12.965   5.642  0.1340 -0.2324 -0.0075
11156W        W27050  16.488  15.512   3.634  0.0310  0.4043  0.1593
11157W        W27051  11.509   6.820  10.258 -0.1466 -0.0296  0.0502
11158W        W27052  18.066  17.644   5.377  0.0725 -0.0206 -0.1082
11159W        W27053   5.845   1.910  13.009  0.3028  0.1329  0.0084
11160W        W27054  12.826   9.249   0.261  0.2164 -0.2962 -0.2699
11161W        W27055   1.478  16.165   4.076 -0.0155 -0.1241 -0.4550
11162W        W27056  13.616  12.136   0.381  0.1465 -0.1036 -0.3116
11163W        W27057  10.916   6.690   0.413 -0.1257  0.2440  0.1566
11164W        W27058  15.519  14.466   3.147 -0.0659  0.2568  0.0608
11165W        W27059  10.163  17.682  11.164  0.2900 -0.0232  0.2287
11166W        W27060  10.532  10.373   1.447 -0.2440  0.2359  0.2419
11167W        W27061  17.398  10.329  11.791  0.0811 -0.5153 -0.2087
11168W        W27062   3.981   0.991   1.889 -0.0990  0.2239  0.0484
11169W        W27063  13.849  16.226   0.997 -0.4587  0.1144  0.0193
11170W        W27064  12.692  13.398  14.876 -0.1531 -0.1379 -0.0032
11171W        W27065   8.809  18.242  11.303 -0.3110 -0.1222 -0.2292
11172W        W27066  17.986  18.216  15.461  0.0743  0.1099  0.0826
11173W        W27067  12.293  18.178   2.910 -0.0272  0.3877 -0.2005
11174W        W27068  16.140   3.075   3.992 -0.2494  0.0506  0.0305
11175W        W27069  14.015   8.617   5.579  0.0015 -0.1243  0.1985
11176W        W27070  17.062   0.159   3.922  0.1412  0.2109  0.1167
11177W        W27071   9.707   3.989  13.002 -0.1835 -0.0760 -0.0097
11178W        W27072   9.350   7.017   4.591  0.1433 -0.0383 -0.2149
11179W        W27073  11.911   3.890   2.635  0.0363 -0.1089  0.1524
11180W        W27074   9.921   6.957  12.317 -0.0319 -0.1519  0.2713
11181W        W27075  14.695   8.417   3.482  0.1394 -0.0925 -0.1226
11182W        W27076  17.005  18.181   3.315  0.3925 -0.0987 -0.2141
11183W        W27077   3.570  17.236   1.468  0.0081  0.1649 -0.0679
11184W        W27078  16.612   3.631  14.818 -0.0288  0.1112  0.1551
11185W        W27079   3.976   3.077   0.018 -0.0413 -0.2025  0.0302
11186W        W27080   8.184   9.829   4.407 -0.1664  0.0176  0.0032
11187W        W27081  11.470   3.285   1.378  0.0859 -0.0502  0.3838
11188W        W27082   4.485   7.098   5.009  0.1994 -0.2105 -0.0159
11189W        W27083   3.265  15.854  10.721 -0.0040 -0.3453  0.0958
11190W        W27084  14.431   0.058  14.982  0.1727 -0.0665  0.0749
11191W        W27085  10.129  16.687   5.065 -0.1045  0.1305  0.0143
11192W        W27086   6.402   6.400  11.799 -0.1277  0.0994  0.2368
11193W        W27087   3.156  14.540  10.244  0.2007 -0.2210 -0.0326
11194W        W27088  15.297  16.164   1.849  0.1030  0.1746  0.1486
11195W        W27089  15.065   2.050   0.184 -0.1353 -0.4486  0.1424
11196W        W27090   9.073  16.552   3.590  0.1675  0.0226  0.1156
11197W        W27091   3.962   4.967   5.122  0.0084 -0.0874 -0.0619
11198W        W27092  11.275   2.581  13.174  0.2945  0.3581  0.0357
11199W        W27093   8.239   1.255   3.595  0.1595 -0.2210 -0.0912
11200W        W27094  16.971  12.378  11.995 -0.1157 -0.1187 -0.2729
11201W        W27095  13.142  18.064   2.741  0.0391 -0.0667  0.0585
11202W        W27096  14.139  17.576   0.280  0.1834 -0.2288 -0.0811
11203W        W27097  13.436  14.387  11.661  0.0227  0.1319  0.1276
11204W        W27098   1.256   4.449  14.953  0.3182 -0.1471 -0.0158
11205W        W27099   7.366  13.840  13.447  0.0053 -0.5590  0.3780
11206W        W27100   8.998  13.203  12.261  0.0562  0.0091 -0.0594
11207W        W27101  13.909  11.036   4.437 -0.2897  0.1608  0.0248
11208W        W27102   1.142   1.938  14.989  0.1222  0.0402 -0.0047
11209W        W27103  12.961   8.562   1.538 -0.0165  0.1098 -0.0770
11210W        W27104   6.094  10.712   4.509  0.1746  0.1552  0.1269
11211W        W27105  13.373  11.207  11.457 -0.0520 -0.0761  0.0271
11212W        W27106   3.458   8.316  12.070  0.0355  0.0662  0.0812
11213W        W27107  16.520  12.703   4.554  0.1708  0.0853  0.3852
11214W        W27108   9.363   7.337   3.538  0.0168  0.2998  0.1083
11215W        W27109  12.436   1.444  13.043  0.2752 -0.2787 -0.2580
11216W        W27110   2.432  15.952  11.251  0.1388  0.1064 -0.1811
11217W        W27111   8.325   9.398  14.351 -0.1262 -0.1044 -0.1289
11218W        W27112  18.542   3.701   3.730 -0.0019 -0.0276 -0.0366
11219W        W27113  10.016   5.886   3.466 -0.0104 -0.4071 -0.1869
11220W        W27114  10.291  18.220   2.394 -0.1935 -0.3701 -0.0202
11221W        W27115  13.768   0.428   2.699  0.3140 -0.1408 -0.1341
11222W        W27116  18.125   6.857   0.648  0.1455  0.1622 -0.1536
11223W        W27117  12.409  10.364   4.307  0.0946  0.0015 -0.0245
11224W        W27118   4.673   8.473  11.637  0.1065 -0.0326 -0.0226
11225W        W27119   9.512  11.172  14.140  0.0008 -0.2204  0.2994
11226W        W27120  11.556  13.285  11.880  0.0896 -0.1584 -0.1469
11227W        W27121  15.967   3.054   4.460 -0.0671 -0.1156  0.2227
11228W        W27122   0.123  10.484  12.754  0.0888 -0.0643 -0.2659
11229W        W27123  12.716   4.938  13.654  0.0508  0.2566  0.2015
11230W        W27124   9.059   1.731  14.454  0.1627 -0.3543 -0.0376
11231W        W27125   0.200   2.550   1.220 -0.1338  0.0033  0.0735
11232W        W27126   0.153  18.250  13.053  0.0515  0.0315  0.1219
11233W        W27127  18.443   6.069  12.216 -0.0777  0.1224  0.0242
11234W        W27128   8.639   7.542   3.382  0.0022  0.3279 -0.1614
11235W        W27129  15.132  15.856   4.804 -0.0858  0.2662 -0.3066
11236W        W27130  15.421  12.595  10.759 -0.0530 -0.0518 -0.2056
11237W        W27131  16.507   4.737   2.566 -0.0311  0.2274  0.1333
11238W        W27132   4.178   3.195   4.734 -0.0208 -0.0553 -0.0433
11239W        W27133   9.898   5.546   1.819 -0.2584 -0.0881  0.1151
11240W        W27134   1.010   6.498   3.442  0.0716 -0.2567 -0.0152
11241W        W27135   9.426   5.576   1.565 -0.1924  0.0565  0.0898
11242W        W27136   5.870   0.054   5.675 -0.0199  0.3222  0.1107
11243W        W27137   2.723   3.070   0.731  0.2981 -0.2021  0.0530
11244W        W27138   4.360   1.486  10.059 -0.0041  0.1960  0.2616
11245W        W27139  14.622  16.029   1.205 -0.2602 -0.1033  0.3382
11246W        W27140  18.091   5.875  11.354  0.0067 -0.1240 -0.0081
11247W        W27141  16.024   8.515  13.145  0.2618 -0.0466 -0.2651
11248W        W27142  16.998  12.150  14.931  0.1058 -0.0895 -0.0066
11249W        W27143   6.647  11.970   5.140  0.4219 -0.0065 -0.0378
11250W        W27144  10.435  18.445  12.913  0.2848  0.3542 -0.0090
11251W        W27145   5.782   5.842   4.239 -0.2833  0.3634 -0.0810
11252W        W27146  11.768   4.507   5.177  0.1591 -0.1623  0.0520
11253W        W27147  10.166   0.897   3.397 -0.0507 -0.0860 -0.0398
11254W        W27148   0.992  10.803  12.815 -0.1058  0.1887  0.1820
11255W        W27149   4.853   2.000   1.323 -0.1790 -0.0243 -0.0706
11256W        W27150   4.996  13.743   2.944 -0.0759 -0.1865  0.0524
11257W        W27151  11.911  13.184  11.548  0.2269 -0.1744  0.1989
11258W        W27152   3.107  17.415  12.840 -0.3822  0.0196  0.3416
11259W        W27153   5.178   1.646   3.771  0.2351 -0.0910  0.0438
11260W        W27154   1.905  11.890   2.044 -0.0371 -0.0205  0.5272
11261W        W27155  15.962   8.851  13.505 -0.3648 -0.1791 -0.1520
11262W        W27156   0.076   3.696   0.638  0.4093  0.0295 -0.4093
11263W        W27157  12.890  10.756  14.680 -0.0633  0.1290  0.0683
11264W        W27158   0.292  17.216   3.613  0.0483  0.0118  0.0918
11265W        W27159  17.984   4.146  12.767  0.1448 -0.0757 -0.0947
11266W        W27160  17.194  17.640   4.970  0.4279 -0.0979 -0.0164
11267W        W27161   3.311  11.502  15.267  0.1843 -0.0315 -0.2167
11268W        W27162  17.861   0.245  12.726 -0.1116 -0.1901  0.0928
11269W        W27163  14.099  10.780   2.210 -0.2263 -0.4753  0.0194
11270W        W27164  13.812   1.707   4.115  0.3259  0.2305 -0.2062
11271W        W27165  14.075   4.503  11.691  0.0947  0.0719 -0.1008
11272W        W27166   3.043  12.982  13.784 -0.1082 -0.0490  0.0141
11273W        W27167   2.858  12.027   0.968  0.0366 -0.1484 -0.1152
11274W        W27168  10.787  12.061  13.352 -0.0973  0.3250 -0.0868
11275W        W27169   5.213  17.336  13.157 -0.2273 -0.0914  0.1143
11276W        W27170  13.376   9.358  15.171 -0.1717  0.2109 -0.0317
11277W        W27171  10.105  14.232   0.874  0.3917 -0.0724 -0.1635
11278W        W27172  16.728  10.697  14.449 -0.0256  0.1493 -0.2459
11279W        W27173  10.657   8.114  14.949  0.0716  0.1298  0.1361
11280W        W27174  10.256  18.111  15.402  0.0126 -0.1681  0.2140
11281W        W27175   4.259   1.095  13.812  0.0577 -0.0180 -0.1449
11282W        W27176  17.111   1.866   2.242  0.0094 -0.3887 -0.0835
11283W        W27177   1.485  18.273   5.097 -0.3042  0.2611  0.1911
11284W        W27178   4.268   0.780  11.938 -0.0760 -0.2744 -0.0484
11285W        W27179   9.620   2.946   3.691 -0.1021  0.3579 -0.1055
11286W        W27180   2.592   6.577   3.137  0.3698  0.4173  0.1332
11287W        W27181   3.060  13.795  12.881 -0.1182  0.0503  0.2132
11288W        W27182   6.426  14.448  11.957  0.3006 -0.3098  0.3669
11289W        W27183   5.103  15.543   0.464 -0.2221 -0.2996 -0.0307
11290W        W27184   4.044   1.619   2.623 -0.1593 -0.1722 -0.0559
11291W        W27185  10.811   9.086   5.692  0.0610 -0.0157 -0.1697
11292W        W27186   7.749  18.246  15.347 -0.3150 -0.2357  0.0234
11293W        W27187   4.516   1.859   4.638 -0.0571 -0.0551 -0.1780
11294W        W27188  10.419   0.794  10.380 -0.3236 -0.1220 -0.0444
11295W        W27189  15.020   3.540  11.712  0.0577 -0.0489 -0.1036
11296W        W27190  17.400   1.196   5.225 -0.2131  0.1227  0.0937
11297W        W27191  14.188  11.198  13.417  0.0864  0.1140  0.2264
11298W        W27192   7.983  17.242  11.675  0.0191  0.0761 -0.2033
11299W        W27193   0.264  12.443   1.386 -0.1141  0.0870  0.1640
11300W        W27194  10.762   9.487   2.683  0.1748  0.1550 -0.0860
11301W        W27195   6.968   3.035   4.520 -0.2685 -0.1706  0.0979
11302W        W27196  10.830   9.710  11.703 -0.2105  0.0761 -0.1579
11303W        W27197  14.001  18.484   4.462 -0.2338  0.1948 -0.1595
11304W        W27198  15.876  12.311   5.787  0.1618 -0.0520  0.1737
11305W        W27199  16.133  16.305   2.145  0.4114 -0.3182 -0.2531
11306W        W27200   5.225   9.894   2.106  0.2954 -0.1710  0.2734
11307W        W27201   1.135   1.903  13.751  0.0971  0.0274 -0.0582
11308W        W27202   1.902   0.720   5.436 -0.3047  0.2460  0.0056
11309W        W27203   3.022  13.325   0.816 -0.1112  0.3645 -0.0669
11310W        W27204  18.133  11.071  11.110 -0.0904 -0.3620  0.2359
11311W        W27205   4.547   5.462   2.024  0.1197  0.2207 -0.1632
11312W        W27206  11.780   9.295  12.582  0.0962  0.3197  0.1982
11313W        W27207   6.960  17.386  12.092 -0.1042 -0.2370  0.0812
11314W        W27208  13.119  13.529   1.552 -0.1127  0.2348  0.0478
11315W        W27209  10.238   9.037  14.819  0.1096 -0.1443 -0.0087
11316W        W27210   7.987  10.280  12.447  0.1111  0.3016 -0.2542
11317W        W27211   6.424   0.460  14.297  0.1689  0.1786 -0.3250
11318W        W27212  11.039   0.965  14.149  0.1361 -0.0564 -0.2417
11319W        W27213  18.389  14.232  12.229  0.0833 -0.3041 -0.0492
11320W        W27214   1.928   4.438  13.269  0.1535  0.0307 -0.0005
11321W        W27215  14.571   7.695  13.566  0.1247  0.0492 -0.2142
11322W        W27216  12.041  16.984   0.623 -0.0786 -0.0354  0.2986
11323W        W27217   7.364   4.883   4.088  0.2037  0.1354 -0.0477
11324W        W27218   4.833   8.664  12.740 -0.2688  0.1265 -0.0351
11325W        W27219   6.920   9.721   5.222 -0.0496 -0.1259  0.1664
11326W        W27220   0.234   4.852   1.535 -0.1601 -0.0185  0.0348
11327W        W27221  15.093   8.259   1.528 -0.1719 -0.1894  0.0627
11328W        W27222   3.118   8.757  14.999  0.2260  0.1109 -0.0401
11329W        W27223   6.876   2.913  10.525  0.1645  0.2156  0.1453
11330W        W27224   7.001   6.873  15.496 -0.0735  0.0755 -0.2105
11331W        W27225  11.113   3.813  11.461 -0.1334 -0.3477 -0.0721
11332W        W27226  10.588   7.319   2.904 -0.0886 -0.1956 -0.2659
11333W        W27227  11.224  11.654  13.535  0.0254  0.2574 -0.0168
11334W        W27228   9.459  15.431   3.425  0.2834  0.0770  0.0347
11335W        W27229  13.430  18.480   4.546  0.0903 -0.0180 -0.0803
11336W        W27230  18.006  15.604   9.932 -0.0963 -0.0989 -0.0267
11337W        W27231  12.434  18.437  14.098  0.3359  0.0153 -0.0394
11338W        W27232   9.318   1.832   5.336 -0.0229  0.0662  0.1573
11339W        W27233   2.506  11.630   3.531  0.0634  0.2023  0.1590
11340W        W27234  18.590   0.251   1.475 -0.2594  0.0996  0.2866
11341W        W27235  13.943  17.236  14.831 -0.1297  0.1405 -0.2831
11342W        W27236   7.121  14.819   4.388 -0.1326  0.2190  0.0096
11343W        W27237  17.999   3.823   4.741 -0.0540  0.1406  0.0015
11344W        W27238   3.776   8.267  14.427 -0.0836  0.2365  0.1804
11345W        W27239   0.152   2.644   5.720 -0.0315 -0.0513  0.2052
11346W        W27240  18.081  14.851   0.108 -0.2623 -0.0709  0.1052
11347W        W27241  10.709   5.384   1.405  0.2541  0.2245 -0.0392
11348W        W27242   7.768   6.050   2.250  0.0228 -0.1401  0.0854
11349W        W27243   1.508   4.653   0.894  0.2326  0.2248  0.0904
11350W        W27244  14.647  12.225  14.059  0.0671  0.1506 -0.0037
11351W        W27245   5.905  14.276  11.098 -0.2066  0.0440 -0.0099
11352W        W27246   3.262  18.648   5.138 -0.4366  0.0623 -0.1673
11353W        W27247   5.802   9.531   1.559  0.0188 -0.2121 -0.4592
11354W        W27248  15.509   3.509   5.149 -0.0351  0.0828 -0.1428
11355W        W27249  18.523  17.540  14.830  0.1081 -0.0055  0.1411
11356W        W27250   0.640   4.247  12.496 -0.2583  0.2136  0.2596
11357W        W27251   9.580  10.629  13.171  0.2112  0.0226 -0.1146
11358W        W27252  17.161  12.303  11.507  0.3504  0.1200  0.1288
11359W        W27253   0.277  10.331  13.314  0.0322 -0.0225 -0.1385
11360W        W27254  15.710   8.389  10.422 -0.2985  0.0552 -0.0925
11361W        W27255   6.326   8.456   3.549  0.2206  0.2160 -0.0100
11362W        W27256  12.926   0.695   2.573 -0.3381  0.3040 -0.0994
11363W        W27257   0.323  16.027   0.886 -0.0328 -0.0417 -0.1218
11364W        W27258   4.426   1.124   3.523  0.0182  0.1358 -0.1107
11365W        W27259   5.181  16.913   0.171  0.0130  0.0648  0.4532
11366W        W27260  15.345  12.072   2.340  0.2430 -0.2277  0.0780
11367W        W27261  10.341  11.160  13.464 -0.2006  0.1103  0.1960
11368W        W27262   6.206  15.250  12.720 -0.0688 -0.0625  0.0257
11369W        W27263   8.152  15.077  14.489  0.1046  0.3405  0.2221
11370W        W27264   8.913   7.681  14.511  0.1659 -0.0388  0.0447
11371W        W27265  14.401  16.156   0.525  0.0375 -0.2285  0.0329
11372W        W27266   7.235   2.244  13.001  0.1445 -0.1781 -0.2494
11373W        W27267   3.587  14.276  14.804  0.0066 -0.2533  0.1672
11374W        W27268   8.815  14.071   4.280 -0.0801 -0.1434 -0.1381
11375W        W27269  14.640  11.941   1.214 -0.0695  0.0681  0.3559
11376W        W27270   9.925  10.830   5.869  0.2252 -0.1227 -0.1863
11377W        W27271   8.513   2.585   1.770 -0.0051 -0.1487 -0.0924
11378W        W27272   6.852   8.138   0.930  0.2018 -0.0223  0.4486
11379W        W27273   1.982  11.090  13.204  0.1464  0.2535  0.1393
11380W        W27274   7.639   4.730   0.356 -0.2120  0.1995 -0.3464
11381W        W27275  17.936   7.422   4.838  0.1171 -0.2845  0.3941
11382W        W27276   8.720   4.112  13.761 -0.0872 -0.0887 -0.0252
11383W        W27277  16.763  18.187  14.219  0.2497 -0.2034  0.0068
11384W        W27278  11.688  11.742   3.121 -0.3477  0.2746  0.1304
11385W        W27279  12.342   8.656   6.164  0.0822 -0.1316  0.2198
11386W        W27280   9.657   9.131   3.189 -0.0617 -0.0624  0.0354
11387W        W27281   6.725   3.701   0.110  0.0043  0.1526  0.2034
11388W        W27282  11.697   8.886  13.870  0.2571  0.0790 -0.1904
11389W        W27283   2.819   1.040   5.208  0.2349  0.0652 -0.1333
11390W        W27284   8.727  10.044  11.292 -0.1601  0.0473  0.3169
11391W        W27285   1.192   4.266   5.886 -0.1161  0.1668  0.3590
11392W        W27286   2.728  14.760   4.761 -0.0636 -0.2229  0.1119
11393W        W27287  12.497   9.533   4.176 -0.0402  0.1778  0.1733
11394W        W27288   8.805   4.807  14.420  0.2684  0.0031  0.1496
11395W        W27289   4.318   0.751   1.602  0.0108  0.1313  0.1193
11396W        W27290  17.619  13.095   1.260 -0.1003  0.0328  0.0215
11397W        W27291  14.049  12.050  13.973  0.2999 -0.0256  0.1595
11398W        W27292   3.094  13.787   4.626 -0.3581  0.0461 -0.0777
11399W        W27293   1.981   1.507  12.190  0.1144  0.2326 -0.2121
11400W        W27294  18.353   7.659  11.434 -0.0033  0.1738  0.1942
11401W        W27295  15.598  18.007   4.373  0.0062  0.0111 -0.2088
11402W        W27296  11.981   3.548  13.433  0.0118  0.2279  0.0543
11403W        W27297  18.749  14.136  15.311 -0.2501 -0.0342 -0.2430
11404W        W27298   8.067  17.024   2.856 -0.1056 -0.1195  0.0418
11405W        W27299   9.180  17.551   2.837 -0.2681  0.0340 -0.1435
11406W        W27300  13.918   7.630  15.018 -0.0024 -0.1288 -0.0236
11407W        W27301   4.670   3.902   2.461  0.0221 -0.0836 -0.3118
11408W        W27302  13.634   4.766   3.826 -0.2113  0.4143  0.0851
11409W        W27303  17.012  15.784   2.369  0.3258 -0.0806 -0.0663
11410W        W27304   7.097   2.335   1.911 -0.0630  0.1381 -0.2791
11411W        W27305  17.310   0.306  14.529 -0.2421 -0.0123  0.0192
11412W        W27306  17.934  13.118  10.951  0.0413 -0.1308  0.1079
11413W        W27307  15.349   9.426   2.229 -0.1559  0.1318  0.0536
11414W        W27308   4.119   2.885  14.075 -0.0051  0.0774  0.0838
11415W        W27309   6.910  18.645   0.340  0.0771 -0.1605 -0.0096
11416W        W27310   2.322   0.597  12.241  0.3641 -0.0338 -0.1240
11417W        W27311   0.355   0.334  12.052  0.0686  0.2702 -0.2784
11418W        W27312   1.195   5.122  15.340  0.1067  0.0414 -0.0791
11419W        W27313  12.228  11.090  11.698  0.2354 -0.1867 -0.2185
11420W        W27314  10.774   0.115   0.636  0.4345  0.1357  0.3592
11421W        W27315   8.200   3.968  10.874 -0.1702  0.0465  0.0262
11422W        W27316   4.755   4.342   4.542 -0.0818 -0.0038  0.1896
11423W        W27317   9.867   5.396  13.676 -0.1029  0.0993  0.0752
11424W        W27318   0.925  17.976   2.249  0.2416 -0.1230 -0.2923
11425W        W27319   4.031   3.783   0.594 -0.1134  0.0417 -0.1503
11426W        W27320   3.289   7.118  11.218  0.0547 -0.4447 -0.1344
11427W        W27321   9.901   5.237   2.764  0.1870  0.0347  0.2443
11428W        W27322   0.344  11.518  14.223  0.1107 -0.0705 -0.0710
11429W        W27323  16.731  15.257   4.991  0.0918  0.0842  0.2933
11430W        W27324  11.831   9.623  11.894  0.1526  0.3606 -0.0446
11431W        W27325   8.718  12.675  15.496 -0.1239  0.0499  0.1403
11432W        W27326   4.054  15.936   1.588 -0.0779 -0.0327  0.0777
11433W        W27327   3.823   5.540   2.589  0.0373  0.2475  0.2203
11434W        W27328  14.880   6.971   4.767 -0.2623  0.0718 -0.2041
11435W        W27329   0.447  15.034   4.898  0.1289 -0.1426 -0.2730
11436W        W27330   7.024   3.194   0.682 -0.3632  0.0476  0.2700
11437W        W27331   4.418   2.617   1.984 -0.0099 -0.0020 -0.0564
11438W        W27332   9.533  10.255  14.935  0.2021 -0.1818 -0.0376
11439W        W27333   5.382   2.392  10.648  0.1245  0.3116 -0.1275
11440W        W27334  11.681   5.244   2.525 -0.0297 -0.1348  0.0791
11441W        W27335   0.560   1.398  11.719 -0.2833 -0.3015  0.2796
11442W        W27336   7.738  12.903   4.859  0.0616  0.2494 -0.0740
11443W        W27337  12.669   8.076  14.912  0.0992  0.0138 -0.2052
11444W        W27338   0.443   2.879  14.911 -0.3778  0.0682 -0.0370
11445W        W27339  15.005   7.695   2.031  0.1124  0.0381  0.4486
11446W        W27340   9.215  17.231   2.483  0.1543 -0.1095 -0.1468
11447W        W27341   1.753  18.471   4.304  0.1046 -0.0176 -0.0167
11448W        W27342  14.685   9.909  13.439  0.0013 -0.0869  0.3899
11449W        W27343   4.453  15.854   4.224  0.1666 -0.1474 -0.0167
11450W        W27344  16.129  12.170  12.388  0.3076  0.6093  0.1483
11451W        W27345   2.238   6.302  11.144  0.0178  0.2212  0.0336
11452W        W27346   5.919  14.212   2.142  0.4099 -0.1892 -0.1431
11453W        W27347   3.179  16.678   5.590 -0.2691  0.1440 -0.0842
11454W        W27348   4.798  18.437  10.950  0.1100  0.0362  0.3467
11455W        W27349   7.644  16.237  14.311 -0.0032 -0.0358  0.2839
11456W        W27350  10.288   1.887  12.808 -0.2329  0.0432 -0.2900
11457W        W27351   6.184   7.730  11.042  0.2280  0.1545  0.0224
11458W        W27352   1.219  13.603  11.439  0.0362 -0.1883  0.0623
11459W        W27353   0.437  12.624  12.946 -0.0385  0.0678 -0.1007
11460W        W27354  10.768   6.522   0.825 -0.2575 -0.1533  0.1219
11461W        W27355  17.418  14.803  12.689  0.0088 -0.0624  0.0485
11462W        W27356   4.027   0.603  11.529 -0.1793  0.1638  0.2626
11463W        W27357   7.208  17.920   4.992  0.0988 -0.3613 -0.0651
11464W        W27358  15.697   7.033   5.218  0.0203 -0.0818 -0.0739
11465W        W27359  15.312   2.030   0.697 -0.1042 -0.0687 -0.2386
11466W        W27360   4.728  13.863  13.894 -0.0386  0.0158 -0.4542
11467W        W27361  15.813   8.157   2.762  0.0095 -0.0574  0.0814
11468W        W27362  18.641   2.122  14.342 -0.0780  0.0188  0.1082
11469W        W27363   6.459   9.310   3.871  0.1281  0.0778 -0.1356
11470W        W27364  14.689  15.477   2.383 -0.0215  0.3192 -0.0808
11471W        W27365   9.695  15.469  11.188  0.0243 -0.0243 -0.0966
11472W        W27366  15.140  11.235   0.579  0.0165  0.1398  0.0338
11473W        W27367  13.027   2.432   5.063 -0.0430  0.4373 -0.0778
11474W        W27368   2.597   5.472   4.797  0.1403  0.1984  0.1215
11475W        W27369  14.012  15.267   0.522 -0.0837  0.1563  0.2353
11476W        W27370   6.778  12.719  15.505  0.1019 -0.1874 -0.5697
11477W        W27371   4.364   5.820   4.781  0.1137  0.1572 -0.3261
11478W        W27372   5.671  17.056   2.946 -0.4214  0.0211  0.0553
11479W        W27373  10.933  10.140   2.331  0.3983 -0.3826  0.0422
11480W        W27374  14.172   2.199   3.231 -0.0071  0.1651 -0.0159
11481W        W27375   4.788  11.027  15.341  0.0729 -0.1811  0.0684
11482W        W27376   7.399  12.684  14.765 -0.2748  0.0826  0.0582
11483W        W27377  18.137  17.851  14.436 -0.2794 -0.2585 -0.3371
11484W        W27378  18.659   6.918   3.167 -0.0311  0.0281 -0.2840
11485W        W27379  14.875   4.306   0.515 -0.0276  0.0532  0.0094
11486W        W27380   5.047  16.080   5.006  0.0308  0.0276 -0.0177
11487W        W27381  12.650   8.428   3.525 -0.0833 -0.1037 -0.3474
11488W        W27382   9.866  16.083  13.551 -0.3093 -0.2312  0.0941
11489W        W27383   5.760  12.558  10.499  0.3286  0.0638  0.1411
11490W        W27384   4.428  17.092   0.328  0.1429 -0.0432 -0.1277
11491W        W27385   8.852   6.755  13.482  0.0449 -0.2308  0.0743
11492W        W27386   3.345  13.866  15.494  0.1310 -0.0594  0.1322
11493W        W27387  15.958  14.273   1.500  0.3043 -0.2569  0.0987
11494W        W27388   6.940   8.697  12.245  0.0146 -0.0034  0.0781
11495W        W27389   7.104  13.571  13.765 -0.0866  0.3123  0.3460
11496W        W27390  11.268  10.444   4.955 -0.2604  0.0917 -0.2520
11497W        W27391   5.713   7.166  14.923  0.0201 -0.4877  0.3994
11498W        W27392   4.537  15.378   0.263  0.4232  0.2045  0.0162
11499W        W27393  13.484  12.171  15.385 -0.1764 -0.0895  0.0413
11500W        W27394   7.919   2.333   5.063  0.1001 -0.1693  0.4128
11501W        W27395   1.352  13.640   1.667 -0.1769  0.0335 -0.0323
11502W        W27396  14.012   2.907  10.796 -0.2148 -0.1961 -0.1160
11503W        W27397  18.107   6.803   1.252 -0.2563  0.1807  0.2241
11504W        W27398  15.613   4.131  14.762  0.4917  0.1228  0.1579
11505W        W27399  11.170  10.365  10.810 -0.2019 -0.0308  0.0425
11506W        W27400   5.561  16.383  10.434 -0.0140 -0.0648 -0.0406
11507W        W27401   9.858   3.231   2.537  0.1292 -0.0012  0.1806
11508W        W27402   8.483  12.212   0.014  0.0748  0.1297  0.1642
11509W        W27403  18.356   3.203   0.689 -0.3603 -0.1600 -0.2018
11510W        W27404  12.033   6.078   0.296  0.1840  0.0437  0.2883
11511W        W27405   8.477  11.022   3.939  0.1090 -0.0717  0.1572
11512W        W27406   3.838   7.927  14.753 -0.1902 -0.0646  0.0595
11513W        W27407   4.134  12.813   0.660 -0.3394  0.0833 -0.0760
11514W        W27408  16.429   0.837   0.984  0.0528 -0.1821 -0.1009
11515W        W27409   1.445   2.916  14.815  0.1596  0.1548  0.1137
11516W        W27410  15.258  15.715  14.275 -0.0351 -0.0535 -0.0035
11517W        W27411  17.757  14.656   0.810  0.1164  0.2386  0.0669
11518W        W27412  14.682  18.656  12.602  0.2736 -0.2398 -0.0094
11519W        W27413   5.126   1.887  13.695  0.0527  0.0766  0.0541
11520W        W27414   4.267  10.072  12.633  0.0547  0.2388 -0.1282
11521W        W27415  17.772   2.381   4.469 -0.5209  0.2018  0.1128
11522W        W27416   2.471  15.110   4.457 -0.4462  0.2518 -0.0573
11523W        W27417   5.213   5.106   4.565  0.1262  0.1494 -0.0821
11524W        W27418  13.403   2.437   3.061 -0.0606 -0.0084  0.1268
11525W        W27419  10.511  13.993   0.199  0.2439 -0.3241  0.0441
11526W        W27420  15.401  12.928  13.080  0.0493 -0.0438  0.1103
11527W        W27421   7.695   7.107  10.794 -0.1715 -0.2141 -0.0799
11528W        W27422   9.604  18.408  10.839 -0.1289  0.2008 -0.0759
11529W        W27423   9.372  14.363   4.119 -0.2194  0.2765 -0.1350
11530W        W27424  13.653  17.815  15.610  0.0352  0.1164 -0.0650
11531W        W27425   3.671  17.901  12.659 -0.1381 -0.2785  0.1685
11532W        W27426   0.758   9.380  12.112 -0.2509 -0.1242 -0.2379
11533W        W27427   8.149   2.808   2.602  0.3035  0.1354 -0.3420
11534W        W27428   6.981   3.732  11.568  0.0402 -0.0275  0.0485
11535W        W27429  15.471  12.541  15.167  0.0497 -0.1378 -0.0440
11536W        W27430   6.154   8.303  11.846  0.2774 -0.1453 -0.0438
11537W        W27431  17.218  18.155   2.846 -0.3571 -0.1673  0.0464
11538W        W27432   8.758   8.782  11.730  0.0438  0.1707 -0.1220
11539W        W27433   1.311   7.347  11.864 -0.2554 -0.1152 -0.1717
11540W        W27434  12.691  18.147   3.244 -0.2173  0.1848  0.4073
11541W        W27435   5.574  16.978   3.971 -0.1653  0.1649  0.0507
11542W        W27436   5.780   3.553  11.353  0.0618 -0.2479  0.1004
11543W        W27437  10.310  15.673   3.952  0.3640 -0.1948  0.0673
11544W        W27438   6.189  12.249   3.802  0.3164  0.1246 -0.0704
11545W        W27439  14.603  12.875   2.491  0.2276 -0.0037 -0.1577
11546W        W27440  13.491  16.423   2.961  0.0445 -0.2370  0.1836
11547W        W27441   2.441   6.582  14.479 -0.1988  0.0902 -0.2116
11548W        W27442  13.713  18.563  14.540 -0.1904 -0.1789 -0.4529
11549W        W27443   6.694   8.580   1.146  0.0459  0.1228 -0.2881
11550W        W27444   2.503   7.565   4.582 -0.1408 -0.1512  0.0500
11551W        W27445  18.466   3.692   2.215  0.0205  0.0184 -0.0944
11552W        W27446  15.786   0.167   1.050  0.0908 -0.0831 -0.0187
11553W        W27447  10.281   7.326   5.452  0.0726 -0.2556  0.2162
11554W        W27448   6.260   2.068  11.760  0.3799 -0.0474 -0.1026
11555W        W27449   6.611   0.096  15.619  0.0225 -0.1904  0.0290
11556W        W27450   8.896   3.320   1.466  0.1118 -0.0940  0.2608
11557W        W27451   3.202   4.376  12.331  0.4027 -0.0205 -0.2164
11558W        W27452   9.532  17.635   4.265 -0.1492  0.1034 -0.1848
11559W        W27453   6.633   3.729  12.852 -0.0943  0.1818  0.1355
11560W        W27454   0.034   1.295   1.644  0.0988  0.0311 -0.0346
11561W        W27455  15.755   0.778  12.187 -0.2399 -0.1004  0.2751
11562W        W27456   9.369  14.769   0.625  0.0347  0.1140  0.1618
11563W        W27457   7.286   1.642   2.453 -0.2447  0.0436  0.0004
11564W        W27458   3.383  13.649   3.932  0.2807  0.3128 -0.1493
11565W        W27459   5.961  14.332  13.464  0.1408  0.2214 -0.0674
11566W        W27460  10.730   8.031   4.467 -0.3843  0.1936 -0.1192
11567W        W27461  13.198   6.465  13.543  0.0249 -0.2351  0.1068
11568W        W27462   0.928  11.857   1.199 -0.1455  0.1851  0.2943
11569W        W27463  10.814  12.285   5.993  0.0739  0.1302  0.2018
11570W        W27464  15.814   0.794   2.805  0.0182  0.0399  0.1792
11571W        W27465  11.895  12.830  14.442  0.0868  0.0813  0.3607
11572W        W27466   7.870  12.189   3.324 -0.2274  0.0870  0.1701
11573W        W27467  17.797   1.899   3.071  0.1503 -0.2950  0.1669
11574W        W27468  12.362   5.067  14.724 -0.0883 -0.2725 -0.3218
11575W        W27469  13.182   4.120  12.717  0.0249 -0.1421  0.1548
11576W        W27470  17.554   5.692   2.938  0.0820 -0.0997  0.0412
11577W        W27471   5.732  10.093  10.821  0.0066  0.1206 -0.2337
11578W        W27472   0.468   2.552   2.111  0.1396  0.0546  0.0494
11579W        W27473  17.242  13.573  14.039  0.2322 -0.1845 -0.1068
11580W        W27474   7.823  17.641  10.864 -0.0777 -0.2959 -0.0636
11581W        W27475  10.397   3.450  13.615  0.0171 -0.2260 -0.0469
11582W        W27476   3.733  17.567  14.765  0.0675  0.1231  0.1335
11583W        W27477   7.674  17.930  12.571 -0.1072 -0.0294  0.2028
11584W        W27478  12.742  13.055   0.402 -0.2947  0.0602 -0.0421
11585W        W27479   4.041  16.213   4.337 -0.1110 -0.0995 -0.1212
11586W        W27480  18.581  13.552  15.372  0.0731 -0.1625  0.0725
11587W        W27481   9.106  16.845   0.523 -0.1934 -0.1897 -0.3854
11588W        W27482   4.497   1.663   3.076  0.1355  0.3139  0.0960
11589W        W27483  13.588   0.292  11.309  0.0302 -0.0277  0.2698
11590W        W27484  15.846  14.334   4.935  0.0378  0.0723 -0.2641
11591W        W27485  15.978  16.031   4.564 -0.0698  0.1413  0.2125
11592W        W27486  11.465   7.487   4.088  0.0429 -0.1014 -0.1746
11593W        W27487   9.479   7.472   0.520  0.1123 -0.0322 -0.1118
11594W        W27488   1.591   3.341   1.852  0.1102 -0.5053 -0.0428
11595W        W27489   5.290   2.640   1.396  0.0238 -0.2213 -0.0276
11596W        W27490  11.268  10.121  11.628 -0.0962 -0.0368 -0.0879
11597W        W27491  12.257   3.119   4.935 -0.0449  0.1084  0.0195
11598W        W27492   5.586   9.448   4.507  0.0493  0.0635 -0.0491
11599W        W27493   1.941  10.578  13.129  0.0118  0.0527 -0.1177
11600W        W27494  12.816   8.565   5.978 -0.0700  0.2702 -0.1191
11601W        W27495  11.412   2.031  14.059  0.0783  0.0410 -0.0086
11602W        W27496   5.563  15.354   9.291 -0.1871  0.2994 -0.1927
11603W        W27497   9.189  14.180   5.618 -0.3101 -0.3282 -0.3848
11604W        W27498  15.349   8.525  12.341 -0.2318 -0.2619 -0.1704
11605W        W27499   3.399  15.865   1.894  0.1062 -0.1300  0.1296
11606W        W27500   1.447  12.336   4.444  0.0525  0.1199 -0.1787
11607W        W27501  14.263   6.180   4.619  0.5012  0.1853 -0.2841
11608W        W27502   4.964  12.200  15.319  0.1432  0.1161  0.0278
11609W        W27503  14.347   3.612   2.753  0.0222  0.2879 -0.0697
11610W        W27504  13.277   8.024  13.474  0.0649  0.0732  0.1667
11611W        W27505  13.490  17.271  13.615  0.0258  0.1485 -0.0671
11612W        W27506  14.992  11.304  13.312 -0.0142 -0.1341 -0.3085
11613W        W27507   8.945  16.833   2.651 -0.1495 -0.0038  0.4907
11614W        W27508   7.340   6.545  12.609 -0.1487 -0.0668 -0.0276
11615W        W27509  13.120  12.581  13.978 -0.3510 -0.0913 -0.1333
11616W        W27510  15.717  12.654  13.290 -0.2124  0.1292 -0.0496
11617W        W27511  13.407   4.165   5.621  0.2071 -0.1499 -0.2460
11618W        W27512   3.926  12.925   2.261 -0.0904 -0.1075  0.1416
11619W        W27513   8.424   9.315   0.797  0.1229 -0.1442 -0.2861
11620W        W27514   4.167  14.718  14.010  0.1497  0.3152  0.0713
11621W        W27515  17.471  16.108   0.601 -0.0884 -0.1748 -0.1029
11622W        W27516  11.833  10.430  13.101 -0.1583 -0.0812 -0.1652
11623W        W27517  16.937   8.477   5.706 -0.2024  0.0480  0.0101
11624W        W27518  16.956   9.165   2.046  0.1513  0.3213  0.0146
11625W        W27519  14.483   8.887   3.731 -0.0128  0.2795 -0.2707
11626W        W27520   4.053  16.087   3.060 -0.1303  0.1766 -0.0420
11627W        W27521   0.062   9.152   3.376 -0.1985 -0.0898 -0.0024
11628W        W27522   6.008  16.039   0.546 -0.1029 -0.0037 -0.0169
11629W        W27523  10.993   7.019   4.907 -0.0670  0.1680 -0.3758
11630W        W27524   4.888   2.316  10.804 -0.0630 -0.1979  0.2363
11631W        W27525  16.322  14.038  13.823 -0.1283 -0.3142  0.3338
11632W        W27526   3.784   0.793   1.484 -0.0445  0.1762  0.1551
11633W        W27527  10.496  16.303  10.868 -0.2453 -0.0652  0.4283
11634W        W27528  15.437  16.137   3.189 -0.2932  0.0322 -0.0432
11635W        W27529   1.349   3.491  13.735  0.3172 -0.3456 -0.0659
11636W        W27530   2.045  12.954  13.778 -0.3119 -0.0035  0.1474
11637W        W27531  17.154   9.361  12.031 -0.3451 -0.1155 -0.0296
11638W        W27532  14.389  18.725   1.794  0.0832  0.1161  0.0936
11639W        W27533   2.279  13.453  11.373  0.1226  0.0342  0.1751
11640W        W27534  17.001   2.493   3.272  0.2853  0.1832 -0.3663
11641W        W27535  11.403  13.075  15.428  0.0366  0.0864 -0.2032
11642W        W27536  10.549  10.114  11.548 -0.0976 -0.0230 -0.1559
11643W        W27537  17.121  11.729   2.369  0.0175  0.2452  0.3900
11644W        W27538   5.922   1.270  13.007  0.4741 -0.0881 -0.4196
11645W        W27539  18.086  18.199  13.484  0.0659  0.0054  0.1249
11646W        W27540   6.279   5.365  13.431  0.0538  0.1044 -0.3992
11647W        W27541   8.524   0.438  10.841 -0.2077 -0.2845 -0.0424
11648W        W27542   7.434  18.382  12.700 -0.3613  0.2939  0.0548
11649W        W27543   1.558   7.359  10.917  0.2441 -0.1904  0.2401
11650W        W27544   7.671  15.144   2.803 -0.2051 -0.0952 -0.0324
11651W        W27545   2.682  15.906  12.858  0.0181 -0.0737  0.2114
11652W        W27546   3.339   0.540   0.123  0.0320 -0.1313 -0.0539
11653W        W27547   2.204   2.234  14.951  0.2384  0.1467 -0.1179
11654W        W27548   3.919   5.026   0.805 -0.0218  0.1043  0.0710
11655W        W27549  17.146   1.040   0.268  0.0744  0.0457  0.3296
11656W        W27550  18.519  11.517  11.908  0.2544  0.1691 -0.1660
11657W        W27551   7.634  13.867   3.390 -0.2422 -0.2616  0.0887
11658W        W27552  14.374  17.587  14.022 -0.3525 -0.0831  0.0681
11659W        W27553  10.514   5.925   5.571  0.0906  0.2263  0.1886
11660W        W27554   2.880   2.022  10.578 -0.1124 -0.1114 -0.0832
11661W        W27555   5.023   9.987  11.561 -0.1371 -0.0204 -0.0666
11662W        W27556   8.990  15.594   0.735 -0.1879 -0.0837 -0.1297
11663W        W27557   6.060  17.840  11.362 -0.0744 -0.3086 -0.0340
11664W        W27558  17.692   7.740  11.605 -0.1476 -0.1695  0.1465
11665W        W27559   0.324   2.304  14.237  0.1477  0.0391 -0.2260
11666W        W27560  12.902   5.984  11.638 -0.0742 -0.0201  0.1279
11667W        W27561   6.527  13.736  14.817  0.0448 -0.2004  0.1962
11668W        W27562  17.214   9.825  14.316 -0.1155 -0.1538  0.2074
11669W        W27563   1.888  10.350  10.771 -0.1236  0.1717  0.1862
11670W        W27564   6.230  12.259  10.624 -0.0905 -0.3351  0.3322
11671W        W27565  18.050  15.866  14.519  0.0306  0.0316 -0.1438
11672W        W27566   0.433   6.080  11.170 -0.0788 -0.3202 -0.0687
11673W        W27567   7.455   1.059  14.700  0.3544  0.0239  0.0874
11674W        W27568  13.861  16.485  10.165  0.1353 -0.0838  0.0205
11675W        W27569  15.207  15.316  11.899  0.0546 -0.1471  0.0109
11676W        W27570   1.815  17.076   2.919  0.0718 -0.0974  0.1105
11677W        W27571  11.991  18.685   4.637  0.0452  0.0701 -0.5031
11678W        W27572   5.292   5.214  10.835 -0.0287  0.4208  0.2572
11679W        W27573  18.099   1.297   4.126 -0.1297  0.2975  0.2864
11680W        W27574   3.884  13.164   3.127 -0.4683  0.0284 -0.0399
11681W        W27575   5.801  16.931  14.694  0.5251  0.0974  0.2357
11682W        W27576   8.643   4.556   4.280 -0.0942 -0.3123 -0.0051
11683W        W27577  18.681  12.397  14.326 -0.1547 -0.1601 -0.2729
11684W        W27578  17.012   9.436  12.624 -0.1521 -0.2139  0.1756
11685W        W27579   0.902   3.544  13.553  0.1044 -0.0873  0.1667
11686W        W27580   1.617  14.194   4.682 -0.1628 -0.1498 -0.3309
11687W        W27581  14.561  16.248  14.260 -0.0443  0.2274  0.1862
11688W        W27582   6.995  11.548   4.933 -0.1697 -0.1306 -0.4139
11689W        W27583   9.216   7.220   1.533  0.1776 -0.0408 -0.2484
11690W        W27584  14.049   7.190   0.357  0.1736 -0.1167  0.2891
11691W        W27585   2.884  15.320   5.523  0.2538  0.2010 -0.0115
11692W        W27586  18.266  16.671  11.239 -0.2759  0.0230  0.1119
11693W        W27587  16.397  11.192   4.768  0.2262  0.1584  0.3079
11694W        W27588   1.703   2.902   4.528  0.0594  0.0043 -0.1992
11695W        W27589  15.805  16.971  15.276 -0.3220  0.1200 -0.3335
11696W        W27590  10.943   4.450   1.034 -0.0089  0.2077 -0.0860
11697W        W27591   6.802   9.429   2.677 -0.0615 -0.5155  0.0039
11698W        W27592   5.051   9.396   0.514 -0.2004 -0.0476 -0.3457
11699W        W27593  17.563   6.560   3.726 -0.1102  0.1629  0.1595
11700W        W27594  17.029   7.229  12.757  0.1201  0.1693  0.1001
11701W        W27595  18.565   5.782  11.219  0.0587 -0.0231 -0.0398
11702W        W27596   9.497   3.864   2.090  0.3806 -0.1552  0.2752
11703W        W27597   7.616   5.873  12.889 -0.0066 -0.1049 -0.4409
11704W        W27598   3.772  13.793   0.541  0.0680  0.2340  0.1759
11705W        W27599  13.281  15.038   4.612 -0.2272  0.0975  0.3664
11706W        W27600   7.495   2.030   0.741  0.2982  0.2303  0.1121
11707W        W27601   5.488   1.844   5.525  0.2146 -0.0468 -0.0898
11708W        W27602  17.490  10.567  11.207  0.0519 -0.0424 -0.2347
11709W        W27603  12.556  14.793  13.639  0.0231  0.1749  0.0135
11710W        W27604  14.687  17.089   5.219  0.2529 -0.0162 -0.1963
11711W        W27605   1.006   0.912  15.289  0.0220 -0.1224  0.0659
11712W        W27606   7.822   9.538   3.143 -0.1055 -0.2272 -0.0232
11713W        W27607  15.897   5.614   2.525 -0.0492 -0.0114  0.1740
11714W        W27608   2.241   1.466  15.270  0.1740  0.1903 -0.3221
11715W        W27609   6.263   5.832   1.608  0.1379 -0.2665  0.0689
11716W        W27610   5.996  16.837  10.783 -0.0704 -0.2421 -0.1325
11717W        W27611  11.034  17.041   1.445  0.0915  0.1737  0.1226
11718W        W27612  11.954  18.605   3.218 -0.2045  0.2796  0.3463
11719W        W27613   4.156  10.547  15.204 -0.0066 -0.1107  0.3675
11720W        W27614  18.455  15.214   2.303 -0.1827  0.1554  0.2276
11721W        W27615  17.316  13.466  15.165  0.2545 -0.1189 -0.1318
11722W        W27616   2.073  10.164   3.105 -0.2002  0.2379 -0.2157
11723W        W27617  10.588   0.487   2.817  0.2895 -0.0343 -0.0878
11724W        W27618   5.246   4.628   5.184  0.1076 -0.3700 -0.2417
11725W        W27619   8.543  15.386  12.330 -0.0836 -0.2656 -0.2012
11726W        W27620   4.416  11.344   3.097 -0.0063 -0.2189  0.0221
11727W        W27621   0.553   2.163   2.396  0.2909  0.0495  0.0341
11728W        W27622   2.387  11.296  11.854 -0.0608 -0.0798 -0.0267
11729W        W27623  17.872   7.132   3.908 -0.1807  0.2061  0.0335
11730W        W27624   7.963   2.133   1.896  0.0224 -0.1648 -0.0699
11731W        W27625  12.781  11.805   0.325 -0.0432 -0.0918 -0.2437
11732W        W27626   0.692   1.276   3.034 -0.2009  0.0448 -0.0188
11733W        W27627   7.927   6.689   5.418  0.0384  0.3255  0.0643
11734W        W27628  15.771  14.837   2.858  0.0500 -0.0455  0.1114
11735W        W27629   3.134   4.676  15.075 -0.2087 -0.2488 -0.0107
11736W        W27630   1.538  14.971  13.063 -0.0278 -0.2126 -0.3309
11737W        W27631   3.778  18.513   5.328  0.0687 -0.1185  0.1298
11738W        W27632  11.534   8.058  15.571 -0.0989  0.1023  0.0228
11739W        W27633  14.334  16.934  11.350  0.2712 -0.2376 -0.1455
11740W        W27634  15.527   7.524   2.095  0.1832 -0.1704  0.3017
11741W        W27635  18.735   4.293  11.079 -0.2363 -0.0178 -0.0354
11742W        W27636   7.170   7.866   1.249 -0.2175  0.2506  0.0073
11743W        W27637   1.491  12.195  11.209  0.1192  0.1903 -0.3553
11744W        W27638   9.595   4.112   1.614  0.2570 -0.0644  0.3256
11745W        W27639   0.080   2.863   2.490 -0.1665  0.0144  0.2693
11746W        W27640   0.815  10.146   2.797 -0.2092  0.0624 -0.0819
11747W        W27641  18.720  14.176   4.288  0.0743  0.0678  0.0096
11748W        W27642   0.799  11.359  12.852 -0.1586 -0.0256  0.1845
11749W        W27643   0.761  13.204   0.367 -0.0367 -0.0514  0.0056
11750W        W27644   6.912  11.461  13.834  0.1343 -0.0625  0.0583
11751W        W27645   6.240   0.024  12.498  0.0323  0.4266 -0.3344
11752W        W27646  14.581  16.806  12.244  0.0105 -0.0934 -0.3258
11753W        W27647   0.395   6.894   4.653  0.0454  0.4406  0.2666
11754W        W27648  16.063  11.307  11.746  0.1417 -0.3446  0.0780
11755W        W27649  18.329  15.455   2.789 -0.0863 -0.2035  0.0455
11756W        W27650   5.205  17.260   3.749  0.1367 -0.1229  0.3918
11757W        W27651   8.636   5.807  12.913 -0.1011  0.0825  0.0143
11758W        W27652  16.072   9.940   4.689  0.0407  0.3246  0.0580
11759W        W27653   0.767  11.063   0.395 -0.2728  0.2273 -0.4588
11760W        W27654   8.425   5.451  12.577 -0.1862  0.2767 -0.3341
11761W        W27655   7.848  10.430   3.677 -0.4745  0.2168  0.0889
11762W        W27656   6.459   0.709   0.768 -0.1249 -0.1330 -0.0357
11763W        W27657   0.058   1.570  12.567 -0.0235 -0.1059  0.2795
11764W        W27658  16.375  18.241   3.976 -0.2791 -0.3800  0.1438
11765W        W27659  15.007   4.394  10.815  0.1839 -0.3388 -0.2744
11766W        W27660   5.292   1.712   3.260 -0.0634 -0.0006 -0.0508
11767W        W27661  10.467   4.589  11.620 -0.1241 -0.3083  0.2512
11768W        W27662  13.163   4.259   1.607  0.1871 -0.2540  0.3771
11769W        W27663   5.827   8.743   2.354 -0.2461  0.1202 -0.0758
11770W        W27664  15.469   2.879  11.794  0.1114 -0.2016 -0.0556
11771W        W27665   3.700   5.441   1.254  0.2508 -0.2906 -0.0213
11772W        W27666  16.427   8.627   2.002  0.1162  0.1894 -0.1289
11773W        W27667   9.934   7.053  10.488 -0.1727  0.0613 -0.1647
11774W        W27668  12.967  14.959  14.284  0.0344 -0.3164  0.0738
11775W        W27669  15.373  16.945  10.881 -0.2925 -0.2278  0.1409
11776W        W27670  11.829   4.398  12.219  0.1424 -0.1509  0.1812
11777W        W27671  15.425   4.706   2.584 -0.0366 -0.3548 -0.2064
11778W        W27672  16.173   6.394  15.546  0.2548  0.1821 -0.1297
11779W        W27673  14.736  15.988  11.459 -0.2230 -0.0503  0.0283
11780W        W27674   0.517  16.102   1.681 -0.0640 -0.0019 -0.1576
11781W        W27675  18.030  17.648  10.377  0.0094  0.1996  0.3520
11782W        W27676  15.853   1.827  12.704 -0.1323 -0.2168 -0.0641
11783W        W27677  15.095  12.768   0.900 -0.1673  0.0698 -0.0910
11784W        W27678  14.435   3.372  13.256  0.0585 -0.1011 -0.2396
11785W        W27679  17.451   6.857  13.131 -0.2805 -0.0703 -0.2031
11786W        W27680   4.360  15.781  14.098  0.2127 -0.0375 -0.2643
11787W        W27681   0.923  16.039  12.625  0.0301  0.1832 -0.1353
11788W        W27682   3.659   0.750  14.308  0.1850 -0.0648  0.1147
11789W        W27683   9.386   4.507   4.909  0.2777  0.1096 -0.1699
11790W        W27684   7.074  11.861  12.028  0.0679 -0.0685  0.0202
11791W        W27685   6.119   7.499  12.364  0.1570 -0.6296 -0.1946
11792W        W27686  10.161   8.591   1.087  0.1908 -0.0767  0.0761
11793W        W27687   3.344  16.698   2.043  0.0003  0.2805  0.0530
11794W        W27688  12.390  13.249   1.842 -0.1441  0.2711  0.2359
11795W        W27689  17.187  12.615   6.108 -0.2285  0.0394 -0.3760
11796W        W27690   5.912  18.456   2.217 -0.0255  0.0903 -0.0901
11797W        W27691   9.797   9.828   1.302 -0.1140 -0.1328  0.1417
11798W        W27692  18.753   1.778  15.385  0.0735  0.1654  0.0567
11799W        W27693   1.277  17.591  11.320 -0.2624  0.1067  0.0711
11800W        W27694   8.655   8.535  15.273  0.1972  0.3233 -0.1052
11801W        W27695  10.246  13.869   2.165  0.1534  0.0040 -0.1381
11802W        W27696   4.396  10.035   0.295 -0.0547  0.1664  0.0900
11803W        W27697   0.436  15.877   3.830  0.3412  0.1491  0.1143
11804W        W27698   5.712  12.105   3.337  0.0939 -0.0528  0.1521
11805W        W27699   5.520  16.675  10.888 -0.0223 -0.0242 -0.2265
11806W        W27700   1.287  12.806  13.856  0.0259 -0.0805  0.0839
11807W        W27701   3.249  18.062  13.979  0.4365 -0.2886  0.0109
11808W        W27702   8.806   4.517   3.073  0.4842  0.1631 -0.0500
11809W        W27703  18.036   2.544   0.229 -0.2241 -0.1911 -0.4081
11810W        W27704  18.143  11.360   3.160  0.1047 -0.0506 -0.1682
11811W        W27705  12.331  15.573   5.365  0.4641 -0.1829  0.0264
11812W        W27706   6.897   7.454   1.029  0.3062 -0.0887 -0.3555
11813W        W27707  15.395  13.927  14.828 -0.0050  0.2743  0.0414
11814W        W27708  12.441   1.942   5.287 -0.0275 -0.1934  0.0594
11815W        W27709  16.027   4.365   2.513  0.0038 -0.1801  0.0868
11816W        W27710   9.367  18.378   1.465  0.1002  0.1843 -0.3695
11817W        W27711  10.845   0.845   3.576  0.0880  0.0412  0.1587
11818W        W27712   5.592   4.362  10.980  0.0208  0.0967  0.3445
11819W        W27713   4.562   0.500   4.358 -0.0599  0.0916  0.0984
11820W        W27714   0.459   8.142  15.425 -0.0285 -0.2118  0.1779
11821W        W27715   5.115   7.719   0.776 -0.2476 -0.2386  0.3475
11822W        W27716   2.914  16.687   1.525  0.0792  0.0311 -0.1875
11823W        W27717  15.247   4.020   5.807  0.4721  0.0346 -0.2817
11824W        W27718   5.261   5.696   2.763 -0.2502  0.1390  0.0948
11825W        W27719   5.431  10.319   1.366  0.0490  0.0962 -0.0119
11826W        W27720   0.390  15.625   2.287 -0.2579  0.0888 -0.2071
11827W        W27721   6.723  13.164   9.540 -0.0670  0.2111  0.1734
11828W        W27722  12.484  14.000  12.556  0.0146 -0.0297 -0.1966
11829W        W27723   8.671  11.328  12.973 -0.2044  0.0104  0.0267
11830W        W27724  15.590   6.540   4.500 -0.2056 -0.0037  0.1071
11831W        W27725  13.565   2.230   4.973 -0.1594  0.1453  0.1972
11832W        W27726  16.559  12.463  10.843 -0.4606 -0.2356  0.0172
11833W        W27727  15.547   0.361   0.635 -0.1161 -0.0344  0.0717
11834W        W27728   8.826  16.304  13.162 -0.0527 -0.0168 -0.2939
11835W        W27729  13.244  12.867   4.968  0.2082  0.0021 -0.1094
11836W        W27730  12.415  15.339   4.924 -0.0500 -0.0686 -0.1477
11837W        W27731   3.635  11.144   0.286 -0.3656  0.2170 -0.0886
11838W        W27732   2.889   3.698   4.382 -0.3270  0.1942  0.1133
11839W        W27733   7.835   9.542  14.215 -0.2636  0.3435 -0.0551
11840W        W27734   9.611  11.781  11.469 -0.1445  0.0688 -0.3741
11841W        W27735   1.394   1.105  15.059 -0.0733  0.2955  0.1720
11842W        W27736  15.221  11.804  13.996 -0.0443 -0.1930 -0.2204
11843W        W27737   5.195   8.891   1.370 -0.1105 -0.0823  0.2667
11844W        W27738  16.615   1.840   2.510 -0.2626  0.1223  0.1533
11845W        W27739  10.174   9.951  11.245 -0.3768  0.0007 -0.1506
11846W        W27740  17.856   7.078  14.211 -0.2489  0.1919 -0.1019
11847W        W27741  17.621  15.646  14.970  0.1794  0.0804  0.0082
11848W        W27742   0.115  12.445  11.085 -0.2645  0.0666  0.2720
11849W        W27743  12.121  15.187  14.455  0.0469  0.0462  0.0778
11850W        W27744  13.506  17.564  15.181  0.4127  0.0487 -0.4378
11851W        W27745  15.438  16.941  12.803 -0.0244 -0.0010 -0.0855
11852W        W27746   6.192  11.778   4.046  0.0327 -0.0206  0.1581
11853W        W27747   4.527  18.453   3.122 -0.2791  0.1138  0.0531
11854W        W27748  14.265   6.038   1.039 -0.0232 -0.0480  0.2477
11855W        W27749   2.631   0.736   0.673 -0.1228  0.2197  0.0746
11856W        W27750  12.846   3.068  14.678 -0.1543 -0.1289  0.4549
11857W        W27751  15.718   7.879  10.883  0.1462 -0.1099  0.1857
11858W        W27752   0.059  16.246   3.145 -0.0849  0.0102 -0.0713
11859W        W27753  16.990   4.010  10.134 -0.0700  0.0849  0.1461
11860W        W27754   7.070   5.764   4.765 -0.1106  0.0947 -0.1466
11861W        W27755  14.506  14.483   1.633  0.1808 -0.1784  0.1152
11862W        W27756   0.318   3.687   2.463  0.2161  0.2157 -0.0108
11863W        W27757  17.605   5.993  15.403  0.2019  0.1480  0.0622
11864W        W27758  11.139  12.566   2.142  0.2412  0.0891  0.0468
11865W        W27759  17.129   2.432   2.053 -0.0027 -0.2437  0.2154
11866W        W27760  17.494   5.726  14.994 -0.0158 -0.0308  0.1112
11867W        W27761  12.412  13.438   0.573  0.2442 -0.0260 -0.0073
11868W        W27762   8.742   0.313  12.530  0.1368 -0.0525  0.2188
11869W        W27763  16.356  11.248  13.658 -0.1482 -0.0252 -0.2553
11870W        W27764  15.763  17.141   4.357 -0.1798 -0.0365 -0.2376
11871W        W27765   8.341   4.266  13.472 -0.2515  0.0049 -0.0866
11872W        W27766  16.488  17.255   5.060 -0.1781  0.0551 -0.3291
11873W        W27767  12.257  12.964   0.672  0.1193 -0.0371 -0.0717
11874W        W27768   8.133   7.675   3.573 -0.1105  0.0763  0.0807
11875W        W27769   0.625   3.567   0.361  0.1179 -0.0987 -0.0478
11876W        W27770  18.121  15.547   2.268  0.0093 -0.3026  0.0385
11877W        W27771  15.135   4.514  14.309  0.0839 -0.1061 -0.2087
11878W        W27772   4.359   7.067  12.153  0.1066  0.3030  0.1432
11879W        W27773  15.710  17.892  10.605 -0.0683 -0.3693  0.1594
11880W        W27774   8.618   9.881  15.584  0.0995 -0.1423  0.2650
11881W        W27775  18.255  11.479  15.620 -0.1098  0.0194 -0.3962
11882W        W27776  14.029   7.380   6.154 -0.2027 -0.1359  0.1107
11883W        W27777  13.663  14.340  12.500 -0.2390  0.0210 -0.4281
11884W        W27778   2.419  18.427   0.618  0.1812  0.0632  0.0704
11885W        W27779  15.212   2.161  11.593  0.2377 -0.3533 -0.0305
11886W        W27780   7.565   7.552  15.503 -0.1241  0.1826  0.3010
11887W        W27781   3.718  13.297  12.482 -0.0252 -0.2976 -0.5019
11888W        W27782   5.888   8.246  15.232  0.0773  0.1851  0.0317
11889W        W27783  16.798   1.560   0.540 -0.1423  0.2131 -0.2261
11890W        W27784   8.933  17.996   4.965  0.0562  0.0249  0.0792
11891W        W27785   1.670  12.477   2.711  0.0122  0.0665 -0.0363
11892W        W27786   9.689  12.073   3.657 -0.0221  0.2484 -0.2730
11893W        W27787  15.068   1.018   1.102 -0.0804  0.4328  0.1321
11894W        W27788   4.705   0.762  13.085  0.0124 -0.1910  0.2329
11895W        W27789   6.824   5.503   4.448  0.0664 -0.2097  0.0130
11896W        W27790  15.538  10.701   4.361  0.0316 -0.2211  0.3379
11897W        W27791   8.710   0.845  15.321  0.0677  0.1418 -0.0922
11898W        W27792   3.154   6.136  11.685 -0.0585 -0.2525  0.0387
11899W        W27793  12.609   6.733   0.303  0.1267  0.1122 -0.3926
11900W        W27794  13.733  16.752   2.652 -0.0065 -0.2851  0.1587
11901W        W27795   4.378   9.644   2.290 -0.2734  0.1172  0.0007
11902W        W27796  13.020  15.480  15.210  0.2061 -0.1730 -0.0396
11903W        W27797  13.755   3.937   2.795  0.2126 -0.1339  0.1726
11904W        W27798   6.584   5.920   0.305 -0.2037 -0.0641 -0.1519
11905W        W27799  12.976   9.682   0.987 -0.0806  0.1679  0.1102
11906W        W27800  12.292   1.307  15.403 -0.3516 -0.1538  0.2287
11907W        W27801  13.584   3.881   3.296  0.3027 -0.0656 -0.1091
11908W        W27802  10.301  18.150  14.449  0.1090 -0.0327 -0.2955
11909W        W27803   3.424   7.994   4.357 -0.2224 -0.1145  0.4664
11910W        W27804   5.178   5.289  11.327  0.4162  0.0206  0.2643
11911W        W27805  14.950   6.165   1.534 -0.1198 -0.0344  0.3674
11912W        W27806  16.358   8.318   3.570 -0.3485 -0.1927  0.1611
11913W        W27807  10.831   6.672  14.462 -0.3289 -0.2228  0.2383
11914W        W27808  12.487   4.366   3.811  0.1111 -0.1362  0.1952
11915W        W27809   5.898  13.346   3.246 -0.0082 -0.0201 -0.0286
11916W        W27810   7.849   5.432   3.647 -0.0426 -0.2269 -0.1949
11917W        W27811  10.820  12.169  11.034 -0.3768 -0.2315 -0.0574
11918W        W27812   3.944   4.680   2.934  0.2391  0.0978 -0.0266
11919W        W27813  13.165  18.624   1.543 -0.0082 -0.3185 -0.0046
11920W        W27814   0.263   8.300  12.397 -0.2383 -0.1836 -0.0624
11921W        W27815  14.174   5.693   5.777 -0.3191  0.0331 -0.1323
11922W        W27816  14.040   5.402   1.817  0.0673 -0.1496 -0.0933
11923W        W27817   6.864   6.281  13.371  0.1265  0.1092 -0.1756
11924W        W27818  17.317   9.283   4.049 -0.4418 -0.0605 -0.0264
11925W        W27819   6.332  15.203   4.542 -0.0245  0.0663 -0.2729
11926W        W27820   5.792  15.130  13.004  0.0551 -0.0960  0.0555
11927W        W27821  11.133   1.091   4.946 -0.2753 -0.1311 -0.0640
11928W        W27822   2.813   6.883  11.198  0.2118 -0.3036 -0.1070
11929W        W27823   3.734  12.170  14.936 -0.2094 -0.0428  0.2204
11930W        W27824  18.668   0.506   2.208  0.0678  0.0172  0.0727
11931W        W27825  18.135   7.690   1.018  0.1692 -0.0674 -0.0470
11932W        W27826   0.825  10.871   1.301 -0.1744 -0.0897  0.1759
11933W        W27827   3.972   2.233   2.655  0.0468  0.2059  0.1211
11934W        W27828  14.181  12.603  15.155 -0.0417 -0.0742  0.2179
11935W        W27829   4.155  15.428   1.824 -0.0015  0.1802 -0.2201
11936W        W27830   6.934  12.542  14.579  0.0082  0.0703 -0.0511
11937W        W27831  16.245  15.675  14.475 -0.1602  0.3224 -0.3515
11938W        W27832  10.706  15.762   3.665  0.0070 -0.2827 -0.0722
11939W        W27833   8.148   9.141   0.122  0.0521  0.0129  0.0384
11940W        W27834   8.190   1.468   2.576 -0.2007 -0.0542  0.0988
11941W        W27835   7.559  14.836   2.366 -0.3270  0.0882  0.0723
11942W        W27836   9.866   6.367   3.352  0.2811 -0.0711 -0.1226
11943W        W27837   4.984  13.911   4.560 -0.1568  0.4821 -0.1273
11944W        W27838   6.310   4.619  13.769  0.2534  0.2015 -0.0789
11945W        W27839   5.165  17.897   3.887 -0.3772 -0.0084  0.2716
11946W        W27840  10.759   5.399   5.563  0.0240 -0.0302  0.3262
11947W        W27841   2.615   5.586   2.064  0.3271 -0.0270  0.0182
11948W        W27842  12.772   7.331   4.666  0.1659 -0.0602 -0.0367
11949W        W27843  12.784   0.896  11.330  0.0007  0.1895  0.0399
11950W        W27844  17.671  18.550   5.251 -0.1586 -0.1985 -0.0908
11951W        W27845  16.259  11.479   2.014  0.1415 -0.1341  0.1573
11952W        W27846   9.610  16.038   1.809 -0.3098 -0.1135  0.2459
11953W        W27847   5.405   7.653   2.725 -0.2727 -0.1585 -0.3017
11954W        W27848   2.244   1.848  15.590  0.0551  0.0323  0.1147
11955W        W27849  15.091  11.598   0.171 -0.0781 -0.0479  0.1204
11956W        W27850  13.637   1.656  12.481 -0.1449 -0.1124  0.5809
11957W        W27851   8.828   8.912  10.721 -0.1872  0.0090  0.1268
11958W        W27852   5.229  13.923  13.221 -0.2972  0.3573  0.1306
11959W        W27853  11.062   7.761  15.226 -0.2918  0.1052  0.2475
11960W        W27854   4.682  17.476   3.200 -0.0453  0.1323  0.2088
11961W        W27855   5.184  17.200  10.536 -0.0973  0.1929 -0.2213
11962W        W27856   6.465  16.891  14.277  0.0864  0.1172  0.2615
11963W        W27857  15.456   8.191  13.789 -0.1984 -0.1070  0.2468
11964W        W27858   9.112  18.352   0.689  0.0647  0.1454  0.1097
11965W        W27859   9.367  18.609  15.171  0.0241 -0.0028 -0.0453
11966W        W27860   9.013   4.033   9.945 -0.1434  0.2016  0.0314
11967W        W27861   9.815   4.248   0.226  0.1023 -0.1449 -0.1469
11968W        W27862  13.662   9.774  11.361 -0.4157 -0.0273  0.2076
11969W        W27863   9.138  15.980  14.419 -0.0119 -0.0851  0.3491
11970W        W27864  15.118   0.094  12.522 -0.2080  0.2638 -0.0323
11971W        W27865  14.427   3.270   5.458 -0.0509 -0.0274 -0.0799
11972W        W27866  12.739  11.565  13.029 -0.0888  0.3735 -0.1468
11973W        W27867   9.898  14.095   1.430 -0.2817 -0.0603 -0.1216
11974W        W27868  15.531  18.442   2.912  0.2138 -0.1807  0.1433
11975W        W27869  12.302  13.757  12.160  0.1249  0.0490 -0.2633
11976W        W27870   7.514   0.763   4.175  0.2610 -0.0108  0.0829
11977W        W27871   7.962   6.163   4.193  0.1432  0.1732 -0.1700
11978W        W27872   0.561   5.104   4.238  0.1254  0.3437 -0.0715
11979W        W27873  13.500   3.986  12.289 -0.0384 -0.2808  0.0281
11980W        W27874  18.578  12.357  15.493  0.4457  0.1550 -0.1823
11981W        W27875   8.515   8.922   4.470  0.2765 -0.0140 -0.2901
11982W        W27876   7.251  12.571   4.692 -0.2055  0.0041 -0.0472
11983W        W27877   2.541  12.170  13.206 -0.0066  0.0352 -0.0228
11984W        W27878   2.217   1.044  14.642 -0.1309 -0.0264 -0.2940
11985W        W27879   4.570   7.639   5.004 -0.0395 -0.0188 -0.1188
11986W        W27880   9.680   8.904  14.069  0.1807  0.0243  0.0402
11987W        W27881   9.127  12.275   5.963 -0.0176 -0.3561  0.2353
11988W        W27882   1.459  11.254  13.920 -0.1703  0.1215  0.2003
11989W        W27883  12.198   8.768  13.268  0.0624 -0.1027 -0.1262
11990W        W27884   1.482  13.803   4.286  0.3241  0.1207  0.0099
11991W        W27885   0.922  10.401  12.370  0.4567  0.0684 -0.0480
11992W        W27886  12.496  15.184   2.793 -0.2445  0.1080 -0.3596
11993W        W27887   1.701  11.995   0.347  0.1241  0.1347 -0.2336
11994W        W27888   2.482   6.829  10.638 -0.3642 -0.1105 -0.0562
11995W        W27889   2.556   9.236  13.820 -0.0124  0.0003 -0.0848
11996W        W27890   0.396  17.487  11.692 -0.0122 -0.1651  0.1602
11997W        W27891   3.233   0.360  12.680 -0.0867  0.0322  0.2828
11998W        W27892   5.882  12.183   0.974  0.1077 -0.2783  0.2855
11999W        W27893   8.154   9.651   0.501 -0.2678 -0.0528 -0.1494
12000W        W27894  13.726   1.054   0.263  0.3343  0.2349 -0.1646
12001W        W27895   1.654  10.187   4.589 -0.1413  0.0734 -0.3094
12002W        W27896  10.613  17.701  14.587  0.1015  0.2549  0.0298
12003W        W27897  18.027   8.664   0.570 -0.1177  0.1464  0.2187
12004W        W27898  16.491  15.628   5.425  0.0648  0.2983 -0.3412
12005W        W27899  14.003  10.384   1.703 -0.2176  0.2260 -0.1363
12006W        W27900   0.354   0.207   2.974  0.0256 -0.0117  0.0547
12007W        W27901   2.397  13.887  11.001  0.3346  0.1310  0.3167
12008W        W27902   2.171   1.282  13.037  0.0021 -0.0469 -0.1779
12009W        W27903  16.969  18.256   1.915 -0.0010  0.1030  0.1913
12010W        W27904  14.008  12.805  11.135  0.1936  0.2441  0.2608
12011W        W27905  11.278  17.194   2.709  0.1669 -0.1794 -0.0197
12012W        W27906   6.790  12.390   4.821  0.1593  0.3819  0.1540
12013W        W27907  10.087   0.965  14.787  0.1834  0.0794  0.1848
12014W        W27908  11.843  18.439  14.240 -0.0522 -0.0909 -0.0526
12015W        W27909  10.249  18.136   4.327  0.0402 -0.1059 -0.3687
12016W        W27910  14.003   7.561   3.041 -0.1762  0.0089 -0.1530
12017W        W27911  17.182  15.691   1.728 -0.1520 -0.0150 -0.1161
12018W        W27912  14.865  11.718   6.724  0.0854 -0.0661  0.2616
12019W        W27913   5.013   8.175  11.885  0.0327  0.0410 -0.2903
12020W        W27914   1.807  10.108   5.166  0.1852 -0.2380  0.0788
12021W        W27915  10.451  11.381   1.541 -0.0764  0.0816 -0.1107
12022W        W27916   4.447  15.070  14.916 -0.1803 -0.0866 -0.0214
12023W        W27917   0.379  13.665   0.569  0.1521 -0.2338 -0.0745
12024W        W27918  15.404  13.407   0.828 -0.1012 -0.2888  0.1491
12025W        W27919  15.391   4.096  14.120  0.0993 -0.1883  0.1003
12026W        W27920  18.068   7.840   5.953  0.1003  0.0638 -0.3755
12027W        W27921  16.803   3.387   3.948 -0.1580 -0.1710 -0.0579
12028W        W27922   5.125   0.211  10.861 -0.2380 -0.0927 -0.0847
12029W        W27923   1.172  16.629  11.964 -0.3348 -0.0690  0.2192
12030W        W27924   9.686  14.650   3.764 -0.4484  0.0424  0.1128
12031W        W27925  18.304   5.338  14.027  0.1468 -0.4928  0.0738
12032W        W27926  11.849  12.016  14.623  0.0509 -0.1520 -0.0286
12033W        W27927  18.760  10.075  15.431 -0.0387 -0.2890  0.1534
12034W        W27928   9.360  13.067  13.972 -0.1819 -0.1154 -0.1444
12035W        W27929  16.743   2.532   0.925  0.1699  0.0556  0.0993
12036W        W27930  16.728   2.843   2.448  0.0720 -0.0288 -0.1830
12037W        W27931  17.646   3.546  12.198 -0.1075  0.0082  0.0459
12038W        W27932  11.895  13.695   1.724 -0.0990 -0.1715  0.2711
12039W        W27933  18.600   3.206   2.151  0.1789  0.2296  0.1009
12040W        W27934   2.845  10.654   0.070 -0.2713 -0.4246  0.4920
12041W        W27935   5.205  13.922   3.340  0.2132 -0.2826  0.0049
12042W        W27936  13.901   1.210   2.385 -0.0837  0.0486 -0.3134
12043W        W27937   9.003   7.768  11.401 -0.1257  0.1377 -0.3551
12044W        W27938   3.283   4.554  13.740 -0.2456 -0.1702 -0.1882
12045W        W27939   0.448   1.329  14.677  0.0252  0.1639 -0.2344
12046W        W27940   3.984  15.112  13.775  0.1100  0.0277  0.0243
12047W        W27941   4.433  13.631  11.455  0.0104  0.3392  0.2367
12048W        W27942  17.457   8.291   4.159 -0.1296 -0.0593 -0.1637
12049W        W27943  13.386  13.597   3.309 -0.1736 -0.1215  0.1107
12050W        W27944   1.050  17.039  11.657  0.2272  0.2445 -0.1091
12051W        W27945  18.540  12.907   2.709 -0.0255 -0.0365  0.1548
12052W        W27946  11.399  13.363  12.392  0.2574 -0.1678 -0.1430
12053W        W27947  12.632  15.730  11.592 -0.1283 -0.1157 -0.0568
12054W        W27948   9.387   2.219   0.067  0.0249 -0.0121 -0.2128
12055W        W27949   8.279  16.784  11.617  0.2941  0.0420 -0.2159
12056W        W27950   3.723  14.992   5.063  0.0403  0.1672 -0.0967
12057W        W27951   4.821  13.267  11.643  0.0442 -0.0237 -0.1703
12058W        W27952   2.440   8.640  13.873  0.2605  0.0019  0.4318
12059W        W27953  10.452  12.981  11.557 -0.2028  0.2230  0.1636
12060W        W27954   1.230   1.489   2.331  0.2007 -0.0752 -0.0269
12061W        W27955  14.825  10.988  11.518  0.4117  0.1123 -0.2785
12062W        W27956   0.399   0.928   0.811  0.1220 -0.2691 -0.2391
12063W        W27957   0.104  17.026   0.898 -0.2066  0.0326 -0.2723
12064W        W27958   3.738  14.037  12.310 -0.0382 -0.2243 -0.1513
12065W        W27959   6.656   2.009   2.719 -0.3120 -0.0179 -0.0691
12066W        W27960   1.627  12.105   3.561 -0.0246  0.0127 -0.0114
12067W        W27961   0.455  15.262  15.195 -0.2986 -0.0342  0.3434
12068W        W27962   0.138   9.544  12.883 -0.2731 -0.0892  0.0299
12069W        W27963   0.618   8.162   0.480 -0.0013  0.1194  0.3264
12070W        W27964  15.177  16.957   2.715 -0.0850  0.1791  0.1007
12071W        W27965  10.085  16.041  10.855  0.0049 -0.0749  0.0387
12072W        W27966  17.348  14.578  11.818 -0.2176 -0.1104 -0.1644
12073W        W27967   0.247   7.563   5.406 -0.0045  0.2025 -0.2983
12074W        W27968  18.237  12.979   4.607  0.1547  0.0142 -0.1013
12075W        W27969   5.778  15.016  13.500  0.1412  0.0803  0.4360
12076W        W27970   7.453  16.263  10.761 -0.0496  0.0732  0.0961
12077W        W27971   8.468  15.655   0.529 -0.2443 -0.1910 -0.0847
12078W        W27972  10.623   7.888  11.138  0.0792  0.0506  0.1193
12079W        W27973  11.443   5.867  11.094 -0.0745  0.2557  0.2731
12080W        W27974   5.730  10.501  10.491  0.3374  0.2489  0.1389
12081W        W27975   6.572   0.475   1.728  0.0733  0.0513 -0.1335
12082W        W27976   0.665   5.973   1.890  0.0954 -0.0714 -0.4836
12083W        W27977   1.943  14.371   0.858  0.1869  0.2353 -0.1150
12084W        W27978  13.296   2.721  11.654  0.1773 -0.1874  0.0081
12085W        W27979   2.337   0.441   5.234 -0.0582  0.1793  0.1090
12086W        W27980  16.690   9.299  14.098 -0.2780 -0.0274  0.1036
12087W        W27981  12.154  11.755  11.028  0.2166 -0.0883  0.0175
12088W        W27982   0.556   3.709  13.174 -0.0502  0.2601 -0.1975
12089W        W27983   1.433   6.163  15.343 -0.1168 -0.0246  0.0114
12090W        W27984  15.623   8.774  11.298  0.4147  0.4225  0.0819
12091W        W27985  18.727  10.829  12.401  0.0098  0.1655  0.2289
12092W        W27986   6.358  17.578   1.222  0.2322  0.0988  0.2363
12093W        W27987  13.880   1.369   4.450  0.1792 -0.1980  0.0109
12094W        W27988  10.252   8.060   0.807  0.1199 -0.0082 -0.1824
12095W        W27989   8.663   8.803   5.033  0.0239  0.0522 -0.1061
12096W        W27990  18.748   2.820   1.834 -0.2746 -0.0104 -0.0505
12097W        W27991   1.586  13.079   5.014 -0.1803 -0.0706  0.1041
12098W        W27992  17.877   1.666   4.400  0.0707 -0.4550 -0.3136
12099W        W27993   6.066   3.249   2.313  0.1929  0.1028  0.0757
12100W        W27994   4.007   2.233   1.741 -0.2564  0.2290 -0.0680
12101W        W27995  15.257  12.837   3.329 -0.4327 -0.0393 -0.2635
12102W        W27996  14.014   7.117   2.854  0.0159  0.0100  0.1295
12103W        W27997  14.046   2.084  11.887  0.0100  0.2141  0.0482
12104W        W27998   1.380   1.582  14.767  0.3169 -0.1701 -0.0097
12105W        W27999  12.481  14.538   0.841 -0.0409 -0.2057 -0.0962
12106W        W28000   1.511   3.001  12.191  0.1824 -0.0303 -0.2600
12107W        W28001  10.809   2.920  14.230  0.1852 -0.1644 -0.1349
12108W        W28002  14.024   1.764   0.969  0.3299  0.3829 -0.0982
12109W        W28003   0.148   7.582   4.691  0.0512  0.0035  0.2148
12110W        W28004  15.753   1.959   4.468 -0.3306  0.0582  0.0443
12111W        W28005  15.268   1.981   4.368 -0.0149 -0.0064  0.0458
12112W        W28006  10.411   8.322  14.254  0.0355  0.2809 -0.2286
12113W        W28007   6.396  12.261   3.331 -0.1142 -0.1106 -0.0122
12114W        W28008  16.737  13.337   2.608  0.2248  0.0565  0.1710
12115W        W28009  17.409  13.594   2.448 -0.2168 -0.1739  0.1160
12116W        W28010   5.451  18.058   4.334  0.1044 -0.1794  0.2295
12117W        W28011  12.590  16.307   4.574 -0.3567 -0.1576 -0.2355
12118W        W28012  14.426   4.764  13.568 -0.1128 -0.1533  0.1575
12119W        W28013   5.937  14.054   4.426  0.0824 -0.0308  0.0090
12120W        W28014  13.850   8.916  11.304  0.1091  0.3366  0.0286
12121W        W28015  11.786  17.066   2.646  0.0629 -0.0544  0.0156
12122W        W28016   0.148  15.125   4.462  0.3009 -0.0674  0.0222
12123W        W28017   0.066  11.548  14.728 -0.0153  0.0477  0.0190
12124W        W28018   7.623   2.420   0.449 -0.1221 -0.0118 -0.2321
12125W        W28019   2.056   5.575   4.416  0.0097  0.4313  0.1841
12126W        W28020   7.257   3.899  14.957  0.1176  0.3606 -0.2586
12127W        W28021  11.513   5.170   1.180  0.0592 -0.0290 -0.0275
12128W        W28022   1.496  10.784   1.018  0.0893 -0.0226  0.1544
12129W        W28023  10.804  17.545  11.916  0.2632  0.1253 -0.0231
12130W        W28024   6.577   6.835   0.330 -0.2164  0.1200  0.2110
12131W        W28025  11.206   0.456   1.936 -0.2108 -0.1115  0.1125
12132W        W28026   6.265  13.959  13.755  0.0780 -0.0044  0.0230
12133W        W28027  15.729   3.916   2.404  0.1221  0.1848  0.2809
12134W        W28028  13.977  16.445  12.341 -0.0300 -0.1743  0.0647
12135W        W28029   2.828  13.300   4.362 -0.0102  0.1359 -0.1932
12136W        W28030  12.923   0.110  10.884  0.0376  0.0698 -0.0722
12137W        W28031  12.546  11.439   5.110  0.0149 -0.1130  0.2008
12138W        W28032  14.437  17.388  14.621 -0.1373 -0.1019 -0.1069
12139W        W28033  13.165  17.665   2.379 -0.0323  0.1582  0.1796
12140W        W28034  14.444   0.728   2.764 -0.0932  0.1138  0.0267
12141W        W28035  15.094  12.701   5.922 -0.0523  0.3234 -0.0183
12142W        W28036   4.983   9.728  15.014 -0.1109  0.2068 -0.1296
12143W        W28037  16.243  17.478   0.961  0.0340  0.0344  0.0351
12144W        W28038  10.993   1.076   0.134  0.0198 -0.0979 -0.1612
12145W        W28039  15.981   0.583   3.777  0.2860 -0.0240  0.2923
12146W        W28040   0.495  17.994   2.700 -0.0410 -0.0723  0.0898
12147W        W28041   1.592  15.043   3.812  0.0406 -0.3017  0.2102
12148W        W28042   3.506   3.509   1.361 -0.0770 -0.1502 -0.3402
12149W        W28043   9.111  17.385   4.639  0.0503  0.0680 -0.0199
12150W        W28044  18.490  10.742  10.184 -0.3416 -0.2768 -0.0915
12151W        W28045  13.365   8.336   1.172  0.2713  0.4034 -0.2165
12152W        W28046  11.571   6.121   0.801 -0.5396  0.0720 -0.0353
12153W        W28047  12.033   1.471   0.593 -0.1587 -0.2524 -0.0576
12154W        W28048   3.212   2.316   3.549 -0.2214 -0.1335 -0.3340
12155W        W28049   2.983   0.594  13.425  0.1487 -0.1079  0.0529
12156W        W28050   1.789  18.078   5.483  0.2319 -0.0855  0.1896
12157W        W28051   0.830  13.840  14.738 -0.1659  0.0782  0.0581
12158W        W28052   8.559   7.316  15.479 -0.0217  0.1522 -0.0636
12159W        W28053   9.566   0.586   0.056  0.3803 -0.1714 -0.3318
12160W        W28054   1.691  12.330  10.237 -0.1513  0.0045  0.0014
12161W        W28055  13.854  18.349  11.898 -0.1002  0.1921  0.1448
12162W        W28056   7.260  12.188  14.929 -0.0913  0.2117  0.0679
12163W        W28057   9.897  15.335   0.163 -0.0429 -0.0027 -0.0057
12164W        W28058   6.069  17.363   1.972 -0.0593 -0.1085  0.0240
12165W        W28059   1.712   4.196  14.749  0.0795  0.1279 -0.0637
12166W        W28060  14.906   5.844   1.932  0.2909  0.1388  0.1086
12167W        W28061  16.925  14.143  15.457  0.0621 -0.3409  0.2523
12168W        W28062   1.511  17.173   3.329  0.0766  0.0379 -0.0536
12169W        W28063  13.451  17.982  11.760  0.0822 -0.0852 -0.0585
12170W        W28064   7.817   4.218  13.406  0.2546 -0.2170  0.3412
12171W        W28065  18.268  18.275   6.050 -0.0305 -0.1949 -0.0673
12172W        W28066   6.385  18.579   0.345  0.5349  0.0223 -0.2173
12173W        W28067   1.763  17.867  11.342  0.1272  0.1808 -0.3882
12174W        W28068  15.079   8.704   1.719 -0.0425 -0.0636 -0.2532
12175W        W28069  10.821  11.098   0.648  0.1375 -0.0073 -0.3555
12176W        W28070  12.623   1.798   2.025  0.2049  0.0476 -0.0760
12177W        W28071   1.451   4.787  10.604 -0.0086 -0.0540  0.1178
12178W        W28072  15.965   5.092  12.804  0.0425 -0.1604  0.1602
12179W        W28073  13.530  10.300  14.548  0.0220 -0.1102  0.2806
12180W        W28074   7.435  17.438  11.820  0.0460 -0.0943 -0.3050
12181W        W28075  18.660   9.082  13.103  0.0197 -0.2803 -0.1054
12182W        W28076   0.563   1.916  12.553  0.2421 -0.3871  0.0306
12183W        W28077  10.308  12.998  11.089  0.2496 -0.2536 -0.0111
12184W        W28078  12.671  16.862  12.570  0.2354  0.2949 -0.3110
12185W        W28079   8.298   5.469   2.695 -0.1270 -0.2930 -0.0970
12186W        W28080  11.886  16.851   3.309  0.0064 -0.0033 -0.1391
12187W        W28081  11.898   4.880   1.035  0.0288 -0.2790  0.2080
12188W        W28082  14.738   8.046  10.308  0.0403 -0.1586 -0.1439
12189W        W28083  13.532   3.486   2.973  0.2027 -0.3994 -0.3801
12190W        W28084   5.534   4.182  15.016 -0.4828  0.0994  0.1947
12191W        W28085  13.044  13.090  14.775  0.0661 -0.0608  0.0605
12192W        W28086   0.615  13.115   5.216  0.0618 -0.0084  0.0440
12193W        W28087   0.627   1.047  13.856 -0.1405 -0.0609  0.1677
12194W        W28088   8.514  10.120   4.123  0.3088  0.2119  0.1695
12195W        W28089   3.849  14.292   4.457  0.1932 -0.1399 -0.0548
12196W        W28090  14.085  15.222   4.259 -0.0769 -0.1925  0.2184
12197W        W28091   5.289   4.741  10.692  0.0048 -0.0085  0.0755
12198W        W28092   1.342   3.651   1.519  0.1019  0.0651  0.2278
12199W        W28093   8.114   2.936  13.380 -0.0269  0.2331 -0.0219
12200W        W28094   7.419  14.716   1.347  0.0453 -0.1657 -0.0338
12201W        W28095  15.074  10.037  13.725 -0.0739 -0.0107  0.2329
12202W        W28096   8.865   3.099  14.024 -0.0368 -0.0052 -0.0847
12203W        W28097  10.243   2.455  11.054 -0.3048  0.0425  0.1413
12204W        W28098  12.570   4.613   4.501  0.2106 -0.0889 -0.2659
12205W        W28099   7.853  12.119  13.735 -0.2316 -0.0288  0.3580
12206W        W28100  14.908   0.286  15.126 -0.1786 -0.0061  0.0110
12207W        W28101   5.680  11.314  14.458 -0.1919 -0.0247  0.0114
12208W        W28102  18.211   6.818  12.719 -0.4530  0.1667 -0.0799
12209W        W28103  10.974   2.153   2.989  0.2869 -0.2000  0.1896
12210W        W28104  16.144   0.124  14.978  0.1009 -0.1335 -0.1251
12211W        W28105  17.888   3.880   0.157  0.0301 -0.2021 -0.5298
12212W        W28106   6.980  15.597   3.803  0.0341  0.1776 -0.2773
12213W        W28107   6.630   4.546  12.841  0.1511 -0.1930 -0.3139
12214W        W28108  16.822   6.420   4.927 -0.0180  0.2221  0.2701
12215W        W28109   9.189  13.647   2.236 -0.2334  0.2618  0.1191
12216W        W28110   4.394  15.227  13.503 -0.1367  0.3188 -0.0390
12217W        W28111  17.748  13.782   3.287  0.0123 -0.1054 -0.0095
12218W        W28112  17.647   7.276   4.323  0.0620 -0.0895  0.2910
12219W        W28113  11.960  10.634  15.144 -0.0870  0.0377 -0.0906
12220W        W28114  15.334   7.602  13.141 -0.0350 -0.0861  0.3365
12221W        W28115  14.483   0.779  13.060  0.0766  0.0035  0.1033
12222W        W28116   1.609   4.047  13.203  0.3805 -0.0984 -0.1982
12223W        W28117  17.640  18.665   0.391 -0.1393  0.2453  0.0309
12224W        W28118   6.857  17.657  11.593 -0.0460  0.2257 -0.0985
12225W        W28119   1.526  14.981   0.241 -0.2999  0.2400 -0.1977
12226W        W28120   8.661   4.075  15.564 -0.2422  0.1568 -0.1216
12227W        W28121   4.917   0.553  15.163 -0.2631 -0.0181  0.0576
12228W        W28122  18.017  11.841  14.303  0.0666  0.0104  0.2421
12229W        W28123   5.760   1.604   3.346 -0.0731  0.0879 -0.1155
12230W        W28124  17.429   3.566  14.306 -0.1313 -0.1811 -0.1569
12231W        W28125   7.203  11.488  13.346  0.0751 -0.1336  0.2288
12232W        W28126   2.299  12.389  15.602 -0.2035  0.1147 -0.1680
12233W        W28127  12.998   8.936  13.874  0.2961  0.0402 -0.0946
12234W        W28128  11.588   5.725  12.859 -0.0499 -0.1521 -0.0783
12235W        W28129   1.449   2.465   2.267  0.0725  0.3134 -0.0013
12236W        W28130   8.503   8.464   2.426 -0.1112  0.0305  0.3307
12237W        W28131   8.093   3.917  12.672 -0.2317  0.1670  0.0952
12238W        W28132   8.824  17.327  14.654 -0.0819 -0.1605 -0.0295
12239W        W28133  10.346   9.406   0.572  0.0364 -0.1063  0.3170
12240W        W28134  13.174  15.327   5.410  0.3005  0.1910 -0.1897
12241W        W28135   9.579  14.730   1.467 -0.0369  0.7533 -0.1581
12242W        W28136  18.374  15.932  14.118  0.1719  0.0164  0.1383
12243W        W28137  18.459  17.153   0.632  0.0330 -0.0784 -0.0836
12244W        W28138   8.950   8.083  11.912 -0.1966  0.1117  0.0945
12245W        W28139   3.028   9.315  15.089  0.0846 -0.2258  0.0657
12246W        W28140   9.210  13.729  13.155 -0.0752 -0.2628  0.0845
12247W        W28141   7.341   5.163   4.494  0.4194  0.0373 -0.0214
12248W        W28142   4.325  10.567  11.205  0.2712 -0.1200  0.1139
12249W        W28143  15.874  16.068  13.177  0.1404 -0.1452  0.0920
12250W        W28144  16.604  14.793   3.774  0.0623  0.0896 -0.1018
12251W        W28145  13.178  17.414   1.558  0.0565  0.0040 -0.1185
12252W        W28146   0.079   6.826  11.686  0.3827 -0.2898  0.0438
12253W        W28147  15.130   5.879   0.107 -0.1631 -0.1914  0.1668
12254W        W28148  16.112  16.523  11.471  0.2474 -0.1133  0.3538
12255W        W28149  14.432   9.128   5.231 -0.2352 -0.0015  0.2239
12256W        W28150  12.851  11.201   4.794 -0.1181  0.0578  0.3866
12257W        W28151   4.051  10.143   0.701 -0.3520 -0.1542 -0.0477
12258W        W28152  16.778  11.611   2.018  0.1115 -0.0731 -0.0940
12259W        W28153  13.077   6.288   4.046 -0.2085  0.2313  0.2361
12260W        W28154  13.273   8.182  12.289  0.0660  0.0130  0.0891
12261W        W28155   7.336   2.978  15.013  0.0819  0.0792  0.2561
12262W        W28156   3.370   1.453  12.351  0.0920  0.2065 -0.1005
12263W        W28157   6.580   9.965  11.900 -0.2208  0.1924 -0.0659
12264W        W28158  17.667  13.260   2.228  0.0550 -0.0413  0.0923
12265W        W28159   5.456   3.179  13.062  0.1711 -0.0145  0.1617
12266W        W28160   2.958  17.189   3.722 -0.3479 -0.1692  0.3178
12267W        W28161  13.209   5.115   3.808 -0.0992 -0.0061 -0.0601
12268W        W28162   3.417   3.980  13.340  0.3541 -0.2535  0.1732
12269W        W28163   6.091  12.940  12.307  0.2196  0.2302  0.1000
12270W        W28164   5.366   8.107   4.603 -0.1109  0.1583 -0.1086
12271W        W28165  15.960  15.784   2.317 -0.0437  0.0782 -0.3788
12272W        W28166   1.626  14.512   3.885  0.1400  0.0337 -0.1531
12273W        W28167   4.927   8.591   5.166 -0.1051 -0.0893  0.2142
12274W        W28168   9.892  10.032  12.199  0.0669 -0.0063 -0.2141
12275W        W28169  11.022  18.434  14.892  0.0621 -0.4145 -0.4893
12276W        W28170  12.353  17.169   2.874  0.2341  0.1665  0.0198
12277W        W28171   2.210   8.934  14.679 -0.4541 -0.0111 -0.3486
12278W        W28172  13.361  15.586  14.824 -0.0591  0.1306 -0.1316
12279W        W28173  17.021   1.237   5.831  0.5011 -0.1904 -0.2675
12280W        W28174  15.766   9.554   2.736 -0.2308  0.1671 -0.1225
12281W        W28175   8.300  18.749   1.753  0.4443  0.2530 -0.2218
12282W        W28176   3.252  17.395  11.826 -0.1597 -0.0337  0.2161
12283W        W28177   5.526   3.979   4.515  0.0816  0.0609 -0.0705
12284W        W28178   8.348   7.046   0.274 -0.1321 -0.1758 -0.1999
12285W        W28179   3.674  12.201   0.097  0.1546  0.1833  0.1245
12286W        W28180   0.292  18.123   0.635  0.1162 -0.4348  0.1153
12287W        W28181   5.914   7.673  12.862 -0.1122 -0.1031  0.1940
12288W        W28182   2.266   8.303   4.803 -0.1360  0.1482  0.3201
12289W        W28183   9.001  15.009  14.853 -0.1199 -0.2575  0.0083
12290W        W28184   3.176   9.803   4.030 -0.0686  0.0931 -0.0344
12291W        W28185  15.230  17.255  13.856 -0.1528 -0.1823 -0.0869
12292W        W28186   7.570  17.567   3.690 -0.2164  0.0985  0.1723
12293W        W28187   7.362   7.301  11.127 -0.0832 -0.2286  0.2298
12294W        W28188   1.500  17.274   0.686 -0.1092  0.2408  0.1972
12295W        W28189  14.338   4.528  14.637  0.2063  0.0125  0.1475
12296W        W28190   5.674  16.163   0.897 -0.1400  0.2047 -0.0556
12297W        W28191  17.637  17.669  14.455 -0.0095  0.4682 -0.1398
12298W        W28192   0.832  17.504   2.362 -0.0056 -0.0171 -0.2631
12299W        W28193   8.752   0.524  13.434  0.1412 -0.1670 -0.0009
12300W        W28194  12.562  13.996   3.804 -0.1118 -0.1070  0.2693
12301W        W28195   5.363  16.486   2.345  0.0904 -0.0175 -0.2242
12302W        W28196  16.273  16.961  11.200  0.2288 -0.0833  0.0267
12303W        W28197   8.329  16.827   2.488  0.4322  0.0555  0.1484
12304W        W28198   8.006  15.923  11.670 -0.0291  0.0677 -0.1428
12305W        W28199   8.316  12.594  12.580 -0.1842  0.2079 -0.2396
12306W        W28200   1.853   1.221  14.927  0.0270 -0.1458 -0.3169
12307W        W28201   5.725  18.132   2.546 -0.0168 -0.0678 -0.0805
12308W        W28202   8.128   6.519  14.555  0.2435 -0.3978  0.1763
12309W        W28203   0.321  17.507   4.945  0.1833 -0.1607 -0.4131
12310W        W28204  11.687  13.640   3.817  0.1904  0.2601 -0.0424
12311W        W28205   5.631  15.654  14.077  0.2617  0.2713  0.0468
12312W        W28206  10.991   3.711   5.110  0.0130  0.1645  0.2130
12313W        W28207  14.452  18.704   3.678  0.2528  0.2152  0.1190
12314W        W28208   8.929   7.527   1.846 -0.2819 -0.2369  0.1358
12315W        W28209  10.303   9.588  13.887 -0.0537  0.3655 -0.0605
12316W        W28210   8.666  18.081   4.079 -0.1052 -0.0141  0.1413
12317W        W28211   4.636  12.893  13.284  0.0367  0.0591  0.3484
12318W        W28212   3.681  12.700   1.903  0.0885  0.1152  0.1839
12319W        W28213   4.124  18.074  15.104  0.5811 -0.0117  0.2322
12320W        W28214  12.143   4.397  11.586  0.1728  0.0005  0.2749
12321W        W28215   6.702   3.495   4.240 -0.0150 -0.1409 -0.1039
12322W        W28216  10.649   8.064  12.769 -0.2218 -0.3226  0.0062
12323W        W28217  10.293  11.685  13.092  0.0680 -0.0459 -0.0369
12324W        W28218  13.716   6.284  11.000 -0.3024 -0.0312 -0.0418
12325W        W28219   8.043   5.954  10.043  0.0009 -0.1197 -0.1297
12326W        W28220  14.597   1.668  11.896 -0.2241 -0.0742 -0.0571
12327W        W28221  18.439   8.174  11.233 -0.0530 -0.1175 -0.0477
12328W        W28222  13.659  10.796   3.728  0.2388 -0.0089 -0.2041
12329W        W28223  11.056   8.257  12.364  0.1425 -0.1037  0.1309
12330W        W28224  11.550   3.959   0.508 -0.1283  0.0740  0.0617
12331W        W28225   8.464  12.008   1.225  0.1030 -0.2324 -0.0936
12332W        W28226   3.758   9.501  13.305 -0.3015 -0.1076  0.6737
12333W        W28227  14.376   3.870   3.164 -0.0585 -0.2373 -0.0492
12334W        W28228   6.118  10.323   3.113 -0.1410  0.3546 -0.1640
12335W        W28229  16.911  16.826   0.551 -0.2654  0.2117  0.0807
12336W        W28230  17.778  13.201  14.878  0.2266 -0.0654 -0.0610
12337W        W28231  16.345  17.037   2.175  0.2430 -0.0103 -0.1914
12338W        W28232  12.667   1.700  10.667 -0.0834  0.2927 -0.0874
12339W        W28233  14.699   6.801  12.910  0.1081 -0.2530 -0.3795
12340W        W28234   8.341   1.689   0.709 -0.0816 -0.1102  0.1451
12341W        W28235   3.416   2.307   0.254  0.2296  0.1565  0.0149
12342W        W28236   6.523  17.980   1.462  0.2266 -0.1187  0.0097
12343W        W28237   3.700   8.115   1.740 -0.0997 -0.0594  0.5203
12344W        W28238   5.033  13.879   2.343  0.0923  0.2137 -0.0463
12345W        W28239   3.177   3.905  11.747 -0.0047  0.0329 -0.1743
12346W        W28240   2.667   0.278   4.607  0.1533  0.1989 -0.2678
12347W        W28241   3.263   5.010   0.244  0.1035 -0.0030  0.3238
12348W        W28242   1.045   9.581  12.958 -0.1635  0.0928  0.1891
12349W        W28243  17.213   2.411   1.113  0.1417 -0.0982 -0.0026
12350W        W28244  15.268  17.602  13.425 -0.1456 -0.0212  0.1732
12351W        W28245  17.591  11.872   4.825  0.1295  0.0118 -0.0392
12352W        W28246  17.059   1.151  15.417 -0.1127  0.1994  0.3024
12353W        W28247   6.626   8.391  11.373  0.1057  0.1736  0.3770
12354W        W28248   0.689   3.015  13.572  0.1638 -0.0986 -0.1211
12355W        W28249   3.615   5.797  12.444  0.2558  0.0502 -0.0329
12356W        W28250  17.925  15.909   3.255 -0.0295  0.2145  0.2268
12357W        W28251  18.297   1.333  11.337 -0.3471  0.0095 -0.1542
12358W        W28252   0.227  11.546   3.376  0.0442 -0.0799  0.0796
12359W        W28253   2.672   0.611  15.282  0.0028 -0.0873 -0.1075
12360W        W28254  17.895   7.551   1.994  0.0247 -0.0275 -0.0033
12361W        W28255   6.874   7.231   3.862 -0.4038  0.1642  0.1487
12362W        W28256   5.444   7.571  14.961 -0.0245 -0.0040 -0.0064
12363W        W28257   0.595   7.435  12.644 -0.0527 -0.0905  0.3341
12364W        W28258  13.590   3.091  11.903 -0.0941 -0.0823 -0.1107
12365W        W28259   6.340   2.882   3.546 -0.1732 -0.0444  0.1291
12366W        W28260   3.529  15.984   1.416 -0.1572  0.0726 -0.1562
12367W        W28261  12.513   9.787   3.562 -0.3340 -0.2678 -0.3746
12368W        W28262   0.791  16.268   5.253  0.0241  0.0891  0.2483
12369W        W28263  11.874   1.259  11.779  0.0902 -0.0450 -0.1674
12370W        W28264  12.806  12.901   5.237 -0.0822  0.2108 -0.1406
12371W        W28265  14.889   5.944  14.904 -0.1968 -0.0886 -0.1425
12372W        W28266   2.160   0.350  12.650 -0.1534  0.1610 -0.2697
12373W        W28267  17.374   4.243  11.031  0.0396  0.0603  0.0879
12374W        W28268  18.763   5.946  13.558  0.1257 -0.0342  0.1454
12375W        W28269   0.410  12.159   2.923 -0.2089  0.0675 -0.1044
12376W        W28270  16.498  15.875  13.576  0.1393  0.0063 -0.0434
12377W        W28271  13.975  16.098  10.800 -0.0793  0.0126  0.3819
12378W        W28272   0.256   4.277   3.431 -0.1020  0.0497  0.0944
12379W        W28273   8.008   8.772  12.330  0.0052 -0.1441  0.0044
12380W        W28274   5.977  11.539   0.839 -0.1391  0.2631 -0.1290
12381W        W28275  17.029   5.366   0.039  0.0840 -0.1031  0.2098
12382W        W28276   9.764   3.673   4.387  0.6226 -0.0739  0.1530
12383W        W28277  10.935   1.944   3.517  0.1697 -0.1273  0.0398
12384W        W28278  10.037   6.862   6.102 -0.0100  0.0529 -0.0443
12385W        W28279  15.555   5.078  13.126  0.1419  0.0369  0.2264
12386W        W28280   6.599  14.471   4.133  0.0887 -0.1718  0.0387
12387W        W28281  13.466  13.371   2.359  0.0598 -0.0010 -0.2608
12388W        W28282   9.723  13.734   2.754  0.1427 -0.1095  0.0825
12389W        W28283   0.500  15.311   1.289 -0.0955  0.0706  0.0072
12390W        W28284  17.462   9.104   0.095 -0.3200 -0.3311  0.2697
12391W        W28285   1.814  14.782   1.575 -0.0758  0.1751 -0.1851
12392W        W28286  14.226  13.624   0.665  0.2183 -0.0636  0.1458
12393W        W28287   2.396  15.740  14.737 -0.0435  0.0294  0.0601
12394W        W28288  18.524   0.101   3.996  0.1347  0.0862  0.0842
12395W        W28289   7.006  17.548   9.183  0.1069  0.1108 -0.0231
12396W        W28290  12.873  12.479   1.845 -0.1265  0.0832  0.0693
12397W        W28291  14.484   1.102  15.438 -0.0093 -0.3066 -0.3201
12398W        W28292   0.830  16.993  10.540 -0.0021  0.1035  0.2240
12399W        W28293   8.344   4.806   5.373 -0.0838 -0.0246  0.0580
12400W        W28294   0.488   5.463  13.156  0.3832 -0.0798 -0.0615
12401W        W28295  15.374  17.942  12.485 -0.0859 -0.0089 -0.0786
12402W        W28296  12.305  14.895   1.160  0.3385  0.0742 -0.0309
12403W        W28297   5.356   7.091   2.615  0.0392 -0.2951  0.0482
12404W        W28298   9.011   1.329   1.433  0.3595 -0.0100  0.0127
12405W        W28299  10.516  12.040   4.447 -0.0027 -0.0972 -0.0731
12406W        W28300  16.594   6.652   0.834 -0.2798  0.0003 -0.1201
12407W        W28301  15.102   1.519   4.245  0.0354  0.1567  0.1910
12408W        W28302  11.793  18.685  10.831 -0.0737 -0.4593  0.2340
12409W        W28303   3.154   4.837  13.366 -0.3276  0.2539  0.2280
12410W        W28304   5.523   6.368   3.963  0.1334  0.3278  0.2739
12411W        W28305   4.818  14.168  13.532 -0.0435  0.2263  0.3321
12412W        W28306   8.734  12.493   2.653  0.2685  0.0630  0.0134
12413W        W28307   3.045  18.729  15.458  0.2187 -0.1616  0.1873
12414W        W28308   2.135   7.588  12.405 -0.0833  0.0406 -0.0010
12415W        W28309  11.775   6.651  12.299 -0.0178 -0.2449 -0.1460
12416W        W28310  15.382  13.149   2.958  0.1236 -0.0596 -0.3143
12417W        W28311   4.171   7.338   2.293  0.1337 -0.3251 -0.1313
12418W        W28312  10.424   5.517  15.625 -0.0384  0.0738  0.0803
12419W        W28313  17.553   8.811   5.732  0.1341  0.2522 -0.2856
12420W        W28314   4.835   3.745   1.888 -0.2208 -0.6022 -0.2004
12421W        W28315   7.965   8.404   1.787 -0.2930  0.1938 -0.0376
12422W        W28316  13.218   4.713   3.463  0.1609 -0.1051  0.3354
12423W        W28317  12.916  17.085   5.919 -0.0750 -0.0163 -0.0914
12424W        W28318  18.090  18.380  11.652 -0.4233 -0.3788  0.0908
12425W        W28319   5.841   5.157  14.979  0.2300  0.1377  0.3358
12426W        W28320   4.738  15.300  13.126 -0.1562 -0.2604 -0.1652
12427W        W28321   9.000   8.103   1.014  0.0011  0.1430 -0.1359
12428W        W28322  14.473   7.240  11.998  0.2700 -0.2753 -0.0054
12429W        W28323  10.266   5.432   3.657 -0.0600 -0.0377  0.0234
12430W        W28324  15.069   3.319   2.887  0.3276 -0.2345 -0.2309
12431W        W28325  15.434  11.020   1.666 -0.1397 -0.1443  0.0542
12432W        W28326  14.924   2.794   0.868  0.1469  0.2171  0.0698
12433W        W28327   8.894   5.447  10.668  0.0136 -0.1260  0.0085
12434W        W28328  14.972  17.865   3.705 -0.1246  0.0208  0.2140
12435W        W28329   7.736   5.747  14.307  0.1459 -0.2016  0.1132
12436W        W28330   4.180   9.716   0.912 -0.0318 -0.3972 -0.2171
12437W        W28331  16.702  13.007   3.009 -0.1038  0.0021  0.1302
12438W        W28332   4.271  15.841   0.457  0.0257 -0.2614  0.1454
12439W        W28333   1.417  11.181  11.048  0.1014  0.1954 -0.0609
12440W        W28334  14.612   5.003  14.477 -0.0487 -0.1007 -0.1479
12441W        W28335   1.841   3.761   3.748 -0.4180 -0.2178 -0.2674
12442W        W28336   2.097   3.757   4.601 -0.1750  0.3455  0.0031
12443W        W28337   2.117   9.840   4.822  0.1300  0.0976  0.1140
12444W        W28338   2.318  14.950   1.573  0.2461  0.0202  0.0246
12445W        W28339   7.482  13.775   1.805 -0.1121 -0.3864  0.1679
12446W        W28340  10.691  18.058   3.945 -0.1690  0.1139 -0.4633
12447W        W28341  17.944  15.372   1.123  0.1714 -0.3200 -0.0229
12448W        W28342  17.932   5.035  10.793 -0.0239  0.0417 -0.2986
12449W        W28343   9.223   6.559  12.037 -0.0159  0.1130 -0.1680
12450W        W28344   6.274   3.826  13.201  0.3197 -0.1198  0.0062
12451W        W28345  16.728   3.418   4.911 -0.1254  0.3622 -0.0468
12452W        W28346   7.615   8.931  13.163  0.0290  0.5082  0.1355
12453W        W28347   1.920   1.786   5.661  0.0173  0.3960 -0.1006
12454W        W28348   4.167   6.562   4.181  0.4379 -0.0094 -0.4214
12455W        W28349  17.902  10.449   4.867  0.1998  0.0890  0.1407
12456W        W28350  10.878  15.594  12.794 -0.0511 -0.0633  0.2584
12457W        W28351  17.401  14.452   1.556 -0.1039  0.0256  0.4151
12458W        W28352   6.932   2.602  14.225  0.0046  0.0390  0.3827
12459W        W28353   6.191  15.812  10.830  0.2918  0.4415 -0.0200
12460W        W28354   3.479   0.883   1.981  0.1239 -0.0917 -0.0701
12461W        W28355  10.655  18.191  11.407  0.2464  0.1537  0.2135
12462W        W28356   1.572  14.044  11.427 -0.0953 -0.2520  0.5512
12463W        W28357   7.645   8.742  13.872 -0.2407  0.5478 -0.1584
12464W        W28358  18.032   5.258  11.931 -0.0893 -0.3275  0.1722
12465W        W28359  14.943   7.708  11.228  0.0195 -0.1022 -0.2685
12466W        W28360  11.909  15.018   4.741 -0.1050  0.0145  0.0195
12467W        W28361  14.895   1.347   5.535 -0.1742 -0.2061  0.0838
12468W        W28362   4.158  11.354   2.435  0.1882  0.1343 -0.3307
12469W        W28363   0.230  11.058  12.699  0.3941  0.0305  0.0201
12470W        W28364  17.629   9.528  13.624  0.2237 -0.0182  0.1093
12471W        W28365   9.326   3.258  11.700  0.0799  0.2828  0.1980
12472W        W28366   7.918   9.734   4.901 -0.0828 -0.1874  0.2121
12473W        W28367  13.863   5.248  15.276  0.2556 -0.2210  0.0926
12474W        W28368   3.422  10.431   4.938  0.3120 -0.2705 -0.0582
12475W        W28369   6.426   6.907  11.859  0.3567  0.0024 -0.1682
12476W        W28370  16.678  16.098  14.938  0.0847 -0.2087 -0.1221
12477W        W28371   6.033  18.477   2.753 -0.4861 -0.1734  0.0607
12478W        W28372  10.820   7.794   2.481  0.0361  0.2025 -0.0044
12479W        W28373  13.198   3.796   4.847  0.0040 -0.3203  0.0439
12480W        W28374   9.184  12.466  12.936 -0.0985  0.1690  0.1086
12481W        W28375   6.818  12.190  15.341  0.0988 -0.1854  0.1815
12482W        W28376   0.965  11.617   0.166  0.1686 -0.0917  0.4951
12483W        W28377  11.448  14.469  15.193  0.2728  0.1936  0.1106
12484W        W28378   6.202  12.726   3.655  0.1498 -0.2457  0.3153
12485W        W28379   9.294   4.746  13.525 -0.0140  0.1648 -0.3196
12486W        W28380   8.228   0.742   4.505  0.2897 -0.2333  0.1662
12487W        W28381   7.653   3.872  11.811  0.0480 -0.0820 -0.0362
12488W        W28382   4.592  11.361   4.144 -0.0684 -0.1312  0.2888
12489W        W28383  16.148   0.360  12.659  0.0965 -0.2941 -0.0535
12490W        W28384  16.663   7.722  12.096  0.0716 -0.2478  0.1658
12491W        W28385   1.061   1.312   3.545  0.3199  0.2407  0.0882
12492W        W28386   9.946  11.308  14.397 -0.5240 -0.1285 -0.0061
12493W        W28387  15.564  14.401  14.129 -0.3195  0.0849  0.1276
12494W        W28388   4.522  11.983   0.287  0.1429 -0.0286  0.0210
12495W        W28389  12.041  14.105   2.014  0.0305  0.1219  0.4258
12496W        W28390   3.429  15.522   3.239  0.4107 -0.0470  0.5468
12497W        W28391  16.323   0.073  11.854 -0.0435  0.1355  0.0123
12498W        W28392   4.598   5.778   1.495 -0.6532 -0.0159 -0.2152
12499W        W28393   4.821   3.136  14.717  0.1348 -0.2178 -0.0708
12500W        W28394   5.642  10.928   2.095  0.4652 -0.0357 -0.0073
12501W        W28395   5.132  12.559   4.262 -0.0996 -0.2840  0.1866
12502W        W28396   9.875  15.733   4.255  0.0444  0.5254 -0.0936
12503W        W28397   1.397   9.875  14.110  0.1203 -0.1144 -0.0683
12504W        W28398   7.122   9.375   4.909 -0.0846  0.0555 -0.0914
12505W        W28399   1.647   0.810  11.564  0.0892 -0.2880 -0.1750
12506W        W28400   5.639   1.739   5.054  0.2042 -0.2326  0.1807
12507W        W28401  13.691   5.523  12.746  0.2322  0.0917 -0.3015
12508W        W28402   8.934   8.989  15.161  0.1498  0.1658  0.0252
12509W        W28403   6.441  17.549  11.920  0.2315  0.2995 -0.0094
12510W        W28404   6.290   1.995  14.987  0.0420 -0.1249 -0.0211
12511W        W28405   4.053  17.362  11.468 -0.0044  0.2358 -0.1805
12512W        W28406  11.063  17.775   4.278 -0.1681  0.3188  0.1849
12513W        W28407  10.542  17.094  12.066 -0.1570 -0.1674 -0.0738
12514W        W28408   1.462   0.041   1.934  0.1644  0.2161 -0.0923
12515W        W28409   2.380  12.700   3.372 -0.1787  0.2689  0.1132
12516W        W28410   7.381  11.431  10.654 -0.1489 -0.3332  0.0206
12517W        W28411   0.295   4.727   3.247  0.3228  0.1212  0.2683
12518W        W28412   5.720   8.324   5.031 -0.1400  0.1221 -0.0221
12519W        W28413   9.422   0.217  14.237 -0.0279 -0.1826 -0.1195
12520W        W28414   2.188   9.333  10.121  0.1801 -0.2390  0.0868
12521W        W28415   9.360   0.526  11.861 -0.0333  0.0408 -0.2675
12522W        W28416   4.732  11.420  14.569  0.5082 -0.3383  0.0540
12523W        W28417  15.584   3.464  12.950  0.1242  0.0499 -0.2138
12524W        W28418  15.596  14.485  12.472 -0.1310  0.5567  0.1231
12525W        W28419   0.875  15.679   2.497 -0.2887  0.1925 -0.0429
12526W        W28420  10.348   3.306   3.455  0.3040 -0.1719  0.0494
12527W        W28421   8.202   8.431  11.946 -0.1428  0.3011 -0.0648
12528W        W28422  10.494  17.198   4.380  0.1746  0.0511 -0.2272
12529W        W28423   7.145  11.792  15.563 -0.0880 -0.0912 -0.2695
12530W        W28424  10.068   9.033   2.855  0.2408 -0.0086 -0.0641
12531W        W28425   2.600  17.070  11.186  0.1468  0.0916 -0.2670
12532W        W28426   0.956  12.298   0.094  0.2766  0.1854  0.2429
12533W        W28427  16.727   5.090  15.023  0.2262  0.1547 -0.0125
12534W        W28428   0.991  12.271   1.467  0.2513  0.0306  0.0570
12535W        W28429   7.411  15.527   3.661 -0.1617 -0.1844  0.0396
12536W        W28430   4.343  17.812  10.353  0.1364 -0.0690 -0.3016
12537W        W28431  12.124   0.378   5.672 -0.0868  0.1210 -0.1221
12538W        W28432   5.526   4.554  12.634  0.0900 -0.0211  0.0516
12539W        W28433   1.755  17.923   2.767 -0.0613  0.1787 -0.2767
12540W        W28434  14.917   1.199  13.736 -0.3606  0.1937 -0.0243
12541W        W28435   8.616   1.062  11.774 -0.1709  0.2273 -0.1082
12542W        W28436   3.399  14.639   1.013 -0.2397 -0.1065 -0.1348
12543W        W28437   8.969   8.852  14.663  0.1627  0.0757  0.2442
12544W        W28438   7.936   0.779   3.335  0.1272 -0.2757  0.2758
12545W        W28439  18.684   1.231   0.024 -0.2087 -0.1998  0.2722
12546W        W28440   9.521  18.616   0.643 -0.0100  0.1546  0.2397
12547W        W28441  17.465   0.110   3.059  0.1851 -0.0455 -0.1794
12548W        W28442   9.141  11.262   1.214  0.0354 -0.2162 -0.0201
12549W        W28443  16.022   4.759   3.538  0.3994 -0.0802  0.1935
12550W        W28444  10.659  11.665   3.659  0.0050  0.1774 -0.2907
12551W        W28445  11.426   5.020  14.723 -0.0388  0.0144 -0.1721
12552W        W28446  12.278  14.378   3.914  0.0739  0.0719 -0.0460
12553W        W28447   5.112  12.256  11.266  0.2783 -0.2351 -0.0579
12554W        W28448  16.800  14.625  15.623 -0.0737  0.1023 -0.5320
12555W        W28449  14.101   4.287   4.568 -0.1324  0.0834  0.0515
12556W        W28450   0.012  11.486   0.381 -0.0630 -0.2487 -0.0105
12557W        W28451   2.911   2.107  13.635  0.2519 -0.2825 -0.3543
12558W        W28452   6.169   7.338   1.781  0.0813  0.1872  0.2149
12559W        W28453  12.226  18.197  13.683  0.2046 -0.0214 -0.0457
12560W        W28454   1.332  12.616  12.847  0.1521  0.3245 -0.0510
12561W        W28455   5.852  11.675  10.986 -0.0973 -0.2466  0.1995
12562W        W28456   6.918  12.540  11.716 -0.1526 -0.2027  0.1538
12563W        W28457  13.782   0.590   4.995  0.1382 -0.2409 -0.0541
12564W        W28458   8.699  16.040  11.509  0.2267 -0.1125  0.0865
12565W        W28459   1.450  16.038  13.785 -0.0056  0.0739  0.0873
12566W        W28460   2.580   6.359  10.806 -0.2141 -0.1703  0.3047
12567W        W28461   6.862  13.127  11.652  0.0954  0.2384  0.0342
12568W        W28462   1.087   9.050   0.731  0.0915 -0.0792  0.0686
12569W        W28463   0.374   5.165   5.865 -0.1753  0.2099  0.0639
12570W        W28464   0.648   9.384   2.879  0.3229 -0.0412 -0.0990
12571W        W28465  13.652   2.118   2.379  0.0529 -0.5221 -0.1547
12572W        W28466   6.380   8.060  15.571  0.2788  0.4036 -0.1292
12573W        W28467  13.609   0.022  11.779 -0.5144  0.1572  0.3654
12574W        W28468   9.747   2.486  11.392  0.0325 -0.0794 -0.2177
12575W        W28469   1.992   6.566  10.710 -0.0413  0.0549 -0.1577
12576W        W28470   8.387  14.308   0.612 -0.0028  0.0778 -0.1472
12577W        W28471   2.663   3.982  13.744  0.1458 -0.0865  0.0265
12578W        W28472  14.964   8.139  13.734  0.2019  0.1733 -0.1025
12579W        W28473   2.678   9.364  15.544 -0.1651 -0.2120  0.2348
12580W        W28474   3.707   3.142   0.506 -0.1049  0.0014 -0.0051
12581W        W28475  15.715  16.613  14.867  0.0048  0.2263  0.0224
12582W        W28476  18.742  13.904   0.764 -0.0847  0.1864 -0.2822
12583W        W28477  10.361  17.608   1.103 -0.3011 -0.1132 -0.1436
12584W        W28478  12.480  12.686   4.261  0.0280  0.1352 -0.2117
12585W        W28479   2.290  16.930   2.992 -0.1427  0.5299 -0.1495
12586W        W28480   4.216   6.903  12.843 -0.3634 -0.2350 -0.1331
12587W        W28481   1.819   0.278   0.483 -0.1363 -0.0691  0.1308
12588W        W28482   5.718   6.070   2.998 -0.0170 -0.0217 -0.0278
12589W        W28483   3.772  14.065   2.095 -0.4370 -0.1612 -0.3555
12590W        W28484  16.479   3.485  11.938 -0.4010  0.0416 -0.0159
12591W        W28485  12.251   8.471   2.353  0.3738 -0.1741  0.0220
12592W        W28486  14.512   8.570   5.151  0.0115 -0.0071 -0.0044
12593W        W28487  18.066   7.633   3.382 -0.1969 -0.1397  0.1560
12594W        W28488  10.863  17.298   4.804  0.2632 -0.1256  0.0594
12595W        W28489   3.685   6.548  15.374  0.0342 -0.1614  0.0621
12596W        W28490  11.482  12.571  15.622 -0.0579 -0.1099 -0.3455
12597W        W28491   5.851   0.731   4.271 -0.1796 -0.0663 -0.2619
12598W        W28492   1.034  18.701   0.004  0.0830 -0.1478 -0.1616
12599W        W28493  17.996  13.051  11.455  0.2577  0.2899 -0.0083
12600W        W28494  10.474   1.227   1.358 -0.1025 -0.1398 -0.3394
12601W        W28495  10.739  18.762  13.205  0.0928  0.1293 -0.2088
12602W        W28496  17.476   9.399   3.213 -0.0667  0.1447 -0.2372
12603W        W28497   9.534   7.803   0.098 -0.2778  0.3417  0.1028
12604W        W28498  14.315   1.654   3.398 -0.0027  0.1032  0.0007
12605W        W28499   3.201  13.061  12.513  0.1269  0.1646 -0.0161
12606W        W28500   8.838  10.092   5.866  0.1135 -0.2147  0.1311
12607W        W28501  15.755  18.713   4.702 -0.1162 -0.0543 -0.1853
12608W        W28502   7.290   3.404  15.255  0.0563 -0.0409 -0.1669
12609W        W28503  17.821   3.134  11.505  0.2312 -0.1040 -0.0980
12610W        W28504   7.023  16.239  13.742  0.0543 -0.1276 -0.1461
12611W        W28505   1.476  12.910  12.387  0.1144 -0.0722 -0.2688
12612W        W28506   5.241  12.154   4.606  0.2957  0.1721  0.1007
12613W        W28507  11.874  14.777  14.517 -0.1165 -0.0657 -0.1778
12614W        W28508  15.133  17.250  11.878 -0.0948 -0.2991  0.0157
12615W        W28509   4.677  13.566   4.279 -0.3602 -0.1707  0.2686
12616W        W28510  17.899  10.435  12.908  0.0675 -0.4314  0.5143
12617W        W28511   8.964   3.482  15.119 -0.0154  0.1714  0.2313
12618W        W28512   6.491  15.485  13.716  0.1854  0.0505  0.1234
12619W        W28513   0.609  10.478  11.762  0.0217  0.1944  0.1003
12620W        W28514  15.518   8.205   3.631  0.1767 -0.1602  0.0227
12621W        W28515  13.705   8.537   0.574  0.1684 -0.0726 -0.0865
12622W        W28516   2.878  14.567   3.313  0.1459  0.0642 -0.0857
12623W        W28517   8.298   0.880   1.358  0.1358  0.2504  0.0752
12624W        W28518  13.245   5.424   2.281 -0.0726  0.2720 -0.2208
12625W        W28519  14.802  17.923   1.311 -0.1089  0.3009 -0.0070
12626W        W28520  16.542   9.388  12.692  0.1010 -0.1616 -0.0591
12627W        W28521  12.686  17.282  13.361  0.1589 -0.2595 -0.1532
12628W        W28522  10.522   4.254  15.399 -0.1420 -0.2865  0.1431
12629W        W28523  11.245  18.157   2.784 -0.1026 -0.1344  0.0483
12630W        W28524   7.054   9.807   3.675  0.0381 -0.0256  0.0176
12631W        W28525   3.365  15.137  11.408  0.1745  0.3698  0.2451
12632W        W28526   2.162  14.440  12.148  0.1363 -0.0738 -0.0784
12633W        W28527  16.896   4.815   0.909 -0.1956  0.3070 -0.2549
12634W        W28528   7.389  13.883  15.519 -0.1110 -0.0618  0.0836
12635W        W28529  12.068  17.816   3.816 -0.0816  0.1284 -0.2318
12636W        W28530   1.638  15.149   3.285  0.3079  0.1480  0.1284
12637W        W28531   8.612  11.108  12.532  0.0061 -0.0810  0.2358
12638W        W28532   0.947   4.285   0.896 -0.1222 -0.0689  0.0358
12639W        W28533  18.275   5.486   3.318  0.2089  0.2153  0.0538
12640W        W28534   9.494  14.258  13.235 -0.0062  0.0268  0.1980
12641W        W28535  16.173  13.534  14.378 -0.0702  0.0707  0.0628
12642W        W28536   1.874   1.163   0.781  0.1006 -0.4194 -0.0704
12643W        W28537   1.080   3.394   1.884  0.2412  0.2245 -0.1259
12644W        W28538  13.644   8.073  11.830 -0.1595 -0.0486 -0.0092
12645W        W28539  14.392  18.049   4.898 -0.0407 -0.2200  0.3097
12646W        W28540  15.817  12.875   2.817  0.4223  0.1658 -0.1124
12647W        W28541   4.087  18.394  15.525  0.1920 -0.0638 -0.3136
12648W        W28542   5.612   2.381   2.332 -0.0353 -0.1211 -0.0073
12649W        W28543  10.974  12.984  11.436  0.1181 -0.2857 -0.0957
12650W        W28544   8.362   8.295   0.472  0.2656 -0.0763 -0.0481
12651W        W28545  15.215   7.413  13.926 -0.1245  0.0270 -0.2082
12652W        W28546  17.822   2.561  14.942  0.0792  0.1684 -0.1403
12653W        W28547   2.381  13.036  11.149  0.0203  0.0869  0.0893
12654W        W28548  11.712  16.546  15.467 -0.3076 -0.3981  0.0428
12655W        W28549   9.213   0.033   3.149  0.0457 -0.1149 -0.1734
12656W        W28550   7.414  18.559  15.132 -0.1845  0.1794 -0.2576
12657W        W28551  16.868   5.211  12.287 -0.1141 -0.1318 -0.3426
12658W        W28552  11.883   5.649   4.369  0.1394 -0.0383  0.0539
12659W        W28553   2.320   5.126   4.284 -0.1826  0.1722 -0.2742
12660W        W28554   2.682   0.993  14.514  0.3559  0.0689 -0.1462
12661W        W28555   2.944  15.471  11.265  0.2799  0.1301  0.2472
12662W        W28556  13.028   1.041  10.894  0.0766 -0.6226  0.2556
12663W        W28557   6.801   9.677   4.154  0.0285  0.0808 -0.2410
12664W        W28558   5.825  16.859   2.393 -0.3570 -0.1777 -0.1490
12665W        W28559  15.313   0.713   4.490  0.2543 -0.1639  0.4337
12666W        W28560   5.438   5.378   1.851  0.2403 -0.0727 -0.0543
12667W        W28561  14.999   3.985  12.835  0.2390 -0.0197  0.0725
12668W        W28562  11.694  11.207  15.208  0.1015  0.1737  0.0877
12669W        W28563  10.147  12.777  12.726  0.2005 -0.1607  0.0847
12670W        W28564  13.572   2.147  10.822 -0.0404 -0.1118  0.0508
12671W        W28565   0.785   4.645  11.417 -0.0062  0.2047 -0.0663
12672W        W28566  15.248   3.879   1.907 -0.1582  0.0228 -0.0058
12673W        W28567   0.237  16.619  13.125  0.0550 -0.0769  0.1611
12674W        W28568   6.280  11.358   1.176  0.0836 -0.1910 -0.2213
12675W        W28569   8.956   1.750   0.645  0.0249 -0.3620 -0.3479
12676W        W28570   8.126  14.050   4.171  0.2312  0.0920  0.1107
12677W        W28571  16.832  13.445   1.208  0.3828  0.1441 -0.0753
12678W        W28572   8.424   9.814   0.992  0.0810 -0.3545 -0.1748
12679W        W28573  12.861  16.092  13.843 -0.0185  0.2163 -0.0278
12680W        W28574  17.550  16.606   2.499 -0.1536  0.0043  0.4509
12681W        W28575   8.463  14.807   0.257 -0.1551  0.2239 -0.0462
12682W        W28576  18.258   3.377   6.079  0.0227  0.2229 -0.0986
12683W        W28577   0.480   6.471   3.392  0.0061 -0.1893  0.0962
12684W        W28578   6.345  15.383   0.309 -0.0303  0.1173  0.1508
12685W        W28579   1.354  12.100   1.164  0.0435 -0.5599  0.0670
12686W        W28580  15.634   2.748  12.278  0.0020  0.0271 -0.3298
12687W        W28581   7.010  16.544   2.150  0.1172 -0.3519  0.2096
12688W        W28582   1.872  15.773  13.796  0.1033  0.1352 -0.2000
12689W        W28583  10.305  12.251   2.067 -0.1978 -0.1711  0.1194
12690W        W28584   6.936  18.254   9.765  0.1424  0.4764  0.1448
12691W        W28585   6.724  17.139   1.425  0.0836  0.1457 -0.0642
12692W        W28586   5.993   4.280   2.511  0.1631 -0.0610  0.0084
12693W        W28587   9.206   5.891  10.761 -0.0787 -0.0628 -0.2000
12694W        W28588   1.428   3.530   3.816  0.3488  0.1515 -0.0939
12695W        W28589  10.373   0.767  15.138 -0.0700  0.1944 -0.3454
12696W        W28590   1.812   5.632  15.429 -0.4735  0.6069  0.0160
12697W        W28591  16.785   8.977  13.664 -0.1100  0.1209  0.3651
12698W        W28592  15.385   9.277  14.295 -0.0136 -0.1024  0.0619
12699W        W28593  16.483  18.621   2.782  0.0962  0.0026 -0.0596
12700W        W28594  10.972  13.896  13.180  0.1548  0.0839  0.0413
12701W        W28595   1.211   6.469   4.624  0.0493 -0.0725 -0.0549
12702W        W28596   2.849  16.875   2.969  0.4105  0.2393  0.2363
12703W        W28597  12.756   7.278  13.990 -0.0579 -0.1417 -0.0416
12704W        W28598  10.317   0.041   1.666 -0.0853 -0.0654 -0.3951
12705W        W28599  17.777   9.773   4.150  0.2375 -0.1248  0.2312
12706W        W28600  18.412  12.820   5.068  0.1112 -0.1301 -0.0646
12707W        W28601  11.785   4.435  15.172 -0.1195 -0.0025 -0.3517
12708W        W28602   2.829  14.914   0.855 -0.3070 -0.1062 -0.2307
12709W        W28603   9.635  14.761  11.370 -0.0622  0.1615 -0.3824
12710W        W28604  10.188   9.974   3.293 -0.1154  0.0072  0.0798
12711W        W28605  17.607  11.550   3.771 -0.0032  0.1300  0.0670
12712W        W28606  16.177   3.931   2.204  0.2283  0.0181 -0.3544
12713W        W28607   1.182  12.268   5.262 -0.0843  0.0110  0.0664
12714W        W28608  14.929   4.871  10.649  0.0607 -0.1975 -0.0220
12715W        W28609   8.071   3.286   2.611  0.4265  0.0536 -0.0511
12716W        W28610  15.379  11.432  15.432  0.2183 -0.2806 -0.2045
12717W        W28611   1.384   7.314  10.393 -0.2713  0.0474  0.3144
12718W        W28612  13.185   6.211  14.942 -0.3761  0.1868 -0.2202
12719W        W28613   7.470   8.106  11.788  0.0950  0.1223 -0.0703
12720W        W28614   0.584   5.595  11.286 -0.0448  0.0396  0.2395
12721W        W28615   6.809  11.777   0.421 -0.3657 -0.0293  0.4105
12722W        W28616   8.946  14.431  12.139  0.2238  0.3176 -0.0763
12723W        W28617   5.133  14.459   1.667  0.0030 -0.0821 -0.0696
12724W        W28618  16.810  10.485   5.511  0.1406  0.1652 -0.0277
12725W        W28619  13.233   8.230  15.363  0.2497 -0.0244  0.2703
12726W        W28620   7.166   9.761  13.060  0.0533 -0.0861 -0.0678
12727W        W28621  18.518  12.065  12.957  0.0464  0.2814  0.0815
12728W        W28622   3.374   7.381  13.299  0.1824  0.0432  0.1138
12729W        W28623  17.296  13.736  14.514 -0.0578 -0.0791  0.1824
12730W        W28624   4.508  10.751   0.010 -0.2951  0.0512  0.0330
12731W        W28625   7.867  18.222   4.029  0.1055 -0.2885  0.0937
12732W        W28626   5.213  10.605  10.829 -0.0056 -0.0423 -0.0246
12733W        W28627  15.334   6.102   1.969  0.3054 -0.0382  0.0898
12734W        W28628  12.295   3.232  11.936 -0.1079  0.3046  0.1670
12735W        W28629   1.780  17.808  14.907 -0.1510 -0.0116 -0.3845
12736W        W28630   9.459  12.674   1.998 -0.0523  0.1886  0.1157
12737W        W28631   4.173   8.225   3.803 -0.1289 -0.2297 -0.1707
12738W        W28632  13.457   4.237  10.971  0.0358  0.2796 -0.0140
12739W        W28633  16.675  13.621  12.872 -0.0737 -0.1929 -0.0921
12740W        W28634  16.771  16.171  13.910 -0.0110 -0.1909  0.0504
12741W        W28635   4.992   3.975   1.501 -0.2131 -0.3632 -0.1218
12742W        W28636  11.606   0.918   0.122  0.3377  0.3512  0.1501
12743W        W28637  17.684   5.233   0.311  0.0796  0.3303  0.1299
12744W        W28638   8.923   4.852  13.212 -0.1904  0.0544  0.1131
12745W        W28639   6.727  13.579   1.046 -0.0229 -0.1218  0.0136
12746W        W28640   7.942  18.506  11.388  0.1594 -0.0824 -0.0693
12747W        W28641  18.203   2.452  11.221  0.3995 -0.0351  0.1004
12748W        W28642  10.046   7.541  12.395  0.2328 -0.0163 -0.3712
12749W        W28643  11.552   0.617  13.138 -0.2148  0.2150  0.2020
12750W        W28644   0.766  15.683   3.508 -0.0903 -0.3005 -0.1723
12751W        W28645  18.338   8.144   1.399  0.1032 -0.0440  0.1296
12752W        W28646  11.941  15.441   4.983  0.0104 -0.0387  0.1393
12753W        W28647   5.886   6.934   5.066  0.0107 -0.2078 -0.0696
12754W        W28648   9.279  13.497   4.253  0.2709 -0.0416 -0.1171
12755W        W28649  13.104  18.347   2.022 -0.3961 -0.3236 -0.0829
12756W        W28650   3.225  13.202  14.678  0.2232  0.3542 -0.1707
12757W        W28651  11.778  13.169  14.871  0.0692  0.0196  0.0727
12758W        W28652   4.502  13.317  15.625 -0.2607 -0.1077  0.1689
12759W        W28653   3.965  15.849  11.340 -0.1800  0.0915  0.2335
12760W        W28654  11.824   0.835  13.633 -0.3011 -0.4585  0.0346
12761W        W28655  16.818  16.360  13.313  0.2150 -0.3423 -0.0212
12762W        W28656  14.659  18.209   3.521  0.0752 -0.2295  0.0401
12763W        W28657  17.844  14.963   5.899  0.0704  0.2029  0.2107
12764W        W28658   2.329   4.478  15.506  0.2898  0.1845 -0.1286
12765W        W28659   3.384   0.181   4.017 -0.1866  0.3164 -0.1696
12766W        W28660   2.647   0.354  12.596 -0.2961  0.0828 -0.0035
12767W        W28661   5.245   8.615   2.764 -0.1403  0.1283  0.2877
12768W        W28662  13.689   0.937   1.516 -0.1630  0.1527 -0.2014
12769W        W28663  16.697  16.735   5.136 -0.2024 -0.1709  0.0421
12770W        W28664   9.079  10.182  14.762 -0.0345  0.1168  0.1512
12771W        W28665   7.936  12.008   9.882 -0.1445 -0.0450  0.0855
12772W        W28666   3.478  14.650   3.489 -0.3504 -0.1773  0.0981
12773W        W28667  14.050  10.400  12.347  0.0403 -0.2981 -0.0980
12774W        W28668  16.769  10.391   1.566 -0.0532  0.2477  0.1475
12775W        W28669   9.794   1.912  12.784 -0.4714 -0.1539  0.0369
12776W        W28670   1.423   4.911  11.439 -0.1999  0.0697 -0.5084
12777W        W28671  17.422   0.853   2.148 -0.0697  0.1225 -0.1093
12778W        W28672  13.807   9.807  10.860  0.2897  0.1740 -0.0647
12779W        W28673  14.637  11.306  12.576 -0.0974  0.0118 -0.0306
12780W        W28674   4.031  17.455   2.168  0.0302  0.0368 -0.0045
12781W        W28675  18.085  12.324   1.510 -0.0128  0.1878 -0.1041
12782W        W28676  13.018   1.795   1.684  0.0473 -0.0454  0.2831
12783W        W28677  13.619  15.964   3.014 -0.0464  0.1030 -0.3264
12784W        W28678   9.668  18.619   1.140 -0.1516 -0.0550  0.0695
12785W        W28679  16.757   4.688  12.195  0.0235  0.2031 -0.3286
12786W        W28680   0.109  16.631   2.703  0.0073 -0.1008  0.1394
12787W        W28681   9.203   0.457   3.422  0.0047  0.0161  0.2736
12788W        W28682   6.815   9.486  11.227  0.0117  0.1003 -0.4858
12789W        W28683  15.134  16.520  12.800  0.3326 -0.2203 -0.0475
12790W        W28684   1.070  12.449   4.776  0.0451  0.2897  0.0535
12791W        W28685   7.580  16.159  15.176 -0.0557  0.1690 -0.1422
12792W        W28686   7.647   7.626  11.793  0.0720 -0.0181 -0.3988
12793W        W28687  10.173  16.438   2.409  0.2428 -0.1032 -0.2467
12794W        W28688   9.652  13.831   4.195  0.2106 -0.1365  0.1305
12795W        W28689  12.491   1.829   2.603 -0.0290 -0.0196  0.0893
12796W        W28690  15.302   8.786  14.363  0.2151  0.0658 -0.2008
12797W        W28691   2.782   5.611   5.892  0.4708 -0.0059  0.2441
12798W        W28692   9.660  11.918  12.199  0.0122  0.2179 -0.0066
12799W        W28693   2.234  17.770  13.134 -0.3207 -0.0684 -0.0300
12800W        W28694  14.235   5.540   0.905 -0.1642  0.1165 -0.0000
12801W        W28695   2.056  15.457   4.519 -0.0712 -0.1824 -0.0417
12802W        W28696   3.883   2.149  15.532  0.1189 -0.1823  0.1334
12803W        W28697  14.330  14.796   4.035  0.1126  0.0079 -0.0077
12804W        W28698   0.446   3.584   1.144 -0.0162 -0.1007  0.0072
12805W        W28699  16.429   4.926  12.489  0.1018  0.2205 -0.2128
12806W        W28700   3.149  12.329   3.827 -0.0461  0.3082 -0.2098
12807W        W28701   6.235   4.974   2.583  0.2011  0.4374  0.0264
12808W        W28702   9.677   9.994  15.497 -0.1776  0.1024  0.1800
12809W        W28703  15.528   4.381   4.858 -0.1364  0.0437 -0.2367
12810W        W28704   3.996   0.987   0.061  0.1916 -0.0482 -0.0732
12811W        W28705   9.142   5.011   5.026  0.3156  0.1028 -0.1917
12812W        W28706  12.825  12.920   2.938  0.0306 -0.1697 -0.1693
12813W        W28707  10.443   2.622  11.490  0.0190  0.0889  0.1444
12814W        W28708   2.382   8.130   0.953  0.0472  0.1484 -0.1066
12815W        W28709  16.031  11.206   4.455  0.1379 -0.3920 -0.0061
12816W        W28710  17.100  14.766  15.199 -0.2694  0.0379 -0.2156
12817W        W28711   0.222  14.899   3.500 -0.0901  0.3138 -0.0028
12818W        W28712  13.977   4.360   3.778  0.1796 -0.2424  0.4249
12819W        W28713  11.943  11.088   3.816 -0.2164 -0.0534 -0.0180
12820W        W28714  18.137   0.496  13.565 -0.1143 -0.1048 -0.1950
12821W        W28715   7.819  16.502  12.526 -0.1116 -0.1922 -0.2374
12822W        W28716  14.747  13.666  11.373 -0.0441  0.0169 -0.1960
12823W        W28717   6.644   2.375   0.430 -0.1904 -0.1782 -0.0398
12824W        W28718  14.255  17.037   2.198 -0.0853 -0.0847  0.1682
12825W        W28719  17.413   9.278  14.309 -0.0328  0.2397 -0.1823
12826W        W28720  12.918   6.699  14.358 -0.2023  0.1382  0.1441
12827W        W28721   8.339   1.432  11.322 -0.1372 -0.1371  0.0137
12828W        W28722   2.425  12.616  12.392 -0.0869  0.1482  0.1838
12829W        W28723  10.229  17.699   2.333  0.3763 -0.0879 -0.0595
12830W        W28724  18.510   0.809  15.084 -0.1944 -0.0569 -0.0414
12831W        W28725   3.100  10.678  13.884  0.2165 -0.1246  0.2361
12832W        W28726   7.693  18.089  10.270  0.1773 -0.0050  0.0402
12833W        W28727  16.317  11.678   5.717  0.1809  0.1168 -0.0308
12834W        W28728   2.043  14.988   4.272  0.2380  0.1934  0.2487
12835W        W28729   7.392   6.933  12.231 -0.1180 -0.2350  0.0704
12836W        W28730  16.378   0.260   3.719  0.3087  0.1180 -0.2057
12837W        W28731  14.425   2.074  12.219 -0.0915  0.0014  0.0038
12838W        W28732   9.125   8.767   3.375 -0.1542 -0.2331 -0.2384
12839W        W28733   6.129  11.313   5.567  0.4682 -0.3644 -0.3291
12840W        W28734  15.338  17.434   0.162 -0.0123 -0.0899  0.3016
12841W        W28735  13.506   7.702   4.626  0.0731  0.1368 -0.3844
12842W        W28736  16.288   2.946  14.832 -0.2088 -0.0260 -0.0884
12843W        W28737   3.233   8.747   0.247 -0.0135  0.1401  0.1333
12844W        W28738   5.063   6.339   4.267 -0.0859  0.0878 -0.0051
12845W        W28739  17.481   4.179   4.746  0.3406 -0.3512 -0.3013
12846W        W28740  13.500   2.607  12.114  0.1843 -0.0956 -0.1840
12847W        W28741   9.356  17.057   2.967  0.0943  0.1847  0.2571
12848W        W28742   4.061   7.210  10.768  0.2056 -0.0420 -0.0988
12849W        W28743   7.262   7.568   2.914 -0.1497  0.0437 -0.2608
12850W        W28744  11.453   6.922  15.186  0.2448 -0.0879  0.1114
12851W        W28745  15.548  13.649   3.808  0.0558  0.0208 -0.2946
12852W        W28746   5.723  16.719   0.866 -0.1461 -0.2071  0.0756
12853W        W28747  14.808  12.392  11.759 -0.3157  0.0907  0.2325
12854W        W28748  12.851   8.820  11.809  0.1783 -0.0407  0.2063
12855W        W28749  16.755  14.391  11.825 -0.1561  0.0658 -0.2022
12856W        W28750  10.686  15.171  12.551  0.0280 -0.2296 -0.0470
12857W        W28751  10.854   2.023   4.109 -0.2576  0.0494  0.1320
12858W        W28752  10.085  10.454  11.367  0.0280 -0.2166  0.1120
12859W        W28753   8.571  14.328  14.912  0.0177  0.2431  0.2267
12860W        W28754  16.997  11.813  11.563  0.1084  0.1465 -0.1039
12861W        W28755  10.426  15.783  14.740 -0.0349 -0.3287  0.2802
12862W        W28756   5.738  13.393   2.328 -0.4488  0.3316  0.0905
12863W        W28757  14.651  11.963   2.919 -0.1944 -0.1079  0.1272
12864W        W28758  10.364   1.403  14.900 -0.0059 -0.1182  0.0803
12865W        W28759  13.133   5.094   0.909 -0.3417 -0.1802  0.0493
12866W        W28760   8.929  13.985  11.791 -0.0751 -0.0117 -0.1302
12867W        W28761   4.762  12.382  10.431 -0.2531  0.2653 -0.0508
12868W        W28762   6.120  10.095   3.532 -0.2770  0.1679 -0.0227
12869W        W28763  18.111  12.245   4.906  0.0786  0.0729  0.4491
12870W        W28764   4.784   2.865   2.209  0.0205 -0.0412 -0.1257
12871W        W28765  15.567  11.178   4.261  0.2209 -0.0300 -0.0595
12872W        W28766   6.447  15.602   3.520  0.1456  0.3987 -0.2271
12873W        W28767   9.295  12.522  10.960  0.1917 -0.0622  0.0416
12874W        W28768   3.698  18.138   2.397  0.0516  0.1848  0.2315
12875W        W28769  13.127  11.307   1.683  0.1610 -0.1729 -0.3506
12876W        W28770   8.000   9.045   4.533 -0.0520  0.2327 -0.2556
12877W        W28771   2.853   3.803  13.308 -0.2306  0.0260  0.0623
12878W        W28772   8.727  15.917   1.065  0.2497 -0.3764 -0.0074
12879W        W28773  16.974  17.280   3.093 -0.2684 -0.2042  0.1192
12880W        W28774   1.727  12.110  14.255  0.1325  0.1967  0.1802
12881W        W28775   2.980  10.745   4.112  0.1041 -0.0659  0.0627
12882W        W28776  17.203   4.942  14.266 -0.1348 -0.0677  0.0845
12883W        W28777  11.380  13.536  13.164 -0.2914  0.0855 -0.0855
12884W        W28778  16.064   8.440  14.998  0.2336  0.1587 -0.0969
12885W        W28779  10.341   2.768  14.132  0.0550  0.2727 -0.0395
12886W        W28780   1.118   2.297   0.220  0.2712  0.0477 -0.1302
12887W        W28781   0.451   2.298   0.472 -0.1086 -0.2741  0.0324
12888W        W28782   4.945   4.753   0.801  0.0075 -0.2379 -0.2660
12889W        W28783   7.144   2.545  15.203  0.2481  0.3662 -0.4424
12890W        W28784  18.600  11.121   5.444  0.2798  0.3178 -0.1736
12891W        W28785   1.816   9.662   4.471  0.0186  0.0847 -0.2273
12892W        W28786   8.569   9.229   4.089 -0.1360 -0.3249  0.0474
12893W        W28787   5.380  13.737  11.725 -0.2110  0.0516  0.0937
12894W        W28788   1.620  15.287   0.621  0.1844 -0.2288 -0.0632
12895W        W28789   2.328  16.789   0.268  0.1757 -0.0361  0.0066
12896W        W28790   4.276   4.244  12.272 -0.1330 -0.1007 -0.4241
12897W        W28791   5.154   5.189   5.133  0.0839  0.1386  0.0667
12898W        W28792   2.229  12.658   0.399  0.0979 -0.1516  0.1841
12899W        W28793  15.247  17.398   3.603 -0.2396 -0.2203  0.0357
12900W        W28794  16.763  12.669  14.189  0.0244 -0.2724  0.0571
12901W        W28795  11.014   0.462  13.180  0.0240 -0.0225  0.0963
12902W        W28796  10.329  10.621   4.595 -0.2028 -0.5603 -0.1935
12903W        W28797   8.329  17.395   2.054  0.1396  0.1809 -0.0865
12904W        W28798   1.309   5.722  12.384 -0.1088  0.2554  0.1068
12905W        W28799   1.499   8.778  12.521 -0.3495  0.2624  0.1465
12906W        W28800   2.369   9.744   1.936  0.1206  0.1363 -0.0257
12907W        W28801  11.817  15.049   5.677  0.1705 -0.0904  0.0379
12908W        W28802   5.814   0.996   2.002 -0.0031  0.0935  0.1267
12909W        W28803  11.343   8.439   5.167  0.1495 -0.0270 -0.2187
12910W        W28804  17.369  11.639  13.606  0.0030 -0.0683 -0.0779
12911W        W28805   4.152  18.178   5.228  0.2397 -0.0358 -0.0459
12912W        W28806   5.435   7.248  10.211 -0.2363 -0.0198 -0.0365
12913W        W28807   4.349  10.147   2.422  0.1618  0.0774  0.2261
12914W        W28808   8.293  15.304   2.915  0.0831  0.0684 -0.1233
12915W        W28809   2.888  16.143  14.825 -0.2066  0.0049  0.0458
12916W        W28810  14.845   8.503  12.552  0.4558  0.1179 -0.1487
12917W        W28811  13.568   6.004   4.873 -0.2599  0.0578 -0.0359
12918W        W28812  11.792  12.613   6.198 -0.0247  0.0346  0.1160
12919W        W28813  17.265  10.228   5.237  0.1144  0.0070 -0.1480
12920W        W28814  11.643   2.919  12.625 -0.0796  0.1378  0.0511
12921W        W28815   2.055  15.883   9.994  0.1171 -0.0602 -0.1280
12922W        W28816  18.176  15.479  14.214 -0.3337  0.1249 -0.1288
12923W        W28817   0.240   5.847  14.500  0.0066  0.3450 -0.2447
12924W        W28818   1.410  12.514  13.426  0.0665  0.3550  0.1015
12925W        W28819  13.917  15.199  12.814 -0.2318  0.4272  0.0678
12926W        W28820   4.221   7.522   2.800 -0.0168  0.3677 -0.0063
12927W        W28821   0.029   0.446   4.404 -0.0549  0.2085 -0.0805
12928W        W28822  14.972   5.961   2.919  0.0856  0.1448 -0.0368
12929W        W28823  15.816   7.891   5.517  0.0261  0.0526  0.1648
12930W        W28824   5.917   7.858   0.113  0.0374  0.4278  0.2058
12931W        W28825   3.768   8.073  13.966 -0.1120 -0.0489  0.1807
12932W        W28826  15.195   2.621   5.182 -0.1553  0.2202  0.1149
12933W        W28827   2.727  16.112   4.504 -0.1149  0.0115  0.3729
12934W        W28828   2.139  12.954  11.726  0.0660  0.2746  0.1473
12935W        W28829   5.346   6.551  11.855  0.1278  0.0604 -0.0918
12936W        W28830  15.479   6.318  12.093  0.0717 -0.6106  0.2208
12937W        W28831   0.460   9.715   0.293 -0.2717 -0.2583  0.0700
12938W        W28832   7.772   9.916  15.433 -0.1935 -0.0264 -0.0450
12939W        W28833  16.665   5.371   1.289 -0.2042  0.1127  0.0819
12940W        W28834  15.892  12.237  13.591 -0.1753  0.0500 -0.0486
12941W        W28835   2.802  10.608  14.827 -0.1200 -0.0244  0.2118
12942W        W28836   6.886   1.810   0.058 -0.2493  0.1954  0.0590
12943W        W28837   9.785  15.555  15.257 -0.2171 -0.0892  0.0617
12944W        W28838  17.411  15.006  12.029 -0.0988  0.2386  0.0688
12945W        W28839  15.912  11.914  13.228 -0.2746  0.2076  0.2409
12946W        W28840   8.698   3.130   3.917  0.0555  0.1192  0.2397
12947W        W28841   3.217   1.951  12.650 -0.0270  0.0973 -0.1639
12948W        W28842   2.190   1.233   0.073 -0.1723 -0.0361  0.1399
12949W        W28843   0.756  16.590   1.512 -0.1953 -0.3648  0.3703
12950W        W28844   8.194  11.818   3.272 -0.1404 -0.0163  0.2108
12951W        W28845   9.396   2.096   3.810 -0.1251  0.3964  0.0438
12952W        W28846  14.162  15.629  12.815  0.1603  0.2593 -0.1019
12953W        W28847   4.799   5.550   0.534  0.0270 -0.0400  0.1324
12954W        W28848  11.344   9.665  11.970  0.2125  0.2698  0.2392
12955W        W28849   9.168   0.001   2.540  0.2202  0.0877  0.3124
12956W        W28850  10.120  14.743   4.031 -0.0195  0.2711 -0.2051
12957W        W28851  16.730   4.662  13.251  0.0086 -0.0556  0.1540
12958W        W28852  15.734   6.600   5.534  0.1262 -0.0148 -0.0888
12959W        W28853   5.195   3.768   2.861  0.2176  0.0652 -0.2756
12960W        W28854  11.388  16.821   2.943  0.0616  0.4184 -0.2109
12961W        W28855  14.188  18.038   0.082  0.1550  0.0006 -0.0553
12962W        W28856   0.101   7.448   1.178  0.1039 -0.4185  0.0674
12963W        W28857  17.920   8.093   3.506 -0.2070  0.3845 -0.1113
12964W        W28858   4.784   0.269   2.324  0.0768 -0.0482  0.1455
12965W        W28859   1.905  12.396   1.817 -0.0377 -0.3451  0.0816
12966W        W28860  18.365  13.332   5.284 -0.1668  0.1018  0.0029
12967W        W28861  10.548  17.023   5.266 -0.2471 -0.1115 -0.1329
12968W        W28862   8.677   9.943  13.348 -0.3527 -0.0794  0.0387
12969W        W28863   3.198  18.055   2.586  0.1788  0.2103 -0.1719
12970W        W28864  14.748   3.788   5.810  0.0899 -0.1811  0.2184
12971W        W28865   8.880  10.217   2.105 -0.0206 -0.0705 -0.0546
12972W        W28866   1.335   6.721  11.368  0.1523 -0.0599 -0.3295
12973W        W28867   0.228  11.719  15.163 -0.0439  0.0146  0.1472
12974W        W28868  11.144   1.612   1.005 -0.2883 -0.1949 -0.1952
12975W        W28869  17.492   9.571   3.706  0.0347 -0.1780  0.0597
12976W        W28870  11.772   6.569   5.619  0.0140  0.3673 -0.2863
12977W        W28871  12.451   3.871  14.851 -0.0772  0.2072  0.0210
12978W        W28872   6.427   9.247   2.930 -0.5509  0.0044  0.1106
12979W        W28873  10.332   9.129  11.430 -0.0712 -0.1448 -0.4557
12980W        W28874   1.244   2.278   3.172 -0.2561  0.0715  0.0311
12981W        W28875   4.943   7.351   1.723 -0.0294 -0.1137  0.0434
12982W        W28876   3.236   6.559   4.922  0.1855  0.1232  0.2590
12983W        W28877   0.879   9.173  14.037 -0.1031 -0.1637 -0.2728
12984W        W28878   4.094  11.697  13.886  0.2346 -0.3117  0.2515
12985W        W28879   1.726  12.450  12.548  0.5149 -0.0735  0.3067
12986W        W28880  14.662  16.685  14.493  0.1557 -0.0586 -0.0256
12987W        W28881   5.366  11.567  11.027 -0.0933  0.1909  0.0756
12988W        W28882  13.597   0.782   2.011  0.1671  0.2221 -0.1375
12989W        W28883   8.516  15.309   5.604  0.0497  0.0950 -0.2072
12990W        W28884   6.825   1.653  10.941 -0.4056  0.0851 -0.2941
12991W        W28885   4.365  11.998  12.384 -0.1375  0.2132 -0.1131
12992W        W28886   4.685   9.226  13.439 -0.2398  0.0495  0.2502
12993W        W28887   7.555   2.209  11.923  0.2986  0.0540 -0.0032
12994W        W28888   5.729  18.012  12.711  0.0393  0.2754  0.0049
12995W        W28889  11.725  17.358   0.951  0.1314 -0.2175  0.0529
12996W        W28890  15.748   9.539  10.766 -0.1840  0.1636 -0.1267
12997W        W28891  10.009  17.437   4.512  0.0136 -0.3841 -0.1264
12998W        W28892   2.249  10.553  14.871  0.1945 -0.0137  0.0137
12999W        W28893   6.879   1.445   0.385  0.1197 -0.3128  0.1199
13000W        W28894  17.682   5.634   3.361  0.3961  0.0223  0.1376
13001W        W28895  10.730   4.103   0.281  0.1460 -0.0799  0.1934
13002W        W28896   8.575  11.630  12.498 -0.1328 -0.1922 -0.3430
13003W        W28897  15.279   4.101  11.367 -0.1008  0.0634  0.0743
13004W        W28898   4.916  12.434   1.401 -0.2653  0.1176  0.0349
13005W        W28899   9.911  11.882  13.896 -0.2508  0.2839 -0.1035
13006W        W28900   1.731   8.521  14.854 -0.1430 -0.0236  0.0761
13007W        W28901   3.308  15.349   1.612 -0.0483 -0.3496  0.2429
13008W        W28902   8.887   6.164  13.521 -0.1325 -0.0357  0.0291
13009W        W28903  15.319  18.636  12.033 -0.0751  0.1236  0.1335
13010W        W28904   2.563  18.387  11.384  0.1113  0.0515  0.2227
13011W        W28905  10.565  16.693   2.346 -0.4395  0.0936 -0.0600
13012W        W28906  10.599   1.405  15.377  0.2107  0.0312  0.4334
13013W        W28907  13.836  14.648  14.507  0.0465 -0.1781  0.0574
13014W        W28908  15.203  12.015   2.838 -0.1867  0.0101  0.2324
13015W        W28909   6.385  17.416   4.427  0.0185  0.0819  0.1613
13016W        W28910  15.503   2.959   2.064 -0.1814 -0.1047  0.0298
13017W        W28911   3.807  10.228  14.049 -0.1549 -0.1462  0.0092
13018W        W28912   7.187  18.523   3.827 -0.0908 -0.2156 -0.1548
13019W        W28913  17.800  10.960  14.039 -0.0460  0.1651 -0.1003
13020W        W28914  14.829   3.496  13.762 -0.0349 -0.2761 -0.0270
13021W        W28915   3.174  17.840   4.843 -0.1818  0.0218  0.1899
13022W        W28916   8.047   9.974   1.952 -0.0472 -0.1665  0.2370
13023W        W28917   3.565   0.301   5.024 -0.2000  0.4193 -0.2939
13024W        W28918  13.327   5.585   0.622 -0.0416 -0.0759  0.1969
13025W        W28919   3.504   5.591   4.499  0.1833  0.1825  0.2414
13026W        W28920   3.026  15.283  13.644  0.0162  0.0402  0.3126
13027W        W28921   2.932  13.047  15.608  0.0495  0.0886 -0.0975
13028W        W28922  16.667   6.878  15.058  0.2822  0.0452 -0.1424
13029W        W28923  13.301  15.534  12.253 -0.1152 -0.3489  0.1082
13030W        W28924   9.297  11.312   0.680  0.1256 -0.4437 -0.0010
13031W        W28925   6.691  18.433   3.180 -0.2496 -0.0494 -0.3327
13032W        W28926  14.064   6.721  14.050 -0.0153 -0.0608  0.3711
13033W        W28927   4.715  10.861   2.186  0.0390 -0.4422  0.3848
13034W        W28928  10.222  12.857   4.886  0.2441 -0.0739 -0.1839
13035W        W28929   3.328  13.476  13.596 -0.5893 -0.1395  0.0200
13036W        W28930   0.536  12.065   3.377  0.1096  0.0844 -0.1715
13037W        W28931   1.008  12.431   2.494  0.0759 -0.0027 -0.2688
13038W        W28932  14.646   5.443   5.512 -0.4573  0.0437 -0.1003
13039W        W28933   2.252   2.989  15.365 -0.1296  0.0264  0.0966
13040W        W28934   1.439  14.839   0.810 -0.1911  0.0432  0.2728
13041W        W28935  15.473   9.792   1.668  0.0549 -0.0494  0.3857
13042W        W28936  15.056  14.855   6.057  0.0427 -0.4195  0.0449
13043W        W28937  10.122   7.373  14.724 -0.0764  0.0181 -0.1014
13044W        W28938   7.456   7.444   2.028  0.0008  0.1283 -0.0906
13045W        W28939  10.929  16.673  11.603  0.3373  0.2723  0.2080
13046W        W28940   1.807   8.778   2.432  0.2041 -0.0832  0.0486
13047W        W28941   5.983  15.079   0.315 -0.0158  0.1442  0.2247
13048W        W28942  13.340  18.069  15.292  0.0966 -0.2059 -0.0914
13049W        W28943  14.320  13.855  13.084  0.1772  0.2381  0.4744
13050W        W28944  14.463  10.176   1.331 -0.2319 -0.1172  0.1193
13051W        W28945  17.976   1.829   1.896  0.0682 -0.1561 -0.1232
13052W        W28946  17.875  12.640   3.974  0.1785 -0.1013  0.0184
13053W        W28947  16.574  18.272   4.416  0.3941  0.0103 -0.1236
13054W        W28948   5.361   3.226  14.489 -0.2904 -0.3564  0.0026
13055W        W28949   3.331   3.073   1.095 -0.1298  0.0756 -0.1059
13056W        W28950  12.485   1.122  13.912  0.1253 -0.0122 -0.1726
13057W        W28951   1.499  16.165   1.542  0.1359 -0.1401  0.3924
13058W        W28952  12.067   2.964   5.637  0.0599 -0.2777 -0.1202
13059W        W28953   4.776   6.231  13.383 -0.2328  0.0628  0.4369
13060W        W28954   9.325   9.952  11.784  0.2202  0.0393 -0.0161
13061W        W28955  18.423  14.456   2.031  0.0742  0.0185  0.0665
13062W        W28956   3.162  16.585   2.555 -0.1896  0.1352 -0.0827
13063W        W28957  15.782   8.029  15.020  0.1035 -0.0844  0.0676
13064W        W28958  13.435   7.276   2.062 -0.0452  0.0011 -0.2153
13065W        W28959   4.951   7.428   2.737  0.1916 -0.1057  0.0800
13066W        W28960  15.689   1.495   2.217 -0.1094 -0.1765  0.2172
13067W        W28961  11.174   5.002   2.527  0.4988  0.3123  0.0738
13068W        W28962   9.352  15.318   4.454 -0.1884 -0.2091  0.1207
13069W        W28963  16.117   3.450   0.835 -0.2567  0.2090 -0.1927
13070W        W28964  16.436   5.925  11.279 -0.2919 -0.4359 -0.1021
13071W        W28965   4.356  10.871  10.801  0.1627  0.1566 -0.1071
13072W        W28966  17.779   0.483  11.692  0.2641  0.0565  0.0026
13073W        W28967  13.380   5.961  12.875  0.4021 -0.2590 -0.1852
13074W        W28968   6.090  15.836  11.297 -0.0132  0.0809 -0.0611
13075W        W28969  12.274   4.601   0.839 -0.1275  0.0717 -0.2068
13076W        W28970  11.641   2.455  13.526  0.1183  0.2812  0.1142
13077W        W28971   5.038   1.061   2.708  0.1054 -0.0225 -0.0271
13078W        W28972  12.969   7.403  12.731 -0.0351  0.2117 -0.0110
13079W        W28973  16.912  14.241   0.704 -0.1471  0.0440 -0.0796
13080W        W28974  17.362  16.600  10.355 -0.0171 -0.3449 -0.2130
13081W        W28975   8.411  18.151   2.156 -0.0432  0.3742 -0.1918
13082W        W28976   0.416   2.701   3.159 -0.0121  0.0598 -0.0216
13083W        W28977  12.014  15.675   0.629  0.1546  0.1040  0.1214
13084W        W28978  13.814   0.773  12.834  0.3132  0.0186 -0.5313
13085W        W28979  15.672   1.312   0.515  0.3168  0.2307  0.0926
13086W        W28980  14.955  15.995  13.934  0.0168 -0.1833 -0.4368
13087W        W28981   3.936  11.949  13.023 -0.0951 -0.3089 -0.0819
13088W        W28982  13.647  17.903  12.201 -0.1552  0.4174  0.2772
13089W        W28983   0.854  12.933   3.223  0.0695  0.0150  0.2749
13090W        W28984   3.315  12.125   2.535 -0.5053 -0.2364  0.1398
13091W        W28985   4.390  18.487  15.132 -0.1444 -0.1757 -0.1599
13092W        W28986   3.973   3.310  11.330  0.2374 -0.1634  0.2950
13093W        W28987  17.362   5.955   1.251  0.2661 -0.1260  0.0872
13094W        W28988  17.679   5.897  14.496  0.0891 -0.0729  0.4040
13095W        W28989  16.442  13.222   5.300  0.3651  0.0043  0.1356
13096W        W28990  14.426   6.105   4.131  0.2646 -0.2972  0.0605
13097W        W28991  17.034  18.452  13.841  0.1227 -0.2007 -0.0356
13098W        W28992  16.979   8.120  11.277 -0.0031 -0.0499  0.1973
13099W        W28993   6.424  16.073   1.386  0.1144 -0.1077 -0.0404
13100W        W28994   6.087   5.969  15.069  0.0478  0.2596 -0.1723
13101W        W28995   1.294  10.125   2.622  0.0123 -0.0509 -0.1999
13102W        W28996  13.167   7.497   0.929  0.2314  0.1553  0.0706
13103W        W28997  10.547  10.282   2.799 -0.2234  0.1942  0.3109
13104W        W28998  15.462   1.181   4.093  0.1692  0.3496  0.4993
13105W        W28999  12.919   3.955   1.160 -0.1995 -0.2109 -0.1245
13106W        W29000   3.624   9.141   5.419 -0.0283 -0.1101  0.0411
13107W        W29001   7.989  15.800  12.133  0.0675 -0.1881 -0.4135
13108W        W29002   2.493   8.010   4.411  0.1379 -0.1249 -0.0677
13109W        W29003   9.731   6.542  11.430  0.0581 -0.2641 -0.2202
13110W        W29004  11.493   2.711   1.691 -0.1667  0.1380 -0.4064
13111W        W29005  10.841  13.341  11.719 -0.1081 -0.1258 -0.3656
13112W        W29006   8.771   4.934  14.939 -0.1703 -0.1670  0.0689
13113W        W29007   0.459   5.136  12.781 -0.2048 -0.0328  0.3083
13114W        W29008   5.408   9.718  14.436  0.0084  0.3512  0.1380
13115W        W29009   0.493  17.029   4.903  0.0925 -0.3686  0.1921
13116W        W29010  17.515   8.331   3.648 -0.4478  0.3537  0.0888
13117W        W29011   9.521   0.934  11.476 -0.1514 -0.3067 -0.1384
13118W        W29012   7.634  10.880  15.266  0.3723  0.1227 -0.2519
13119W        W29013  17.040  14.186  12.255 -0.0707 -0.1148 -0.3781
13120W        W29014   5.362   5.466  13.473 -0.1727 -0.2907 -0.0123
13121W        W29015  16.656   4.517  11.496 -0.3139 -0.0630 -0.1979
13122W        W29016   4.359   2.792   3.062  0.2288 -0.0547 -0.1740
13123W        W29017   8.747  14.502   4.974 -0.0618  0.0602 -0.0358
13124W        W29018  12.150   0.943  13.002 -0.0234 -0.2261  0.2633
13125W        W29019  16.682  12.146  15.354 -0.3518 -0.4160  0.1160
13126W        W29020  12.884   9.402   4.538  0.0994 -0.2262  0.1248
13127W        W29021   8.580  12.245   3.119 -0.1332 -0.0745 -0.0217
13128W        W29022   3.754   1.684   3.990 -0.0149  0.3542 -0.2287
13129W        W29023  13.096   1.460  10.604 -0.0793 -0.2257  0.0110
13130W        W29024   9.680   0.529   1.739  0.2810 -0.0957 -0.0197
13131W        W29025   0.161  14.873  15.283  0.5559  0.1283 -0.1884
13132W        W29026   6.505   7.511   1.373  0.2401 -0.0260 -0.1027
13133W        W29027  15.007  13.175  13.545 -0.1555  0.2379  0.0030
13134W        W29028  15.944   0.161   4.016  0.0696  0.0618  0.1844
13135W        W29029  17.368  12.732  12.244  0.1461 -0.0709 -0.0510
13136W        W29030   2.598   4.569  12.278  0.2672  0.0611 -0.1135
13137W        W29031  15.920  10.392   4.773  0.1552  0.1900 -0.1641
13138W        W29032   2.094  11.672  13.690  0.0120 -0.0371  0.0689
13139W        W29033   8.030  17.387   3.745  0.2167  0.0719 -0.3054
13140W        W29034   1.532   8.861  11.160 -0.0834  0.3996 -0.0687
13141W        W29035   0.731   5.145   3.303  0.0152  0.1027 -0.1520
13142W        W29036  10.188  17.107  13.032 -0.1335 -0.1012  0.2109
13143W        W29037   5.764   9.596  10.611  0.0864  0.1402  0.1574
13144W        W29038  18.712  18.257   4.669  0.2216  0.1611  0.2557
13145W        W29039   8.025  13.324  15.497 -0.0359  0.0075  0.3831
13146W        W29040  17.620   6.017  12.644 -0.0388 -0.2464  0.0524
13147W        W29041  10.468   9.967  15.394  0.4365 -0.0961 -0.2827
13148W        W29042   6.672  16.334  11.183  0.4846  0.3563  0.0635
13149W        W29043  17.361  15.226   1.679 -0.3189 -0.0389 -0.0416
13150W        W29044  11.625  16.564  14.842 -0.1221  0.0377  0.2878
13151W        W29045  14.340  11.687  11.804  0.3308  0.3934 -0.3467
13152W        W29046  13.443  13.394   3.965 -0.0428  0.0928 -0.0150
13153W        W29047  12.468   6.256  13.179 -0.0142 -0.0140 -0.1851
13154W        W29048   5.404  12.158  14.317  0.1187 -0.0213  0.0873
13155W        W29049   2.673   2.016  11.527  0.0652 -0.3122  0.1223
13156W        W29050  17.520   4.658  11.804 -0.0846  0.0505 -0.1456
13157W        W29051   5.315   5.196   2.763 -0.2390 -0.2174 -0.0560
13158W        W29052  10.542  17.702  11.487  0.3619 -0.1404 -0.2547
13159W        W29053   4.586   6.041   2.083  0.1439  0.0220  0.2288
13160W        W29054  14.072   5.081   2.452 -0.0156  0.1228  0.2632
13161W        W29055   0.723  17.958  11.121 -0.0903 -0.0219 -0.1330
13162W        W29056   2.044   6.653   3.371 -0.0299  0.2025  0.0104
13163W        W29057   8.825   1.333  11.096 -0.0613  0.0133  0.0654
13164W        W29058  18.016  14.560   2.995 -0.2281  0.0199 -0.1493
13165W        W29059  14.607   1.325   4.173  0.2394 -0.1616  0.0916
13166W        W29060   1.031   6.898  11.872 -0.0658 -0.1814 -0.1289
13167W        W29061  13.812  10.900  13.636 -0.0711 -0.1050  0.0795
13168W        W29062  10.407  15.116  11.561 -0.3888 -0.3929 -0.4720
13169W        W29063  14.765  14.102  13.180  0.0541  0.2042  0.0009
13170W        W29064   2.407  16.622  12.792 -0.0606 -0.1146 -0.3277
13171W        W29065  12.140   4.339   1.541  0.0874  0.1000  0.1762
13172W        W29066  15.037   2.599  11.698  0.0731 -0.1175 -0.0920
13173W        W29067   3.982   0.806  12.338 -0.2143 -0.3955  0.1070
13174W        W29068  10.019   4.748   2.924  0.0782  0.3861  0.0242
13175W        W29069   3.039   1.320  15.248  0.0856  0.0300  0.1711
13176W        W29070  12.909   9.688   1.541  0.0727 -0.0934 -0.0383
13177W        W29071   1.710   2.301   1.871  0.1034 -0.2715 -0.0111
13178W        W29072   5.881  11.351   4.696 -0.0100 -0.0110  0.1720
13179W        W29073  12.520   4.714  12.894 -0.0979  0.1232 -0.3214
13180W        W29074  10.500  12.453   1.551  0.2663  0.0408  0.0927
13181W        W29075  15.288  16.651  14.620 -0.2172  0.0016  0.0849
13182W        W29076   2.986  15.745   2.188 -0.0957  0.2233 -0.0775
13183W        W29077   6.529  13.657  15.359 -0.0006 -0.2307  0.1332
13184W        W29078   9.434   4.434  11.701 -0.3570  0.0239 -0.0129
13185W        W29079  17.306  15.250   4.173 -0.0903  0.0076  0.0082
13186W        W29080   4.424   0.608   1.106 -0.0103  0.0189  0.1034
13187W        W29081   3.831   9.652   4.649 -0.1762  0.2495  0.2644
13188W        W29082  14.441   0.426   4.484  0.1340  0.0211  0.2907
13189W        W29083  14.830   3.774   0.724 -0.1491 -0.0794  0.0165
13190W        W29084   7.301  13.124   0.408 -0.2354 -0.0413  0.0230
13191W        W29085  15.404   3.029   1.519  0.2366  0.1130 -0.2232
13192W        W29086   2.265  17.894   2.517  0.0564 -0.2447  0.0765
13193W        W29087  11.411   6.070  15.102  0.0240 -0.0902  0.0544
13194W        W29088  17.327  15.042   3.576  0.2147 -0.0001  0.2156
13195W        W29089   2.776   6.179  14.463  0.1401 -0.2298 -0.2643
13196W        W29090   5.040  17.395  11.603 -0.1419 -0.1393 -0.0224
13197W        W29091   9.093   7.546   4.323  0.0636  0.1646 -0.1709
13198W        W29092  15.957   1.314  12.675 -0.1398 -0.0226  0.1999
13199W        W29093   5.466  17.958  10.073 -0.2407  0.0612 -0.2305
13200W        W29094  10.308   4.216   1.554  0.1358  0.3520  0.0828
13201W        W29095   3.709   9.732   0.679 -0.1299 -0.0784  0.3491
13202W        W29096  13.732  14.010   5.643 -0.2514  0.1861  0.0215
13203W        W29097   7.965  10.278   4.574  0.3225  0.0657  0.0072
13204W        W29098   6.011  18.704  11.155 -0.0532 -0.0335 -0.1752
13205W        W29099  12.666   0.502   4.971 -0.1696  0.2433  0.1732
13206W        W29100   3.530   6.264   1.230  0.0057  0.2410 -0.1164
13207W        W29101   2.032  12.379  14.653  0.1702 -0.2601  0.0378
13208W        W29102   3.424  17.178  14.920  0.3708  0.1847 -0.2942
13209W        W29103   1.959   3.551   1.523  0.2435 -0.1705 -0.0478
13210W        W29104  13.304  13.751   2.110  0.1447  0.0327  0.1696
13211W        W29105  10.886   7.458  12.743  0.1913  0.0905 -0.0366
13212W        W29106  11.189  16.048  12.255 -0.0198  0.1150 -0.0601
13213W        W29107   8.771  11.368  10.790  0.0165  0.0276  0.2211
13214W        W29108  15.822  17.619   4.666  0.0561  0.1119  0.2667
13215W        W29109  12.344   9.323   2.039  0.0449 -0.1015 -0.0143
13216W        W29110  16.373  17.910  14.059 -0.0607 -0.2071 -0.0002
13217W        W29111   1.518  14.360   3.417  0.1997 -0.3002 -0.0958
13218W        W29112  13.327   9.485  13.590 -0.1036 -0.0551 -0.2215
13219W        W29113   2.583   6.748   3.983  0.0813  0.1650  0.2026
13220W        W29114   0.204   0.352  14.441 -0.0805 -0.1487  0.1964
13221W        W29115  17.251  13.936   4.390  0.1861 -0.0442  0.3656
13222W        W29116   0.668   0.356   1.660  0.3073 -0.1900 -0.2100
13223W        W29117  12.621   0.090   0.279  0.0368  0.2429 -0.2759
13224W        W29118  12.885   9.023   3.623  0.0988 -0.1628 -0.0504
13225W        W29119   8.180  12.239  14.834 -0.0181 -0.0279  0.1688
13226W        W29120  11.942   5.497  15.257  0.0966 -0.1253 -0.3803
13227W        W29121  17.827   5.006   5.640  0.0560 -0.0429  0.0578
13228W        W29122   9.353  17.145  12.894  0.1024  0.0920  0.0844
13229W        W29123   1.411  12.332  13.903 -0.1060  0.2048  0.1190
13230W        W29124   7.593  17.460   0.267 -0.0578  0.0737 -0.1937
13231W        W29125   2.499   8.013   1.450 -0.2980  0.0373 -0.0024
13232W        W29126   9.954  12.811   4.279  0.2295 -0.0051 -0.0494
13233W        W29127  12.147  17.201  12.621 -0.0518  0.0445 -0.2016
13234W        W29128  13.814  16.106  14.030 -0.1464 -0.0355 -0.0508
13235W        W29129   9.176   9.644   4.522  0.1266 -0.1030 -0.1819
13236W        W29130   7.975   7.952  12.000 -0.0679 -0.1333  0.0381
13237W        W29131  16.871   4.576   3.924  0.0776 -0.0564  0.0349
13238W        W29132  11.654   6.287   6.006 -0.1509  0.2228  0.3807
13239W        W29133  17.245   9.544   1.817 -0.2305 -0.2738  0.1397
13240W        W29134  15.591  10.190  15.004 -0.1644  0.1488 -0.2082
13241W        W29135   0.578  17.502  13.203  0.1024 -0.2612  0.1099
13242W        W29136  11.086  16.402   0.070  0.3104  0.2437  0.2084
13243W        W29137   4.344   1.393  15.526 -0.0209 -0.1146  0.1674
13244W        W29138   2.193   4.378   2.804 -0.2958 -0.0963  0.2328
13245W        W29139   5.095  12.466   1.883 -0.0290 -0.0750  0.1717
13246W        W29140   0.903  10.114  13.396  0.0295 -0.1623 -0.1632
13247W        W29141   2.704   6.719  13.237 -0.1363  0.1894  0.0284
13248W        W29142  14.744   4.686  11.750  0.4074  0.0951  0.0611
13249W        W29143   3.722   4.915   9.849 -0.0797  0.3086 -0.2929
13250W        W29144   7.232   2.066  15.391 -0.0959  0.1767 -0.0945
13251W        W29145   0.888   5.500  12.849 -0.0966  0.1381 -0.0455
13252W        W29146  16.964   4.243  13.430  0.0649 -0.1976  0.0556
13253W        W29147  15.365  14.517   2.151 -0.4463  0.0127 -0.1800
13254W        W29148   6.624   4.642   5.427  0.1860 -0.3186 -0.0184
13255W        W29149  10.073   3.943   3.613 -0.0716 -0.0322 -0.0707
13256W        W29150   0.358   6.241   2.658  0.0701  0.0423 -0.0499
13257W        W29151   4.980  18.288  15.363 -0.2094 -0.2930 -0.1608
13258W        W29152  13.070  16.481  11.913  0.0992  0.0688  0.4040
13259W        W29153  17.327   6.281  11.801  0.0425  0.0172 -0.1972
13260W        W29154   4.628  10.391  12.739  0.1403 -0.0416 -0.0850
13261W        W29155  16.292  10.847  11.551  0.1310 -0.0181 -0.2351
13262W        W29156  18.347   7.684   5.553 -0.1076 -0.0419  0.1147
13263W        W29157   9.817   0.039   3.870 -0.0531 -0.0891  0.3455
13264W        W29158  15.328   1.458   9.769  0.1437 -0.3023 -0.3401
13265W        W29159   2.578   1.902   5.133  0.0637 -0.0015 -0.1098
13266W        W29160   6.542   9.951   3.773  0.0741  0.0094 -0.0218
13267W        W29161   8.103  15.855   3.605  0.3050  0.1141  0.0384
13268W        W29162  14.251  16.566   3.723  0.0849  0.1129 -0.0650
13269W        W29163   1.563  15.562  11.054  0.1778 -0.0429  0.0277
13270W        W29164   7.206   6.365   4.740 -0.3010 -0.3500 -0.0208
13271W        W29165  17.534  10.156  12.261 -0.1616  0.0662  0.0147
13272W        W29166  10.812   3.117  15.182  0.2202 -0.0015  0.3152
13273W        W29167  13.152   7.444  15.597  0.1617 -0.1901  0.1681
13274W        W29168  18.154   3.969   3.712  0.1174 -0.2206 -0.2419
13275W        W29169  13.323   6.114  13.945  0.1173  0.0902  0.1973
13276W        W29170  14.148   8.334   3.818  0.1760 -0.1253  0.0479
13277W        W29171   1.821   0.646  10.910  0.4357 -0.0312  0.0721
13278W        W29172  15.474   3.519   1.646  0.1821  0.1031 -0.0735
13279W        W29173   7.360   8.418  12.427  0.3435 -0.0723  0.1030
13280W        W29174   2.752   9.041  10.405 -0.1836  0.0483  0.2149
13281W        W29175  12.517  11.463   4.569  0.2821 -0.0539  0.2569
13282W        W29176  10.023   1.042  11.537 -0.1488  0.1130  0.3318
13283W        W29177  12.408  11.941   1.006  0.0138  0.1089 -0.0937
13284W        W29178  17.577  13.585   4.097 -0.4040 -0.2255  0.0286
13285W        W29179   4.194  17.926   9.867 -0.1742  0.1710  0.1134
13286W        W29180  14.038   0.128   1.465 -0.1067 -0.2710 -0.3558
13287W        W29181   2.767   9.073  11.875  0.0664 -0.2846  0.3691
13288W        W29182   1.191  18.447  15.064 -0.2700 -0.1603 -0.1526
13289W        W29183   0.246  12.790  13.921 -0.2145  0.3509  0.0698
13290W        W29184  11.600  13.027   0.257  0.0580 -0.2642  0.2734
13291W        W29185   1.240   1.230   0.515 -0.1522  0.1859  0.1019
13292W        W29186  14.853  15.621  12.221 -0.1423  0.2023 -0.1763
13293W        W29187   2.080  18.336  10.109 -0.2684 -0.1099 -0.0641
13294W        W29188  10.838  17.452   0.021 -0.3978 -0.1170  0.1490
13295W        W29189  16.280  15.259  13.560  0.3677 -0.0173  0.0821
13296W        W29190   2.047   1.682  13.399 -0.2743 -0.1484  0.1406
13297W        W29191  15.442   0.151  13.825 -0.0560  0.0876 -0.0086
13298W        W29192   0.789   9.284   5.466  0.2001  0.1071  0.0412
13299W        W29193  12.769   7.715   0.627  0.0845 -0.0992 -0.3694
13300W        W29194  17.712   5.794  13.956 -0.3023  0.0892 -0.2702
13301W        W29195   7.671  11.292  13.393 -0.3089 -0.1458  0.0611
13302W        W29196   7.968   3.140  12.351  0.3564  0.0589  0.2668
13303W        W29197   9.787  15.275  14.262 -0.0588  0.0026 -0.2703
13304W        W29198   7.422  11.065   3.507  0.1855 -0.2146 -0.5944
13305W        W29199   9.379  10.926   4.957 -0.2510  0.0061  0.2122
13306W        W29200  14.961  12.361   3.135  0.0383 -0.1500 -0.2561
13307W        W29201   3.131   3.275   4.583 -0.0544  0.1769 -0.2198
13308W        W29202   0.241   9.984  12.561  0.2081  0.0668  0.1914
13309W        W29203  16.338   0.331  13.292 -0.2363 -0.1690 -0.1850
13310W        W29204   4.467   0.296  15.176  0.0364  0.1229 -0.1967
13311W        W29205   0.577  17.697   0.805  0.1279  0.1437 -0.3043
13312W        W29206   1.596  12.966   2.655  0.3411 -0.2817  0.3340
13313W        W29207   9.849  11.764  14.496 -0.1125 -0.0199 -0.0306
13314W        W29208  13.901  12.451   3.270 -0.1290  0.1434  0.0299
13315W        W29209  16.751  11.130  11.499  0.0295  0.0725  0.1949
13316W        W29210  10.513   5.270   4.103  0.1832  0.1972 -0.1906
13317W        W29211   4.506  17.273   3.695  0.3513 -0.2156 -0.3110
13318W        W29212   3.792   9.894   4.233  0.1158 -0.2270  0.1255
13319W        W29213   6.548  18.070   2.843  0.0741 -0.2262 -0.0242
13320W        W29214   3.271  14.205  11.157 -0.2247  0.0698 -0.3381
13321W        W29215   6.125   0.265   2.515 -0.1145 -0.0631  0.0754
13322W        W29216  13.405   8.949   4.424 -0.1565  0.2285 -0.1711
13323W        W29217  14.089  12.718   2.293  0.1705 -0.2565  0.0431
13324W        W29218  13.266  16.308  10.975 -0.4321  0.1779  0.0011
13325W        W29219  14.337  10.330  10.165 -0.2085 -0.0704 -0.5247
13326W        W29220   5.122   6.803   4.493  0.1251  0.0789  0.1469
13327W        W29221   8.829  14.223   3.815 -0.0120 -0.0824  0.1754
13328W        W29222  13.105   9.037   4.801 -0.1006 -0.3029 -0.1359
13329W        W29223   7.568   1.539  10.861 -0.0810 -0.0044  0.3686
13330W        W29224  11.783  16.219   1.136  0.1505 -0.1701  0.1909
13331W        W29225   1.865  10.281  13.584  0.2541  0.2332  0.1062
13332W        W29226   0.915  17.816  14.488  0.0299 -0.0853  0.3454
13333W        W29227   3.733   6.165   3.115  0.0139  0.1821 -0.0263
13334W        W29228   2.834   2.306   3.954 -0.1065  0.0123 -0.0400
13335W        W29229   2.963   5.988  14.908  0.1827 -0.0923 -0.4353
13336W        W29230   7.531   5.682   0.259  0.0786  0.0032 -0.0707
13337W        W29231  11.030  14.710   0.736  0.1109 -0.0184 -0.2256
13338W        W29232  10.269   2.782   4.767 -0.0405  0.4693  0.0553
13339W        W29233  18.413  15.885  11.605 -0.1290 -0.0310 -0.2131
13340W        W29234   9.686  14.594  15.617 -0.2678  0.0775 -0.0643
13341W        W29235   5.177   3.989  11.876 -0.0403 -0.0313 -0.1377
13342W        W29236  18.058  12.023  12.612  0.1709 -0.1520 -0.2203
13343W        W29237   2.193  18.519  11.832  0.1406 -0.0255  0.1072
13344W        W29238  15.394  16.267   0.807 -0.2496  0.0797  0.0116
13345W        W29239  18.380   5.092  10.564  0.0628 -0.1745  0.1909
13346W        W29240   3.023   7.586   0.300  0.2847 -0.0947  0.2929
13347W        W29241  15.635   9.896   2.123 -0.0998  0.1992 -0.0577
13348W        W29242   9.216  12.809   3.518  0.1117  0.0452 -0.2859
13349W        W29243   5.501  12.074   2.458 -0.0355 -0.1513 -0.3576
13350W        W29244   2.627  13.990  13.067  0.2400 -0.4816 -0.1779
13351W        W29245  11.875  11.540   1.745 -0.0520  0.0770 -0.2348
13352W        W29246   1.832  18.228  11.726 -0.2889  0.8299 -0.0112
13353W        W29247  15.750  12.575   5.369 -0.0660 -0.2299 -0.2479
13354W        W29248  18.242   0.496  15.373 -0.1584 -0.0917  0.1025
13355W        W29249   5.444   9.147  11.733 -0.1238 -0.0440 -0.3006
13356W        W29250  10.780   7.981   0.735 -0.0291 -0.3565  0.0639
13357W        W29251  17.031  16.167   0.776  0.1700  0.3727 -0.0571
13358W        W29252   3.865  11.197  12.556 -0.2746 -0.0942  0.3439
13359W        W29253   7.845   8.474  13.335 -0.0436  0.3199 -0.4743
13360W        W29254  12.195  17.018  14.240 -0.0136 -0.0024  0.1537
13361W        W29255  10.036   3.756   9.973  0.0577  0.1941  0.2631
13362W        W29256  11.351   1.302  15.511 -0.0513  0.1257  0.0914
13363W        W29257  14.207  14.261   3.835  0.2529  0.0569 -0.3295
13364W        W29258  10.477   2.830   2.522  0.2079  0.1633 -0.3501
13365W        W29259  16.361   4.467   3.862 -0.3288 -0.0861 -0.0525
13366W        W29260  11.699   2.916   2.508 -0.0528  0.1831  0.0568
13367W        W29261  18.111   7.034  14.700  0.1449 -0.0386 -0.1632
13368W        W29262   6.923   5.665   5.261  0.2927  0.0614 -0.1253
13369W        W29263   8.953   0.755   9.563 -0.0530 -0.1567 -0.3720
13370W        W29264  18.004   6.550  15.270  0.0600 -0.0969 -0.0742
13371W        W29265   6.954  10.582   2.441  0.0289 -0.3936 -0.2195
13372W        W29266   4.263  16.982  10.507  0.0354 -0.1274  0.0595
13373W        W29267  16.510   9.364   1.160  0.0845  0.2092  0.1478
13374W        W29268   1.699   6.358  11.836 -0.0431 -0.2295 -0.0917
13375W        W29269   9.014  18.663   0.325 -0.1631 -0.0084 -0.1507
13376W        W29270   5.994   2.063   3.212 -0.2166  0.1731 -0.0678
13377W        W29271  15.189   7.145  11.809  0.1157  0.1409  0.1044
13378W        W29272  12.655  13.236  15.413 -0.0689 -0.2368  0.2078
13379W        W29273  10.789  16.150  13.043  0.1865  0.0073 -0.0225
13380W        W29274  12.769  18.192   1.645  0.0234  0.1302 -0.2764
13381W        W29275  18.627  16.899   2.198 -0.2212  0.0716  0.1102
13382W        W29276  12.131  11.218  11.039  0.0490  0.0058  0.4134
13383W        W29277  14.904   2.556   0.396  0.2242  0.1034  0.0596
13384W        W29278   7.200  15.325  11.699 -0.1075 -0.0713 -0.2732
13385W        W29279   5.298  10.253   0.201 -0.1771 -0.1686 -0.0972
13386W        W29280   2.582   3.026  13.190  0.0275 -0.0517  0.3208
13387W        W29281  11.769   9.019  13.370  0.3656  0.2724  0.0017
13388W        W29282  13.609  14.700   2.062  0.3679 -0.3210 -0.2681
13389W        W29283   8.647  16.249  12.163 -0.3224  0.3591  0.3335
13390W        W29284   4.261   7.700  14.887  0.0467 -0.0846  0.0864
13391W        W29285  17.266   5.775   1.727 -0.1073 -0.1528  0.1693
13392W        W29286  11.016   4.752   2.074 -0.0198  0.0215  0.2285
13393W        W29287   5.825  10.601  13.661  0.0931 -0.0203  0.0869
13394W        W29288   8.817   5.099   0.393 -0.1746  0.2043 -0.2472
13395W        W29289  18.079  16.188   5.779 -0.0022 -0.0743 -0.2122
13396W        W29290  17.711   0.395   2.171 -0.2826 -0.1031 -0.1198
13397W        W29291   1.870  11.922  11.998  0.0709  0.1369  0.0240
13398W        W29292   5.847  11.014   0.735 -0.4468  0.1667  0.1100
13399W        W29293  14.710  15.477   0.878  0.3145  0.2311 -0.0317
13400W        W29294   9.174  10.303  11.427 -0.1709 -0.1254 -0.0460
13401W        W29295  12.975  14.471   0.860  0.2520  0.1064 -0.2661
13402W        W29296   2.722  10.341   3.152  0.0682  0.0926 -0.1131
13403W        W29297   0.036  14.368   1.739 -0.0631  0.1581 -0.3041
13404W        W29298   3.507   8.043  15.274 -0.0604 -0.1420 -0.0640
13405W        W29299  16.381   6.534   0.364  0.0465  0.0513 -0.0409
13406W        W29300  14.285  18.478   1.232 -0.2245 -0.2942  0.0393
13407W        W29301   2.949  12.305  11.142 -0.1266 -0.0968  0.1117
13408W        W29302   6.598  11.795  15.585 -0.1347 -0.0002 -0.0718
13409W        W29303  12.545  10.342  15.476  0.0624  0.1631 -0.0772
13410W        W29304   6.839   9.203   3.538 -0.3778  0.1109 -0.2044
13411W        W29305  12.013   9.165   2.407 -0.0213  0.0017 -0.0449
13412W        W29306   1.976   2.207   0.266  0.1950 -0.1544 -0.2133
13413W        W29307   3.862  10.700   1.345 -0.0259  0.1922  0.1133
13414W        W29308  12.233  12.397  12.260  0.0231  0.0325  0.2291
13415W        W29309   7.992   3.699   4.848  0.0539 -0.1103 -0.2948
13416W        W29310   8.720  10.544  12.705 -0.1293  0.1162  0.0545
13417W        W29311  17.571   7.882  12.989  0.1651  0.0873  0.0758
13418W        W29312   9.734   0.147   0.109  0.0173 -0.0830 -0.1165
13419W        W29313  14.147  10.921   0.848 -0.1284 -0.0608 -0.4213
13420W        W29314   4.695   0.384  10.997  0.0189  0.0167  0.0059
13421W        W29315   6.014  13.822   3.193 -0.2760  0.1417  0.5214
13422W        W29316   7.306   1.044   0.839 -0.1221  0.2291  0.0295
13423W        W29317  17.293   4.017  12.922 -0.5069 -0.0408  0.2832
13424W        W29318  11.309   1.996   4.367  0.2687 -0.0900 -0.1065
13425W        W29319   7.452   3.704   4.768 -0.1840  0.1998  0.0910
13426W        W29320  13.457   5.591  15.158  0.0952 -0.1488 -0.1128
13427W        W29321  11.302  10.851   1.673  0.0930 -0.2632  0.1952
13428W        W29322  12.133  17.610   2.706 -0.0264  0.0260 -0.0833
13429W        W29323   4.120   8.719   4.454 -0.3389 -0.0234 -0.5269
13430W        W29324  15.299   7.376   0.564 -0.0001 -0.1377 -0.1208
13431W        W29325   4.909   2.486   1.132 -0.1979  0.0824 -0.1959
13432W        W29326   3.460  12.983   3.306  0.2483 -0.3008 -0.0735
13433W        W29327  16.077   2.030   5.197 -0.0953  0.0125 -0.4966
13434W        W29328  13.618   0.688   5.518 -0.0739 -0.0512 -0.0858
13435W        W29329  11.461  11.218   3.647 -0.1046  0.1230 -0.0371
13436W        W29330   1.519   7.156   4.696 -0.3003 -0.0303 -0.1307
13437W        W29331   0.354   1.354   0.385  0.1912  0.1276  0.0918
13438W        W29332   3.811  11.455  13.082  0.1181  0.0093  0.0185
13439W        W29333  11.838   9.685  12.874  0.0591 -0.0817  0.0835
13440W        W29334   5.047   5.482   1.350 -0.3994  0.2283  0.0422
13441W        W29335   9.720  13.787  12.372 -0.0457 -0.1237 -0.3043
13442W        W29336  14.179  14.330  14.248  0.4618 -0.0125  0.0411
13443W        W29337  12.327  18.442  15.100  0.2375  0.1519 -0.0058
13444W        W29338  16.338   7.249  15.246  0.2047  0.3820  0.2397
13445W        W29339   3.244  11.670  13.616  0.0762 -0.1183 -0.0494
13446W        W29340  18.255   9.267  12.947  0.3305  0.1118 -0.3181
13447W        W29341  16.230  17.128  15.516  0.0060  0.2535 -0.1405
13448W        W29342  15.041   1.605   1.053 -0.1477 -0.0565  0.3300
13449W        W29343   0.946  17.385  12.317  0.0983  0.0510 -0.1755
13450W        W29344  17.368   1.745  14.184 -0.1110  0.0813  0.3933
13451W        W29345   6.861   9.593   0.591 -0.0922 -0.2529 -0.2873
13452W        W29346  10.020   7.883   3.628 -0.3451  0.2474  0.1545
13453W        W29347  11.855  15.123   1.198  0.1748 -0.1081 -0.1019
13454W        W29348   0.477   5.886  13.434 -0.3262  0.1515  0.1289
13455W        W29349   5.253   7.689   3.831 -0.1765 -0.2526  0.2869
13456W        W29350   8.016   4.997   0.151  0.0297  0.2381 -0.1378
13457W        W29351   8.677   8.099  14.938  0.0079 -0.0596 -0.1708
13458W        W29352   5.477  13.281  13.740  0.2472  0.0272  0.1282
13459W        W29353   6.522   1.366  11.194 -0.0790 -0.0497 -0.4091
13460W        W29354  13.494   8.107   0.294 -0.0200 -0.0218  0.1568
13461W        W29355  18.451  18.072  12.768  0.0291  0.0478  0.2427
13462W        W29356  13.656  14.791  12.344 -0.3481  0.1776  0.3143
13463W        W29357   0.711   9.920   1.172  0.1108 -0.3364 -0.0888
13464W        W29358  11.849   8.016   3.532 -0.0863  0.1026  0.3531
13465W        W29359  13.153   8.943  12.735  0.2068  0.2747  0.4540
13466W        W29360  18.340   5.714   4.206  0.1718 -0.0998 -0.1537
13467W        W29361  11.024   6.088  15.493  0.0837  0.1161 -0.0558
13468W        W29362   1.375  10.388   2.118 -0.1908 -0.1521  0.0657
13469W        W29363  11.663  13.374  10.920 -0.0114  0.2209 -0.0486
13470W        W29364  13.505   1.375   1.705  0.1458  0.0885 -0.3241
13471W        W29365   3.359   4.214  14.138 -0.3259 -0.0114  0.1073
13472W        W29366  11.887   5.751   0.708 -0.1144  0.0154  0.2077
13473W        W29367   9.898   3.010  15.535 -0.1467  0.0809 -0.1239
13474W        W29368   4.742  13.658  15.270  0.4128  0.2084  0.1163
13475W        W29369  15.141   5.019  14.528 -0.1299 -0.1690  0.2266
13476W        W29370   9.191   6.625   4.118  0.1854  0.4710  0.4593
13477W        W29371  15.122   8.582   0.483 -0.0462  0.0311 -0.0476
13478W        W29372   7.224   9.117  12.441 -0.0952 -0.1179  0.2370
13479W        W29373  13.120  17.842  12.997 -0.1036 -0.0214  0.0576
13480W        W29374   0.739  14.749   0.459 -0.1210 -0.2704 -0.0038
13481W        W29375   5.075  15.888   1.797 -0.0150 -0.3079 -0.1761
13482W        W29376  16.922  10.681  11.621  0.1064 -0.0021  0.0293
13483W        W29377   9.606   6.188   2.868  0.1652  0.0349 -0.3032
13484W        W29378   1.493  14.666  12.143  0.0772  0.2581 -0.0977
13485W        W29379   9.057  12.866   2.355 -0.2467  0.2874  0.1677
13486W        W29380   9.074  14.077  15.094  0.0968 -0.1040 -0.0508
13487W        W29381  12.127   4.376   2.422  0.1592 -0.0283 -0.2380
13488W        W29382   1.030   0.052   1.617  0.0311  0.1978  0.0360
13489W        W29383   1.702  18.404   2.913 -0.1276 -0.1867  0.0654
13490W        W29384  14.503   5.254   2.363  0.2110  0.1604  0.1530
13491W        W29385  10.433  10.810   5.702 -0.1838 -0.0611 -0.1061
13492W        W29386   6.863  16.567   3.605  0.0115  0.1164 -0.4615
13493W        W29387   5.008   4.184  13.789 -0.0423 -0.3262  0.4315
13494W        W29388   1.652   0.273   1.015  0.0302  0.2134  0.0425
13495W        W29389   1.861   1.367  14.453 -0.3366  0.0198  0.1677
13496W        W29390   0.581   3.538   4.150 -0.3013 -0.1277 -0.1807
13497W        W29391  14.983   9.594   1.920  0.0207  0.1278 -0.1717
13498W        W29392   2.579  13.025  11.614  0.0335  0.1954  0.1947
13499W        W29393  17.398  16.061   1.126  0.0485  0.0011 -0.1420
13500W        W29394   8.954   8.608   0.201 -0.2513  0.4202  0.1341
13501W        W29395  10.798   2.522  14.510  0.2598  0.1614  0.1094
13502W        W29396   8.982   2.079  14.031 -0.1802  0.2307 -0.0396
13503W        W29397  11.717   7.715  13.503 -0.1325 -0.1919 -0.0875
13504W        W29398   0.533   3.937  15.466  0.2380  0.0149  0.1526
13505W        W29399  13.712   8.302  15.419 -0.0318  0.2237 -0.0938
13506W        W29400  17.748   5.388  14.234 -0.3903  0.1429 -0.2416
13507W        W29401   1.679   8.657   4.704  0.0179 -0.1518  0.3866
13508W        W29402  12.897  14.097   4.200  0.4420  0.0423 -0.3914
13509W        W29403  11.208   6.522  15.315 -0.1434  0.0259 -0.0166
13510W        W29404  15.572   3.400  11.652  0.2016  0.1503 -0.2623
13511W        W29405  14.508   3.898  13.003 -0.0737 -0.2901 -0.2118
13512W        W29406   3.092  17.641   1.185 -0.3270  0.4021  0.0362
13513W        W29407   8.575   6.745  14.584 -0.1031  0.0279 -0.0361
13514W        W29408  14.453   7.731   2.081  0.1721 -0.0801  0.1035
13515W        W29409  16.227  11.433  14.820 -0.0254 -0.4763 -0.1136
13516W        W29410   2.151  14.572  14.741  0.2060 -0.0356  0.4709
13517W        W29411   9.791  15.916  13.071  0.1646  0.1145 -0.1413
13518W        W29412  10.692   3.991   5.336  0.0889  0.0841  0.2609
13519W        W29413  16.814   5.875   1.475 -0.1158  0.2015 -0.0975
13520W        W29414  18.715   6.564   4.714  0.0074 -0.0400 -0.1407
13521W        W29415   3.389   5.703   0.967 -0.0879  0.1578  0.2778
13522W        W29416   1.128  15.002  10.490 -0.0912  0.1026 -0.0901
13523W        W29417   4.502   7.417  11.717 -0.1079 -0.0810 -0.1263
13524W        W29418  14.372   5.821  13.627  0.1555 -0.2297 -0.1090
13525W        W29419  12.645   6.576   1.661  0.1050  0.1381 -0.2394
13526W        W29420  14.639   8.958  11.798 -0.2054 -0.2183 -0.4625
13527W        W29421  16.934  12.216   1.862  0.2803 -0.1069 -0.0945
13528W        W29422  13.326   3.146   4.454  0.0700  0.2569 -0.0305
13529W        W29423  17.901   0.343  12.157  0.1190  0.2321  0.1499
13530W        W29424   6.238  14.912   4.140 -0.0954  0.1075 -0.1391
13531W        W29425   1.009  11.252  10.571  0.0511  0.3673  0.0994
13532W        W29426  11.433  12.018   1.166 -0.0642 -0.4078 -0.1399
13533W        W29427   5.702   4.658   2.732 -0.0498 -0.0722  0.1860
13534W        W29428   8.416   0.008   3.386 -0.0216 -0.3255 -0.2674
13535W        W29429   2.773   4.913   1.512 -0.1578 -0.3087 -0.0112
13536W        W29430  13.746   4.920  11.576  0.1080  0.0476 -0.0970
13537W        W29431  10.821   4.821   4.201  0.1159 -0.0835  0.2278
13538W        W29432   7.808  11.098   0.590  0.0802  0.0172  0.0027
13539W        W29433   5.437   6.102  12.155 -0.2095  0.1536  0.1406
13540W        W29434   0.355  16.291   0.025  0.0045 -0.1981  0.0674
13541W        W29435  16.578   7.319   2.061  0.0974 -0.2499  0.2267
13542W        W29436   5.982  12.400   0.469  0.1592  0.0054  0.1233
13543W        W29437  14.965  11.618   3.904  0.0711 -0.0271 -0.1291
13544W        W29438  11.339  12.532   4.674  0.0787  0.1411  0.3780
13545W        W29439  15.932  11.721  12.644  0.2485  0.3830  0.1209
13546W        W29440  11.344   3.283  14.868  0.0659 -0.3405  0.3978
13547W        W29441   3.351  16.611  13.234 -0.3465  0.4881  0.0972
13548W        W29442   2.267   1.526   1.775  0.0048  0.1592  0.1250
13549W        W29443   0.989  15.105  14.058 -0.0779  0.0504  0.1671
13550W        W29444  11.038   1.454   4.232  0.0085 -0.0504  0.2679
13551W        W29445  14.252  15.214   1.553 -0.0338 -0.1954  0.1928
13552W        W29446   4.281  12.588  13.626  0.2095 -0.0555  0.2201
13553W        W29447   8.698   9.498   3.562 -0.1455 -0.1062 -0.2657
13554W        W29448   2.163   4.603  12.838 -0.0751  0.3111 -0.0054
13555W        W29449   8.897   0.910   0.531 -0.0770 -0.3214  0.1345
13556W        W29450  16.255   9.108  12.401  0.2126  0.0832  0.0772
13557W        W29451  13.974   9.481   1.504  0.3457 -0.1465 -0.2034
13558W        W29452  12.891   5.765  13.791 -0.0262 -0.2112 -0.0970
13559W        W29453   0.388   9.041  12.805 -0.2106  0.1285 -0.0242
13560W        W29454  13.587  12.652  12.147  0.1618 -0.2318  0.1565
13561W        W29455  11.530   6.171  14.607  0.0568 -0.0481  0.0436
13562W        W29456   4.789   0.463   1.451 -0.1463 -0.3398  0.0812
13563W        W29457  15.181   0.534   3.904  0.1723  0.0128 -0.1974
13564W        W29458   8.216  13.083  14.580  0.1073  0.1626 -0.0741
13565W        W29459   3.311   1.837   5.250  0.2010  0.2551 -0.0450
13566W        W29460   8.290  14.746  11.967  0.3993  0.0022 -0.2496
13567W        W29461   5.380   1.250  12.147 -0.0969  0.0824 -0.0509
13568W        W29462   0.937  12.780   0.229  0.1999  0.1979  0.1047
13569W        W29463  13.804   2.377  15.342 -0.1155 -0.2917  0.1423
13570W        W29464   2.152  13.876  13.396 -0.2150  0.4267 -0.1948
13571W        W29465  15.355  10.417   1.552  0.1275 -0.1306  0.0218
13572W        W29466  11.785  17.460   3.587  0.1524  0.2768 -0.1957
13573W        W29467   9.698  12.672  11.943  0.0107 -0.0188 -0.1011
13574W        W29468  14.131  18.128   3.587 -0.0856  0.5569  0.2460
13575W        W29469   4.708  13.256   2.462 -0.1314 -0.0672  0.0669
13576W        W29470  16.123   5.488  13.903  0.1227 -0.1875  0.0303
13577W        W29471  12.429  12.580   0.337  0.1068  0.0937  0.2299
13578W        W29472  10.347   2.863  11.946 -0.1774  0.2283 -0.0421
13579W        W29473  15.703   9.126   0.911 -0.2564 -0.4422  0.1159
13580W        W29474   9.310   4.799   2.121 -0.1047  0.1721  0.0146
13581W        W29475  11.948  11.745   2.560  0.2274  0.0023  0.0268
13582W        W29476   6.680   7.968   2.095 -0.1519 -0.1203  0.2695
13583W        W29477   4.411  10.288  14.825 -0.0573  0.2203  0.0605
13584W        W29478   9.855  17.563  12.374 -0.2839  0.0393 -0.2176
13585W        W29479  18.656   2.266  15.038 -0.1451  0.1692 -0.0406
13586W        W29480  17.056   4.285   4.920  0.4341  0.3110  0.1600
13587W        W29481  10.179  16.198   0.436 -0.0885  0.2485  0.0030
13588W        W29482   4.907   6.724  14.717 -0.2608  0.1460  0.0498
13589W        W29483   6.662  13.642  14.033  0.2948 -0.0255  0.2397
13590W        W29484   8.531  17.254  11.279  0.1263  0.0934 -0.0618
13591W        W29485  14.327   9.909   5.963 -0.0537 -0.1717 -0.1791
13592W        W29486  16.077   8.228  10.963  0.2502 -0.1444 -0.2644
13593W        W29487  18.538   8.619  13.327  0.1249 -0.3108  0.1400
13594W        W29488   6.966   3.388  13.752  0.0756  0.1214  0.1318
13595W        W29489  15.244   1.639   2.538 -0.0366 -0.1458 -0.0498
13596W        W29490   3.923   1.151  11.640 -0.0705 -0.1895 -0.0928
13597W        W29491  10.017   3.353  11.822  0.0697 -0.1964 -0.0775
13598W        W29492   7.994  12.841  10.618 -0.4431 -0.1112 -0.1087
13599W        W29493  12.417  13.807  13.245  0.1102  0.3937  0.1180
13600W        W29494  17.210  13.492  12.176 -0.2338 -0.0107 -0.0281
13601W        W29495  16.739  16.635  14.756  0.1870 -0.3163  0.0843
13602W        W29496  15.015  11.209   2.410 -0.2756 -0.1180  0.0395
13603W        W29497   5.715   5.879   2.525 -0.0612  0.0703 -0.1419
13604W        W29498  12.157   2.319   0.751 -0.1347 -0.0510 -0.2182
13605W        W29499   2.633   3.859   3.914 -0.1953  0.2270  0.0683
13606W        W29500   7.955  14.185  11.146 -0.0599  0.1590  0.0609
13607W        W29501  16.748  12.782  13.283  0.1783  0.4181 -0.1087
13608W        W29502   9.079   7.570  12.021 -0.0161  0.2203  0.0373
13609W        W29503   1.718   1.421  13.161  0.1850 -0.0378 -0.0105
13610W        W29504  11.171  13.500   5.066  0.1222 -0.0858  0.0495
13611W        W29505  17.163   3.366  11.343  0.0471 -0.0692 -0.1048
13612W        W29506  11.730  11.741  12.810  0.1002 -0.0358  0.3185
13613W        W29507  15.280   4.056   1.439  0.0302  0.0517 -0.3114
13614W        W29508   6.208  12.192  12.917 -0.0240  0.0949 -0.0119
13615W        W29509   4.788   9.602   3.684  0.0937  0.4365  0.1100
13616W        W29510   1.724   7.817   2.441  0.1177  0.2220 -0.0005
13617W        W29511  13.682  18.174   3.665 -0.1150 -0.0739  0.0390
13618W        W29512   1.182   9.238  13.441  0.0399  0.0702 -0.0668
13619W        W29513  12.757   6.276  14.069 -0.2011  0.1690  0.0498
13620W        W29514   6.928  17.992  14.677 -0.0724  0.1976 -0.0922
13621W        W29515   9.623   0.717   4.624  0.2561  0.0695  0.2700
13622W        W29516   7.059  11.793   3.554  0.3523 -0.1738  0.3512
13623W        W29517  17.310   1.913   1.309  0.0297 -0.1858 -0.1601
13624W        W29518  17.657   1.207   2.380  0.0762  0.0222  0.1998
13625W        W29519   9.550   5.162   2.395  0.1097 -0.0321  0.0205
13626W        W29520  12.856  10.744   2.305 -0.2310  0.0685 -0.0250
13627W        W29521   9.514   4.280  15.177  0.0322 -0.1295  0.0873
13628W        W29522  15.278  12.524   1.305 -0.2775  0.3297  0.1522
13629W        W29523   2.585   2.352   4.456  0.0935  0.1826 -0.0006
13630W        W29524   8.913  14.558   1.503  0.2740  0.2720 -0.1060
13631W        W29525   5.893  18.156   0.084 -0.0604 -0.1377  0.0243
13632W        W29526  17.242  15.614   5.008 -0.1176 -0.1401  0.0684
13633W        W29527  17.730  15.819   1.897  0.3671  0.2951  0.0118
13634W        W29528   2.064   5.897   2.863 -0.3762  0.0575 -0.1909
13635W        W29529   7.053   0.738   2.741 -0.1799  0.0984 -0.0320
13636W        W29530  14.687  18.400   3.994  0.2299 -0.1440  0.2574
13637W        W29531  17.598  13.781   2.024  0.1051  0.0286  0.2892
13638W        W29532   1.787  18.271  14.846 -0.0514 -0.1338 -0.0714
13639W        W29533   4.523  13.101   0.576  0.3052  0.2493  0.2569
13640W        W29534   9.252   0.483  15.257 -0.2128  0.0947 -0.0814
13641W        W29535  10.561   0.940  14.753  0.0298 -0.0138 -0.1084
13642W        W29536  15.226   5.887  14.077  0.1170 -0.0582  0.0407
13643W        W29537   5.188   3.831  12.469 -0.0395  0.4158 -0.1354
13644W        W29538   8.355   0.814   1.875  0.3859  0.2333  0.0871
13645W        W29539  11.085   9.417  14.268 -0.2704 -0.2473  0.1702
13646W        W29540   9.788  14.403   0.584  0.1372  0.0241  0.2613
13647W        W29541   1.740   3.942   0.185  0.1491 -0.4943 -0.1289
13648W        W29542   1.972   6.702  13.567 -0.1205  0.0236 -0.0894
13649W        W29543   7.687   1.667  12.187 -0.0503  0.0152  0.0924
13650W        W29544   9.554  14.732  13.485 -0.1779  0.0719 -0.2968
13651W        W29545   1.898  14.714   3.498 -0.2598 -0.0684  0.0132
13652W        W29546   0.411  18.140   1.443 -0.0217  0.1151  0.0327
13653W        W29547   5.927  13.680  15.610 -0.5050  0.1937 -0.0629
13654W        W29548   7.329   8.327  13.744  0.0297 -0.1002 -0.1077
13655W        W29549   6.331  11.622  11.408  0.1282  0.1316 -0.1790
13656W        W29550   9.991   4.383  15.334 -0.0202 -0.0137 -0.1148
13657W        W29551  17.721   5.661   1.378  0.0710 -0.0244 -0.2253
13658W        W29552   2.705  12.023   3.797 -0.1362  0.0158  0.0977
13659W        W29553   8.218   1.223  13.252 -0.1834  0.2602  0.3540
13660W        W29554   0.969  15.132   2.707 -0.1966  0.1377 -0.2451
13661W        W29555   6.015   7.303   4.662  0.1103  0.1654 -0.3542
13662W        W29556  17.088   4.088  14.913 -0.0629  0.0640 -0.2445
13663W        W29557  12.834   1.077  15.582  0.0087  0.0590 -0.1884
13664W        W29558  17.692  15.520  14.406  0.1578  0.1010 -0.2390
13665W        W29559  17.864  12.411   3.490  0.0577  0.1722  0.0125
13666W        W29560   6.644   8.109   1.456  0.1337  0.0010 -0.1011
13667W        W29561   9.572  18.714  13.152 -0.1714 -0.1178  0.1651
13668W        W29562  11.341  16.015   1.059 -0.2704 -0.0856 -0.6020
13669W        W29563  15.771   2.166   0.339 -0.1452 -0.3491 -0.0123
13670W        W29564  17.116   5.553  12.031  0.2113  0.2772 -0.3300
13671W        W29565  10.425  10.697  11.930  0.0445  0.0363  0.1448
13672W        W29566  11.138   5.890  14.489 -0.2291  0.0196  0.1748
13673W        W29567   8.906  13.137  11.736  0.0214 -0.2190 -0.2082
13674W        W29568   1.809  17.870  10.471  0.1600 -0.0713 -0.1172
13675W        W29569   3.482   0.036   3.149 -0.0183 -0.0361 -0.5671
13676W        W29570  14.806   7.289  13.719  0.0141 -0.0705  0.2671
13677W        W29571  10.030  10.851  14.456  0.0075 -0.0445  0.3123
13678W        W29572  12.834   1.318  14.303 -0.1294 -0.2664 -0.0768
13679W        W29573   6.643  14.712   3.209 -0.3324  0.2554  0.0107
13680W        W29574   1.524   3.809   3.389  0.0759  0.2993  0.2314
13681W        W29575   0.147  15.108   1.018 -0.0625  0.1151  0.3818
13682W        W29576  10.539   0.294  10.985 -0.1101 -0.2787 -0.2250
13683W        W29577   8.345   2.705  11.072 -0.2954 -0.0112  0.3753
13684W        W29578  13.933   3.074   3.481 -0.1403  0.1484 -0.4791
13685W        W29579  11.951   1.621  13.204 -0.1555 -0.4371  0.0658
13686W        W29580   6.730   0.342   0.402 -0.1003 -0.0565 -0.0914
13687W        W29581   7.365  11.378   1.222 -0.0079 -0.3360  0.0293
13688W        W29582  18.111   4.370   1.935 -0.0302 -0.0817  0.0331
13689W        W29583   2.221  10.876   5.147 -0.1817 -0.2875 -0.2547
13690W        W29584   5.075  14.556   3.965 -0.1730 -0.0059  0.0878
13691W        W29585   1.209   5.452   1.400  0.1622 -0.0867  0.1849
13692W        W29586   7.265   6.190  11.214 -0.1574 -0.2015 -0.0927
13693W        W29587  13.100  12.121   5.366  0.1501  0.2509  0.1912
13694W        W29588  10.383   5.551   2.613  0.0491  0.4776 -0.0729
13695W        W29589   4.797  17.975   2.111 -0.2280 -0.2092 -0.2494
13696W        W29590  12.629  10.333  14.549  0.1771 -0.1711 -0.1734
13697W        W29591  18.095  10.976   5.226 -0.0072 -0.0165 -0.0469
13698W        W29592   2.794   1.534  13.494 -0.0416 -0.2711 -0.0435
13699W        W29593  15.187  17.553   4.077  0.0125  0.1123  0.0049
13700W        W29594   7.046   8.246  11.047  0.1052 -0.0683 -0.2397
13701W        W29595  13.269   2.939   5.033 -0.3418 -0.0139 -0.0682
13702W        W29596   6.118   3.506   4.081 -0.3148 -0.1531 -0.1766
13703W        W29597   8.019  17.756  13.101  0.1137  0.1140 -0.1031
13704W        W29598  14.479  17.651  15.567 -0.0577  0.0157 -0.1315
13705W        W29599  16.368  17.956   4.779  0.3407 -0.1459  0.3297
13706W        W29600   1.421  17.495   5.080  0.1863  0.1836 -0.0598
13707W        W29601  11.777   2.176  12.270 -0.3679  0.0896 -0.0390
13708W        W29602  12.315   8.132   3.898 -0.0628  0.1800 -0.0162
13709W        W29603   9.778   2.385   2.127  0.2152  0.4044 -0.2869
13710W        W29604   6.440   3.963   2.415  0.1651 -0.0233  0.1199
13711W        W29605  13.094   4.669   4.411 -0.1327  0.0475  0.0476
13712W        W29606  16.599   7.360  13.568 -0.2110  0.2624  0.0145
13713W        W29607   5.416   0.662  11.185  0.0967 -0.0890  0.1332
13714W        W29608   1.881  17.389  13.021 -0.1815  0.0503  0.2084
13715W        W29609  11.212   1.400  10.810  0.0363 -0.1844  0.1351
13716W        W29610  14.554  11.314   1.743 -0.1342 -0.3628  0.1784
13717W        W29611  13.684  11.151   5.091  0.0542 -0.0145 -0.2843
13718W        W29612   8.216  13.537   1.832  0.0398 -0.0093  0.0429
13719W        W29613  14.584   1.297   3.613 -0.2479  0.0278 -0.1328
13720W        W29614   6.972   9.803   1.471  0.0853  0.0345  0.1136
13721W        W29615   1.502   4.443  14.410 -0.2793 -0.0389  0.1010
13722W        W29616   1.688   8.370  15.338 -0.1061 -0.1205 -0.1362
13723W        W29617  16.906  18.427  10.972  0.0933  0.1332 -0.2798
13724W        W29618  13.526   4.361   4.149 -0.2792 -0.1385 -0.4315
13725W        W29619   1.883  18.677   5.134  0.0651 -0.0497  0.2477
13726W        W29620  13.629   0.032   2.352  0.0223 -0.3613 -0.1787
13727W        W29621   1.894   6.680   0.629 -0.0479  0.0706 -0.1289
13728W        W29622   1.954   1.836   4.085  0.3593 -0.5197  0.0427
13729W        W29623   2.606  11.089  14.772 -0.1067 -0.2924  0.0269
13730W        W29624   9.220   5.888  11.242  0.1207 -0.2444 -0.0732
13731W        W29625   4.969  13.982   1.835 -0.0633 -0.1030  0.0350
13732W        W29626  17.654  15.235  11.606  0.2420 -0.0585  0.1569
13733W        W29627   1.037  10.952   0.811 -0.3589  0.0068 -0.2116
13734W        W29628   2.572  13.372   2.521 -0.0674 -0.1909 -0.1823
13735W        W29629   0.334   0.488  13.681 -0.0259  0.1668  0.0580
13736W        W29630   9.010  17.896   1.561 -0.0320  0.1264  0.0645
13737W        W29631   7.454  16.666  14.664 -0.0556  0.1035 -0.0719
13738W        W29632  18.301   2.744  13.266  0.1868  0.2183 -0.1803
13739W        W29633  13.479  18.214   1.027 -0.2007 -0.1065 -0.3413
13740W        W29634  14.091   6.745  13.527 -0.1312 -0.0293  0.0796
13741W        W29635   7.749   7.410  12.415 -0.0071 -0.1391 -0.1716
13742W        W29636  15.870   6.081   4.139 -0.0397  0.1717 -0.0481
13743W        W29637   0.703  11.345   3.146  0.0412  0.0270 -0.0116
13744W        W29638   3.325   7.458   4.360 -0.2019 -0.3646 -0.0093
13745W        W29639  14.663  12.506  12.739 -0.1149  0.1583 -0.1165
13746W        W29640   5.359  14.292   0.686  0.1501 -0.1417  0.1754
13747W        W29641  18.379   0.971   0.835  0.0853  0.2763  0.0080
13748W        W29642  13.928   2.877  15.457  0.1375  0.2471 -0.1081
13749W        W29643  18.135   5.942   0.612 -0.0059  0.1016  0.0340
13750W        W29644  13.696   3.160  12.478 -0.1817 -0.0897  0.0668
13751W        W29645  14.699  17.919   0.809  0.0338 -0.1868 -0.2693
13752W        W29646   8.676   0.057   0.746  0.2581  0.0120 -0.1864
13753W        W29647  10.381   2.768  15.524  0.0866  0.1969 -0.1080
13754W        W29648   9.662   2.673   1.777  0.4001 -0.0182  0.0596
13755W        W29649  17.256   4.768   4.717 -0.1020  0.0593  0.1420
13756W        W29650   6.113   3.470   5.154  0.0810  0.0447  0.0798
13757W        W29651  15.368  14.160  11.266 -0.3036 -0.2233 -0.2410
13758W        W29652   7.105  17.119  13.040  0.2451  0.3111 -0.0881
13759W        W29653  17.371   9.985   2.003  0.1596 -0.4171 -0.0768
13760W        W29654   4.600  16.983  14.415  0.2171  0.1166 -0.6265
13761W        W29655  11.237   9.569  12.944  0.0830 -0.1021  0.0700
13762W        W29656  11.716  15.625  11.233 -0.0684 -0.3675  0.2266
13763W        W29657   5.821   8.591   2.878  0.3137 -0.0226  0.0972
13764W        W29658   2.159   2.449  12.182 -0.3298 -0.1799 -0.1030
13765W        W29659   3.601   2.496  12.982 -0.0937  0.0855  0.1162
13766W        W29660  12.993   7.552  13.210 -0.2980 -0.0525 -0.2292
13767W        W29661   0.526  15.535   2.813  0.2049 -0.1149  0.0836
13768W        W29662   0.124  16.636  13.918  0.2076  0.2048  0.2196
13769W        W29663   0.007   1.821   1.983  0.2646 -0.2158 -0.2901
13770W        W29664   9.936   9.557   4.028 -0.2774 -0.0440  0.0114
13771W        W29665  14.819   5.021   2.003  0.1384 -0.2920  0.3795
13772W        W29666  13.500   4.517   0.084  0.2542 -0.1241 -0.0307
13773W        W29667   7.644   4.645   5.377  0.0491  0.3302 -0.0184
13774W        W29668   2.442  15.473  11.320 -0.2454 -0.0565  0.1251
13775W        W29669   2.761   9.053  13.410  0.4032  0.2102  0.0426
13776W        W29670  10.455   4.188   1.056 -0.0996  0.1927 -0.0915
13777W        W29671  15.062  12.426  13.184  0.3378 -0.1529 -0.2103
13778W        W29672   3.055   1.498   4.941  0.1814 -0.0244  0.3686
13779W        W29673  11.525  17.487  10.599  0.0273 -0.0535  0.2662
13780W        W29674  12.360  14.857   4.745  0.4074 -0.1697  0.0221
13781W        W29675   5.798   3.469  13.451  0.1941  0.2809 -0.0327
13782W        W29676  13.520  12.860  13.925 -0.2350  0.1674 -0.0883
13783W        W29677  14.899   1.738  12.361  0.1220  0.0098  0.0182
13784W        W29678   7.000   9.783  11.679  0.1038  0.1370  0.0312
13785W        W29679   2.712   7.829   1.062 -0.0086  0.4935  0.2632
13786W        W29680  13.951  11.618  13.209  0.0952  0.0723 -0.0792
13787W        W29681   9.005   4.276  11.133 -0.1425  0.0051 -0.2972
13788W        W29682  17.424   7.628   1.573  0.1254 -0.2537  0.2410
13789W        W29683  17.183   7.717   4.912 -0.2674  0.0634  0.1154
13790W        W29684  12.742  10.750   0.121  0.1177 -0.1754  0.1687
13791W        W29685  16.863   9.813  13.936 -0.2346  0.0033 -0.1150
13792W        W29686  13.099  15.022   1.565 -0.0988  0.0426  0.0764
13793W        W29687  12.634   5.935   4.881 -0.1858 -0.3096 -0.0534
13794W        W29688   4.461   0.795  12.465 -0.3794  0.0612  0.1811
13795W        W29689  10.258   2.556  10.092  0.0274  0.2058  0.1614
13796W        W29690  17.155  11.237  12.777 -0.4812 -0.0729  0.0385
13797W        W29691   1.899  12.981  11.130  0.0752 -0.2165  0.1355
13798W        W29692   5.187   3.365   0.673  0.0614  0.1910  0.1456
13799W        W29693   3.933   8.647   0.649 -0.4982  0.0542 -0.0219
13800W        W29694   5.853  15.099  10.987  0.1761 -0.2953 -0.1106
13801W        W29695  15.869  18.705  10.985  0.1608 -0.0104 -0.2705
13802W        W29696   5.261  14.997   1.025 -0.1850  0.2111  0.1380
13803W        W29697   1.361   0.575   4.176  0.0916  0.3626 -0.0258
13804W        W29698   3.604  12.777  10.809 -0.2048  0.2389  0.1808
13805W        W29699  15.470  15.160  14.961  0.0226  0.2081  0.0552
13806W        W29700   5.936   7.496   2.609  0.3452  0.0861  0.0491
13807W        W29701   1.826  15.786   4.839 -0.1946 -0.0091  0.3976
13808W        W29702   2.820  10.260   5.178  0.0557  0.1949  0.0417
13809W        W29703  12.038   8.877   1.075  0.2184  0.0578  0.0100
13810W        W29704  12.638   6.529  11.416  0.0084  0.1578  0.0093
13811W        W29705  17.970  14.595   4.778 -0.1657 -0.1186  0.1602
13812W        W29706   7.642   3.421  12.082 -0.1531 -0.0242 -0.0020
13813W        W29707  17.683  10.038  12.686 -0.0089  0.0088 -0.4262
13814W        W29708   5.830  18.729  13.361  0.1289 -0.1005 -0.2401
13815W        W29709   3.420   3.744   4.712  0.3249  0.2301 -0.1470
13816W        W29710  16.591  14.884  12.447 -0.1242  0.0377  0.2297
13817W        W29711  11.366  14.584   3.701 -0.3592  0.0173 -0.3635
13818W        W29712   7.811   3.800  15.115 -0.0551  0.0712 -0.3569
13819W        W29713   7.757  13.895  11.545 -0.0468  0.1298 -0.1266
13820W        W29714   2.514  18.561   3.625  0.2636 -0.2234 -0.2630
13821W        W29715  10.509   2.145   3.717 -0.4127  0.0265 -0.1925
13822W        W29716   6.154  18.681   4.107 -0.0232 -0.1995 -0.4507
13823W        W29717   9.972  15.015   2.620 -0.1477  0.0755  0.1080
13824W        W29718   5.538   2.021   3.781  0.3336  0.2894  0.1417
13825W        W29719   8.323   2.919   2.079 -0.2420  0.1606  0.0649
13826W        W29720  17.104   3.899   4.482  0.0359 -0.2758  0.2012
13827W        W29721  12.422  12.057   0.461  0.0431  0.1547 -0.0448
13828W        W29722  12.886   8.517   0.997 -0.1937  0.1182 -0.0199
13829W        W29723   0.796   6.721   2.631 -0.0558  0.1285  0.3626
13830W        W29724   7.437  11.141   4.045  0.0464  0.1120 -0.1823
13831W        W29725   0.435  10.485   2.627  0.1962  0.2069  0.1721
13832W        W29726   3.838  17.121  12.365  0.0925 -0.1994 -0.0630
13833W        W29727   3.709  12.043   0.614  0.0814 -0.0081 -0.0386
13834W        W29728  13.764   9.336  11.568 -0.1075 -0.2869  0.0675
13835W        W29729   2.635   9.624  15.078 -0.3693  0.1201  0.1853
13836W        W29730  14.444   2.848  10.560  0.3713 -0.1664 -0.4694
13837W        W29731   4.830   5.828   4.476 -0.1703  0.3783 -0.2572
13838W        W29732  12.855   6.483   4.880 -0.2278 -0.0870  0.3535
13839W        W29733   7.647  13.617  11.166  0.3970  0.1812 -0.0386
13840W        W29734  11.125   7.640  13.332  0.0347  0.3152  0.0877
13841W        W29735   9.830  18.358  15.224 -0.0153  0.0518  0.0488
13842W        W29736   2.151  15.009   0.147  0.1847 -0.2411 -0.0176
13843W        W29737  13.930  11.926   1.899 -0.0601 -0.2634 -0.1736
13844W        W29738  14.296   0.056   4.758  0.2879 -0.1933 -0.1367
13845W        W29739  12.128  15.383   2.474 -0.4689 -0.1837 -0.0194
13846W        W29740  14.908   7.141  12.183  0.2187 -0.4802 -0.1269
13847W        W29741  17.413  17.019   2.771 -0.1458  0.0409  0.1532
13848W        W29742  12.775   2.259   1.548 -0.1294  0.1200 -0.1776
13849W        W29743  14.839   8.316   2.906 -0.1379  0.0209  0.0385
13850W        W29744   1.033   1.383   4.653  0.0651 -0.1265 -0.1522
13851W        W29745  11.577   7.744   5.197 -0.2014 -0.0068  0.0943
13852W        W29746  16.292   3.010   0.455  0.0279 -0.1082  0.0591
13853W        W29747   7.637   1.614   3.442  0.1759 -0.3383 -0.0210
13854W        W29748  17.607   8.302  14.600  0.0491  0.0406 -0.0823
13855W        W29749  18.739  10.314  10.079 -0.3771 -0.2663 -0.1768
13856W        W29750   9.812  10.416   2.263  0.0786 -0.2191 -0.0989
13857W        W29751  18.052  13.030  11.990  0.0914  0.0235 -0.0262
13858W        W29752  16.928   4.098  10.614 -0.4272 -0.0404  0.1263
13859W        W29753  13.146  18.119  12.410  0.0525 -0.1933  0.2249
13860W        W29754  18.588   3.011  12.264 -0.0464 -0.0967 -0.1905
13861W        W29755   3.467  14.505   2.070  0.0412  0.1073  0.1620
13862W        W29756   8.823   8.510   0.659  0.1339  0.1893  0.2746
13863W        W29757   7.171   9.124   2.538 -0.1474 -0.3597  0.1907
13864W        W29758  17.167   9.030   0.917  0.0749  0.2336  0.0399
13865W        W29759  11.347   0.270   2.534 -0.5037  0.0034 -0.3875
13866W        W29760   0.439   5.345  10.603 -0.3416 -0.1829 -0.2600
13867W        W29761  17.960  13.006   5.402 -0.0368  0.1239  0.2675
13868W        W29762  17.442   1.183  12.015  0.0113 -0.0476  0.0572
13869W        W29763  17.187   1.923  12.616  0.0041 -0.1166  0.0015
13870W        W29764  10.940   2.003  13.780 -0.0415  0.1870  0.3384
13871W        W29765   8.629   8.148   0.087  0.2307  0.1118  0.4338
13872W        W29766  14.148  14.780   3.519 -0.1745  0.0160  0.1435
13873W        W29767  13.835  13.512  11.707 -0.0023 -0.0475  0.3637
13874W        W29768   7.019  13.814  15.212  0.0818  0.1554 -0.6157
13875W        W29769  17.805   1.596   5.269 -0.1854 -0.0232  0.1207
13876W        W29770  14.615   5.170   3.236 -0.1932 -0.1134 -0.0790
13877W        W29771   5.541   1.269  11.594  0.0786  0.4008 -0.1364
13878W        W29772  15.949   8.116   4.850  0.1052 -0.1926  0.1572
13879W        W29773   0.932   4.332  15.365  0.1556 -0.2472 -0.0095
13880W        W29774   9.462  15.469  12.968 -0.0202 -0.1011 -0.2851
13881W        W29775  15.836   7.664  14.622  0.3240 -0.1516 -0.2840
13882W        W29776  18.443   3.542  15.038 -0.0602 -0.2238 -0.1923
13883W        W29777   8.070   6.544  14.055  0.1116  0.0779 -0.3519
13884W        W29778  16.128  12.964  15.412 -0.0195 -0.2141 -0.2135
13885W        W29779  13.537  11.037  10.997 -0.0826 -0.1486  0.0579
13886W        W29780   0.963  14.360   0.735  0.1242 -0.1304 -0.0590
13887W        W29781   2.033   1.693  14.814 -0.1472  0.0075 -0.2225
13888W        W29782   3.259  17.883  11.874 -0.3530  0.0874 -0.0230
13889W        W29783  16.240   4.352   0.455 -0.1519 -0.1814 -0.0309
13890W        W29784  11.241  11.086   1.233 -0.2531 -0.3203  0.0588
13891W        W29785   5.938   4.838  12.907  0.0513 -0.0415  0.2650
13892W        W29786   3.223   2.568   2.089 -0.1299  0.1132 -0.3601
13893W        W29787   7.940  13.508  14.949  0.1826  0.0892 -0.3259
13894W        W29788  10.278   8.745  10.226  0.0272 -0.2783 -0.0641
13895W        W29789  16.209  18.584  12.441  0.0362  0.2175 -0.2766
13896W        W29790  12.163   6.646   3.427 -0.2592  0.1502 -0.3535
13897W        W29791   2.606   5.684   2.624  0.0283 -0.1695 -0.2758
13898W        W29792  18.547   7.898   3.386  0.2010  0.0741  0.1056
13899W        W29793   3.439  18.628  11.687  0.0531 -0.0729  0.0965
13900W        W29794   3.520   1.137  14.006  0.2145 -0.1128 -0.2076
13901W        W29795  10.779   9.935   1.378 -0.1029 -0.0858  0.0541
13902W        W29796  14.024   9.515  14.345 -0.0014 -0.0665  0.0655
13903W        W29797  10.470  15.698   0.630  0.2572 -0.3728  0.0132
13904W        W29798   5.829   9.007   4.897  0.0530 -0.0007 -0.0026
13905W        W29799   6.294  17.157   1.002  0.1212  0.0075 -0.0057
13906W        W29800   4.015  13.625  12.169  0.1283 -0.1457 -0.0601
13907W        W29801  13.327   1.605  11.070  0.2721 -0.1205  0.2133
13908W        W29802  16.349   2.242   4.379  0.1055  0.2575 -0.1154
13909W        W29803   6.539   3.701   0.588  0.2227  0.2345 -0.3967
13910W        W29804  17.949  10.967  14.554  0.2778  0.1042  0.2755
13911W        W29805   5.086   4.666  12.842  0.4140 -0.0132 -0.1677
13912W        W29806   5.673   0.043   2.585  0.1645  0.0864 -0.1506
13913W        W29807  12.051   3.422   1.496  0.2227 -0.0892  0.0178
13914W        W29808   0.905  16.211   2.423 -0.0084  0.1353  0.0203
13915W        W29809  11.788   3.961  13.273  0.1197  0.2770 -0.0677
13916W        W29810  13.990  11.372   3.071 -0.2924  0.0320 -0.1862
13917W        W29811  16.660   2.276   0.038 -0.3106 -0.0221 -0.0196
13918W        W29812   5.668   0.493  13.338  0.1740  0.1090 -0.3174
13919W        W29813  11.686   3.916  12.193  0.0846 -0.2707 -0.0041
13920W        W29814   5.730  14.882   5.613  0.1512 -0.0327 -0.2114
13921W        W29815   8.113   7.955   1.016  0.0836  0.1341 -0.0245
13922W        W29816  18.617  13.301  10.451  0.1161 -0.0404 -0.0948
13923W        W29817  13.731   0.878   0.824 -0.0848  0.3254 -0.4536
13924W        W29818  10.152   9.864   5.615 -0.5530  0.1288  0.5765
13925W        W29819   3.062   8.013  14.395 -0.3489  0.0573 -0.0965
13926W        W29820   6.962   2.462  13.338  0.0203 -0.5217 -0.1023
13927W        W29821   9.041   6.204   2.947  0.2744 -0.1166  0.2443
13928W        W29822   4.466  12.676   4.340  0.1367  0.1264  0.0906
13929W        W29823   1.574   5.321   3.015  0.0675 -0.0871 -0.2044
13930W        W29824  18.634   0.025  12.836 -0.2150 -0.2190 -0.1183
13931W        W29825   8.784   7.911  12.363  0.1099 -0.1806  0.0228
13932W        W29826  17.122  14.869   1.370  0.0087 -0.2816 -0.0676
13933W        W29827  14.076  17.933  13.217  0.3118 -0.0546  0.1924
13934W        W29828  15.171  13.996   1.070  0.2407 -0.0869 -0.0885
13935W        W29829   1.677   5.825  11.681  0.3612 -0.1696  0.0727
13936W        W29830  18.401  13.316   3.702  0.0695 -0.1494  0.1550
13937W        W29831   9.994   7.258   4.661 -0.3929 -0.1727  0.1286
13938W        W29832  17.021  14.189   5.319 -0.1281  0.0295  0.1129
13939W        W29833  12.170   7.900  12.842 -0.0664 -0.2312  0.1948
13940W        W29834  12.905  13.940   2.907 -0.3184 -0.0039 -0.0075
13941W        W29835  17.040  17.225   2.557  0.2498  0.0115 -0.2780
13942W        W29836  11.644   7.745   2.564 -0.1462  0.0715  0.0892
13943W        W29837  14.134   0.338   3.588 -0.2671  0.1036 -0.1451
13944W        W29838  12.567  18.071   0.049 -0.2203 -0.1162 -0.0599
13945W        W29839   8.861  17.017   3.664 -0.4606  0.1636  0.0592
13946W        W29840   7.987  14.153  12.093 -0.2550 -0.3446 -0.0348
13947W        W29841   1.183  18.565   1.035  0.0151  0.0520  0.1672
13948W        W29842   0.930  18.441  11.253  0.2858  0.0431 -0.0873
13949W        W29843   3.648   9.346   1.618  0.0646 -0.0504 -0.2184
13950W        W29844  10.432  12.584   0.299  0.0074  0.0074 -0.0489
13951W        W29845   7.538  14.527  14.067 -0.0657  0.3674 -0.2491
13952W        W29846   6.319  11.270   1.924  0.0940 -0.1139  0.0265
13953W        W29847   6.841   0.175   4.816 -0.3026 -0.2508  0.1996
13954W        W29848  18.140   0.300  14.057  0.0263  0.2492  0.2395
13955W        W29849   8.262  11.045  10.886 -0.0243  0.0815  0.0771
13956W        W29850  10.181  10.829   2.206  0.3592 -0.0545  0.0519
13957W        W29851   0.955   5.374  13.834  0.0112 -0.0302 -0.1640
13958W        W29852   9.275  17.469  11.871  0.0954  0.1776  0.1631
13959W        W29853   1.398  10.169  12.366  0.2153 -0.0086 -0.1701
13960W        W29854  14.468  16.296  12.262 -0.1891 -0.1382  0.2656
13961W        W29855   8.530   6.045   1.205 -0.1175 -0.1128 -0.3012
13962W        W29856   9.476   2.541  13.285  0.3722  0.5428  0.0975
13963W        W29857  16.737  16.259   2.409  0.0844 -0.2770 -0.4999
13964W        W29858   3.285   5.332   3.380 -0.3046 -0.0472  0.0546
13965W        W29859  14.493  18.409   0.789  0.2658  0.0235 -0.1628
13966W        W29860  17.185   0.155   2.190  0.0806 -0.0868  0.0173
13967W        W29861   1.642   4.212   3.041  0.0367 -0.2804  0.2227
13968W        W29862  13.684  16.217  11.229 -0.0969  0.0117  0.0027
13969W        W29863   3.042  18.318  11.707 -0.1581  0.1982 -0.4575
13970W        W29864   3.331  14.366   3.182  0.1925  0.3391 -0.0044
13971W        W29865   8.014   0.751   0.288 -0.3096  0.1023 -0.0341
13972W        W29866  14.334  15.865  14.096 -0.0974 -0.0593  0.0574
13973W        W29867   5.642  17.791   1.221 -0.1302  0.0236  0.1334
13974W        W29868  11.509  17.362   0.457  0.1024 -0.1544  0.3487
13975W        W29869   4.044  16.167  14.052 -0.0875 -0.1134 -0.2531
13976W        W29870   6.440  12.735  11.439  0.0531  0.1576  0.1573
13977W        W29871   3.493  15.786   2.365 -0.1585 -0.2232 -0.2874
13978W        W29872   4.054  12.320  12.137 -0.1205  0.0191  0.1704
13979W        W29873  11.486  18.078  13.413  0.0260  0.1635  0.0882
13980W        W29874  12.200   0.282  15.571 -0.0729 -0.0685 -0.0147
13981W        W29875   9.330   5.764  11.701 -0.0956  0.0379 -0.2377
13982W        W29876  14.381   8.749   4.698  0.0049  0.0602 -0.0849
13983W        W29877  13.068   5.755   4.116  0.1431  0.1670  0.0609
13984W        W29878  10.719   8.399   3.534 -0.1797  0.0880 -0.2855
13985W        W29879  12.172  14.432   0.422 -0.1267 -0.1468  0.2458
13986W        W29880  18.113  17.131   0.147  0.1799 -0.2686  0.3871
13987W        W29881  11.978   2.108   5.174  0.3191 -0.1308  0.1130
13988W        W29882   6.792  15.547   4.280  0.2565 -0.0572  0.1231
13989W        W29883   2.965  15.564   0.602  0.2584  0.3348  0.1067
13990W        W29884  12.778  14.693   0.447 -0.1076 -0.1968 -0.4613
13991W        W29885   2.840   0.692  12.871 -0.2002  0.2099  0.0311
13992W        W29886   0.099  13.420   3.517 -0.2197  0.3316  0.3319
13993W        W29887  10.367   8.391   4.428  0.0659  0.1539 -0.1189
13994W        W29888   0.991   0.874   3.275 -0.0097 -0.0364  0.2467
13995W        W29889  10.680   7.467  11.343  0.0948  0.0013 -0.0997
13996W        W29890  11.632  15.290  15.340  0.0988 -0.0233  0.2687
13997W        W29891   0.613   3.774  12.649 -0.1970 -0.1930 -0.1154
13998W        W29892   1.528   9.718   0.351 -0.2710  0.1733 -0.4218
13999W        W29893   0.663   5.078  14.773 -0.2503 -0.0720 -0.1907
14000W        W29894  16.352   0.226  13.784  0.0186  0.2366  0.0399
14001W        W29895   8.149   5.255  11.901 -0.0163  0.2577 -0.0295
14002W        W29896  15.482   6.223  10.183  0.1085 -0.0712 -0.0326
14003W        W29897   1.766  14.334  15.114  0.1148  0.3219  0.0944
14004W        W29898   0.189   7.582  15.355  0.0631 -0.1662  0.2211
14005W        W29899   0.432   9.857  14.617  0.1645 -0.1647 -0.0156
14006W        W29900   9.015   1.819  13.580  0.0163 -0.0635 -0.0643
14007W        W29901  10.171   5.494   3.137 -0.1097 -0.4111  0.2188
14008W        W29902  10.555  17.143   3.514 -0.1396 -0.0419 -0.1545
14009W        W29903   6.661  17.462   3.978  0.1216  0.0182 -0.0949
14010W        W29904   1.509   7.330  13.906 -0.2402  0.1940  0.1366
14011W        W29905   9.841  15.636  13.889  0.1526  0.0911 -0.0071
14012W        W29906  15.053  13.023   5.228  0.1186 -0.2485 -0.3925
14013W        W29907  17.437   6.858  11.354  0.2943  0.0590  0.0288
14014W        W29908  13.704   1.823   4.661  0.0029  0.2483 -0.1646
14015W        W29909   6.220   2.231   2.402  0.0095  0.0096  0.0315
14016W        W29910  12.324   6.500   2.088  0.1972 -0.1014 -0.2986
14017W        W29911  13.675  13.731  14.553 -0.1842 -0.1393 -0.2249
14018W        W29912  11.170   7.361  11.216 -0.1215 -0.1625  0.1049
14019W        W29913   8.224  17.184  14.845 -0.1112 -0.0727  0.0929
14020W        W29914   3.760  15.271  12.103 -0.0325  0.0735 -0.1593
14021W        W29915   8.699  18.066  15.317 -0.1730  0.1941  0.0542
14022W        W29916  15.219  18.085   5.465 -0.4288 -0.0487  0.0368
14023W        W29917   9.372  18.048  11.752 -0.0842 -0.0258  0.0201
14024W        W29918   7.748  15.038   1.549  0.1765  0.0787 -0.0587
14025W        W29919   7.525  12.611   0.479  0.0085  0.1183 -0.1844
14026W        W29920   9.698  18.061   3.328  0.0245 -0.0450 -0.0714
14027W        W29921   3.101   9.213  11.511 -0.0877  0.0789  0.0260
14028W        W29922   7.788   5.364   1.747 -0.1068 -0.0100 -0.0774
14029W        W29923   7.451   2.240   9.054  0.0296 -0.2672 -0.0330
14030W        W29924   5.668  11.933  13.304  0.1160 -0.1086 -0.0932
14031W        W29925   3.505   8.691   2.930  0.0840 -0.3652  0.1073
14032W        W29926  11.711  11.780  11.415  0.0598  0.3192  0.0918
14033W        W29927   1.458  12.205  15.561 -0.0300  0.2517  0.2312
14034W        W29928  12.492   2.976  14.303 -0.0014 -0.1330 -0.0875
14035W        W29929   9.398   2.288  15.173  0.1608 -0.0573  0.1797
14036W        W29930  10.654   5.393  10.267 -0.1543 -0.0549 -0.0783
14037W        W29931  12.567  11.880  11.384  0.1675  0.0591 -0.0619
14038W        W29932  16.798   1.513  14.765  0.0824  0.1325 -0.3104
14039W        W29933  11.264   4.310   3.848 -0.3135  0.0457 -0.1890
14040W        W29934  12.569  14.458   2.632  0.0022  0.2971  0.2176
14041W        W29935   1.509  13.593   5.153  0.0944  0.0297  0.2625
14042W        W29936  16.463  17.514  14.762 -0.1051  0.0518  0.0591
14043W        W29937  18.564  14.149   4.894 -0.2629  0.0130 -0.0456
14044W        W29938  13.323  15.446   4.864 -0.1862  0.0238  0.1361
14045W        W29939   2.936  15.595  14.909  0.1546  0.1418 -0.0740
14046W        W29940   8.715  17.257   5.760  0.0045  0.0222  0.2810
14047W        W29941   6.945   8.516   4.186 -0.0105  0.0309 -0.2476
14048W        W29942  14.148  14.811   4.515 -0.0478 -0.1076  0.2549
14049W        W29943   8.395  16.664   4.865 -0.1075  0.1047 -0.2279
14050W        W29944  17.646  14.183   0.133  0.3468 -0.1184  0.0405
14051W        W29945  15.905  11.231  14.392 -0.1888 -0.1938 -0.1560
14052W        W29946  15.088  13.686   3.958  0.0081 -0.0604 -0.0006
14053W        W29947  13.403  12.985  15.093  0.0811  0.0842  0.3123
14054W        W29948   4.634  10.117  13.639  0.0003 -0.0743 -0.1311
14055W        W29949   5.760   7.638  11.501  0.3897  0.1881 -0.2945
14056W        W29950   0.364  13.224   1.146 -0.1209  0.2448  0.0761
14057W        W29951   0.746  11.591  15.227 -0.2067 -0.1924  0.0875
14058W        W29952  11.186   2.832   4.710 -0.0437 -0.0421 -0.1525
14059W        W29953  10.959  18.449  13.642 -0.0839 -0.0958 -0.2006
14060W        W29954   8.493  15.728   4.743  0.1324 -0.0213  0.2481
14061W        W29955  12.588   8.619   5.561  0.1004 -0.1840  0.1107
14062W        W29956  11.748  17.847  14.666 -0.1012  0.3073 -0.0408
14063W        W29957   8.442   4.691  13.115  0.0998  0.1492  0.0985
14064W        W29958  17.523  10.336  13.554  0.1543 -0.0491 -0.2527
14065W        W29959  17.093   7.020   4.077  0.0851  0.3076 -0.0389
14066W        W29960  10.659  18.648  14.632  0.1523 -0.1191  0.2618
14067W        W29961  14.036   6.606   4.765  0.3109 -0.0487 -0.1502
14068W        W29962   1.311   1.861   0.895  0.0715  0.1040  0.2225
14069W        W29963   4.052   9.391  11.947 -0.0255  0.0858  0.0100
14070W        W29964   8.776   3.393   5.494 -0.0573  0.0022 -0.0296
14071W        W29965   7.449   3.801   0.584  0.1037 -0.0377 -0.1548
14072W        W29966  14.590  17.471   1.120  0.2036  0.2783 -0.2095
14073W        W29967  17.080  15.450  12.906 -0.0650 -0.0088 -0.0408
14074W        W29968   0.191   8.013   0.655  0.0720 -0.0915 -0.0253
14075W        W29969  14.610   0.865   1.282  0.1712 -0.0037  0.0232
14076W        W29970  10.531  18.650  11.274  0.0435 -0.1298  0.2045
14077W        W29971  11.087  14.149  10.943 -0.1010  0.1595 -0.3059
14078W        W29972  14.186  13.693   3.985 -0.2256 -0.1578 -0.1107
14079W        W29973  12.578   8.939   1.267 -0.2069 -0.1111  0.0379
14080W        W29974  14.297   2.375  10.675  0.2461  0.1391  0.3121
14081W        W29975  10.135   6.849  13.774 -0.1561  0.0208 -0.0352
14082W        W29976   8.903   3.640   5.901 -0.2166 -0.0768 -0.1312
14083W        W29977   8.712   8.791  13.015 -0.1079 -0.1737  0.1278
14084W        W29978  17.161  16.841   4.520  0.0842  0.0908  0.2348
14085W        W29979  17.384  14.391   0.523 -0.2027  0.1382  0.2789
14086W        W29980  14.463   2.976  11.833  0.1530  0.0948  0.0593
14087W        W29981   6.949   6.865  14.187 -0.0699  0.0177 -0.1872
14088W        W29982  14.665  12.083  13.145  0.0720  0.2139 -0.1712
14089W        W29983   2.683  15.955   3.605  0.4753 -0.1715  0.0231
14090W        W29984   8.829  17.424  10.907  0.4114 -0.0181 -0.0259
14091W        W29985  10.191  17.173  13.539 -0.0669 -0.0730 -0.1912
14092W        W29986  12.089  11.889   2.051 -0.1189 -0.2821  0.1835
14093W        W29987   5.497  13.745  14.546  0.2881  0.1375 -0.1840
14094W        W29988   0.145  12.976   5.745 -0.0967  0.0336  0.2596
14095W        W29989  13.615  17.743   5.174 -0.1991 -0.2365 -0.0622
14096W        W29990   7.367  15.186  11.161  0.2227  0.0325 -0.0431
14097W        W29991  15.389   6.602  13.582  0.0836  0.0443  0.2028
14098W        W29992   9.377   7.295  11.644  0.0276 -0.1508  0.1506
14099W        W29993   7.817   1.154  15.552  0.0019  0.2406  0.1821
14100W        W29994  17.422  16.108   2.193  0.2941 -0.0787  0.0450
14101W        W29995   4.756  12.219   4.544 -0.2013 -0.3402  0.0209
14102W        W29996  15.064   1.368  12.002  0.2183  0.1655  0.0910
14103W        W29997   4.691  14.827   9.507 -0.1141 -0.0706 -0.0436
14104W        W29998   9.450   1.952   2.180  0.0940  0.2377  0.0096
14105W        W29999   2.614   3.164   2.382 -0.2579  0.0766 -0.0475
14106W        W30000   3.468   7.669  11.210 -0.0921  0.0798 -0.1099
14107W        W30001  15.083   1.212  12.583 -0.1239  0.0948 -0.4446
14108W        W30002   2.324  14.021   4.095 -0.2894  0.1056 -0.2256
14109W        W30003   0.255   9.081  12.009 -0.0509  0.5125 -0.2669
14110W        W30004  15.649  16.622   1.140 -0.5156 -0.0583 -0.0142
14111W        W30005   1.223  14.031  14.923  0.0796 -0.0368  0.1428
14112W        W30006  13.577  10.131   0.819 -0.2090 -0.2977 -0.1551
14113W        W30007  16.047   6.449  12.015  0.2892  0.1307 -0.0238
14114W        W30008  11.814   3.135  14.737 -0.1009  0.1260  0.0134
14115W        W30009  10.873   6.556  13.924 -0.0210  0.0945  0.1853
14116W        W30010   4.006  16.357   9.461 -0.1199  0.0054 -0.0629
14117W        W30011  10.841   9.631  15.575  0.1299  0.0274  0.0017
14118W        W30012   1.397   6.770   2.669 -0.2789 -0.0868  0.1653
14119W        W30013  12.537   6.463  12.433  0.1166 -0.2327  0.1579
14120W        W30014  13.458   3.646   4.436 -0.0990  0.2228 -0.1558
14121W        W30015   4.346   8.488  10.775 -0.0940  0.1800 -0.0521
14122W        W30016   6.521   6.978  11.358 -0.1226 -0.1307 -0.2609
14123W        W30017   9.249   4.719  15.180  0.2007  0.0597  0.0926
14124W        W30018   1.106   5.326   0.208 -0.1304  0.1031 -0.0117
14125W        W30019   9.723  10.887   4.014  0.0283 -0.2263 -0.0942
14126W        W30020  12.371  10.625   5.519 -0.3610  0.0148  0.0550
14127W        W30021  12.117   9.013  15.269  0.1251 -0.1469  0.1488
14128W        W30022  13.850   8.715   0.123 -0.2945 -0.1406  0.0480
14129W        W30023  16.852   0.279  13.290 -0.2065 -0.0826 -0.0464
14130W        W30024  13.428  13.350  14.720 -0.4349 -0.3776  0.2533
14131W        W30025  11.252  13.091  14.925 -0.0377  0.0004 -0.2081
14132W        W30026  16.899   4.091   0.905 -0.1718 -0.0447  0.0951
14133W        W30027  16.316   0.420   1.239  0.1097 -0.0517 -0.1928
14134W        W30028  10.303   4.379   0.295  0.1300  0.1224  0.1696
14135W        W30029   7.534  10.629   0.466 -0.0883 -0.1762 -0.0602
14136W        W30030   9.150  11.275  11.895  0.0538 -0.2337  0.3084
14137W        W30031  10.086   8.228   2.377  0.1746  0.0707 -0.0249
14138W        W30032  16.000  13.896  14.813 -0.1252  0.0464 -0.0009
14139W        W30033   0.528  11.740  12.103  0.2807  0.1766 -0.1148
14140W        W30034   5.366   9.422   4.935 -0.0943  0.1244  0.0319
14141W        W30035  10.178  13.353   1.999  0.3000  0.2324 -0.2214
14142W        W30036  12.613  16.499  12.028  0.3326 -0.0581  0.1895
14143W        W30037   3.064  17.305   0.289  0.2259  0.4572 -0.1507
14144W        W30038   9.976   2.291   1.521  0.3157 -0.0861 -0.0794
14145W        W30039  18.581  11.741  14.222 -0.3864  0.0341 -0.0750
14146W        W30040  17.866  13.787  10.404  0.0686 -0.5378  0.1787
14147W        W30041  18.017  16.342   1.633  0.2132 -0.0775 -0.1613
14148W        W30042   8.452   8.011  12.006 -0.2046 -0.0592  0.1804
14149W        W30043  12.684  13.436   2.774  0.1499 -0.0625  0.3533
14150W        W30044   8.627   0.633   2.843 -0.0078 -0.2173 -0.3915
14151W        W30045  12.074   1.469   3.845 -0.1360 -0.1026  0.0565
14152W        W30046   4.161  18.341   3.416 -0.0787 -0.3309 -0.1021
14153W        W30047  16.232  18.202   5.199 -0.1251 -0.3258 -0.0267
14154W        W30048  10.387   7.222   1.357 -0.0378  0.1027 -0.2080
14155W        W30049  17.258  13.386   2.005 -0.2999 -0.0674 -0.2477
14156W        W30050   5.468   6.378   1.217 -0.3320 -0.0212  0.0505
14157W        W30051   4.417  16.525   5.121  0.0769 -0.2821  0.1196
14158W        W30052   1.460  13.865  14.100  0.1112 -0.1953  0.3492
14159W        W30053   7.336  17.681  11.389  0.2740  0.0095  0.1440
14160W        W30054   0.605  12.497   1.777  0.0272  0.2990 -0.2328
14161W        W30055  12.325  17.094  13.676 -0.0454  0.0537 -0.0718
14162W        W30056   8.836   8.969   0.812 -0.2225 -0.0306  0.1249
14163W        W30057   0.144   9.470  14.503 -0.3255 -0.1955 -0.1005
14164W        W30058  14.803   6.936   2.570 -0.1837 -0.2614 -0.3268
14165W        W30059  18.302   7.240  11.729 -0.0130 -0.0506  0.0347
14166W        W30060  13.474  12.110  11.761  0.2312  0.1241  0.3288
14167W        W30061  10.733   0.475   9.668  0.4539 -0.1010 -0.1764
14168W        W30062  13.560   8.389   3.611  0.0938  0.0260 -0.0842
14169W        W30063   6.518  13.563   1.824 -0.1422 -0.1787 -0.2240
14170W        W30064   3.551   8.902  11.346  0.0370  0.1394 -0.1496
14171W        W30065   7.291   3.797  14.443  0.2030 -0.1580  0.2064
14172W        W30066  12.842  15.523  11.982  0.1560  0.0693  0.0644
14173W        W30067  15.605  12.591  13.847 -0.1066 -0.1060 -0.1206
14174W        W30068   4.756   2.476   5.749  0.2364 -0.0387 -0.0898
14175W        W30069   9.280   3.825   4.180  0.1766 -0.2431 -0.0883
14176W        W30070   0.698  14.054   1.172  0.1770 -0.0832  0.0449
14177W        W30071   6.834   0.400  10.868 -0.1056  0.0612 -0.2311
14178W        W30072   8.169   5.876  12.741  0.5486  0.0271 -0.0012
14179W        W30073   5.868   5.079   1.748  0.3442  0.0733 -0.0936
14180W        W30074   1.456  12.027  13.437  0.0404  0.5263  0.0348
14181W        W30075   2.222   7.816  15.369  0.1151 -0.0246  0.1660
14182W        W30076   6.985   0.536   1.377 -0.1216  0.2576  0.3318
14183W        W30077  11.694  17.835   1.497 -0.1682 -0.0540  0.0472
14184W        W30078   0.524  16.028   4.326 -0.5009  0.1394 -0.1806
14185W        W30079  16.705   4.591  14.176 -0.1646 -0.4222 -0.2531
14186W        W30080   1.911   3.711  11.943  0.1855 -0.2071 -0.1825
14187W        W30081  12.673   0.931   4.023 -0.0282  0.0823 -0.1881
14188W        W30082   2.870  16.303  15.306  0.1980  0.1099 -0.0769
14189W        W30083  12.448   4.675   5.899 -0.0523  0.0685 -0.1889
14190W        W30084  16.156   4.271  14.395  0.0045  0.0945 -0.1173
14191W        W30085  14.108  16.588   0.715 -0.1422 -0.2293 -0.1752
14192W        W30086  17.541   6.066   2.540  0.0375  0.2963 -0.0031
14193W        W30087   8.652  16.194  14.300  0.4519  0.2005 -0.2555
14194W        W30088  11.575   9.253  14.240  0.1944 -0.2375  0.1639
14195W        W30089   7.822   3.690   2.539  0.4248  0.1259 -0.5564
14196W        W30090   7.258   5.919   2.285  0.0324  0.1730  0.2077
14197W        W30091   2.543  15.461   1.952  0.0801  0.1932  0.0088
14198W        W30092  17.102   6.699  14.810  0.1956  0.5424 -0.1238
14199W        W30093   3.589   7.746   9.719  0.5096  0.0509  0.1123
14200W        W30094   3.356  14.815   4.003 -0.0264  0.2290 -0.0140
14201W        W30095   8.810  14.929   3.538  0.2433  0.2674  0.1315
14202W        W30096  17.660  15.618   2.899 -0.1230  0.0965  0.2241
14203W        W30097   7.862   6.704   5.958  0.1074  0.1259  0.0311
14204W        W30098  15.081   4.603   2.213  0.0143 -0.0655  0.0162
14205W        W30099   0.534  10.776   3.756 -0.1443  0.6759  0.0985
14206W        W30100  16.684   2.179  13.496 -0.1821  0.2876  0.3245
14207W        W30101  10.704   9.675  14.624  0.1072 -0.0050 -0.0041
14208W        W30102  14.280  14.312  13.374  0.1089 -0.1621 -0.4439
14209W        W30103  10.245  14.146   1.783 -0.0284 -0.2407  0.0146
14210W        W30104   9.990   2.887  11.528 -0.1962  0.1709 -0.0318
14211W        W30105  10.674  16.161   3.251 -0.1022 -0.2526  0.0276
14212W        W30106   7.425   8.408   4.945  0.0622 -0.2275 -0.2258
14213W        W30107   8.818   6.406   4.399 -0.1451  0.2025  0.2927
14214W        W30108  13.098   7.360   6.126  0.0382  0.1302 -0.0499
14215W        W30109   8.586  14.952  11.429 -0.2817  0.1763  0.0077
14216W        W30110   3.456   2.983  13.305  0.0377  0.1849  0.0636
14217W        W30111   3.247   9.688  10.693  0.0374 -0.0899 -0.1399
14218W        W30112   2.309  14.750   2.302  0.0753 -0.2584 -0.0591
14219W        W30113   1.545   8.389  11.011  0.1295 -0.0036  0.0774
14220W        W30114  15.163   9.870   2.364  0.1360  0.3072 -0.1758
14221W        W30115  11.914  17.303   3.102 -0.1043  0.3212 -0.0475
14222W        W30116   9.149   1.215   4.557  0.1322 -0.0023  0.2436
14223W        W30117   3.510   5.737   3.901  0.2738 -0.3590 -0.1981
14224W        W30118  17.596   9.486   5.038  0.0602 -0.0431 -0.2476
14225W        W30119   0.990  10.400   0.987 -0.1855 -0.0603 -0.0107
14226W        W30120  18.476   7.828  15.359  0.4370  0.2029  0.4633
14227W        W30121  15.987   1.855  15.261 -0.3797  0.0854  0.0885
14228W        W30122   7.688   9.930  12.214 -0.0931  0.0510 -0.0968
14229W        W30123   2.191   8.949   3.253  0.4011  0.1018  0.2554
14230W        W30124   0.803  18.274   0.781 -0.0471  0.2717 -0.0273
14231W        W30125   7.139   4.709   4.571  0.0705  0.2396  0.0866
14232W        W30126  17.374   6.952  12.293 -0.1011  0.0768 -0.1229
14233W        W30127   2.318  10.007  14.205  0.3186  0.0115 -0.2375
14234W        W30128  10.451   0.256   2.218  0.3830  0.1757 -0.0076
14235W        W30129  10.557  14.429   0.891  0.0672 -0.3714 -0.2056
14236W        W30130   2.878  14.292  12.071 -0.0965  0.2767  0.0738
14237W        W30131  18.039   6.986   4.446  0.2961 -0.1381  0.2408
14238W        W30132  16.658   4.220   1.889  0.1922  0.1000  0.1170
14239W        W30133   0.592  10.110  11.125 -0.1029 -0.2047  0.1778
14240W        W30134  17.218   4.189   0.280  0.1925  0.0643 -0.2299
14241W        W30135   9.829   9.075   1.837 -0.0235  0.0875 -0.0408
14242W        W30136   3.509   3.867   0.123  0.0718  0.1468  0.3027
14243W        W30137  11.411   2.957   3.178 -0.1900  0.0805  0.2376
14244W        W30138  13.827   7.949  13.363 -0.3575 -0.0311 -0.4776
14245W        W30139   2.116  13.344  10.865  0.0220  0.0477 -0.1362
14246W        W30140   6.496  10.621   4.961 -0.1439 -0.2902 -0.1049
14247W        W30141  14.489  14.042  14.587 -0.1023 -0.0648  0.0909
14248W        W30142   9.021  11.804   5.898 -0.2638  0.0320 -0.0146
14249W        W30143  13.862  14.691  13.952 -0.0936  0.0369  0.1881
14250W        W30144  15.607  14.135  15.234 -0.3223  0.4439 -0.1260
14251W        W30145   7.451  10.351  12.139 -0.1157 -0.1268 -0.0413
14252W        W30146  11.303  13.082  13.388 -0.1226  0.0718  0.2383
14253W        W30147   7.553  14.720   4.200 -0.1887  0.5073  0.0789
14254W        W30148  18.550  12.261  12.425 -0.1819  0.0393  0.1291
14255W        W30149   5.607   4.345   4.241  0.2845 -0.0101 -0.0024
14256W        W30150   8.612   5.726  11.924 -0.2042  0.0702  0.2059
14257W        W30151   0.367  11.238  15.114 -0.0220 -0.3360  0.0399
14258W        W30152   8.006   0.875  13.693 -0.2642 -0.7823  0.3004
14259W        W30153   6.453  13.157   0.767  0.1059 -0.1113 -0.2865
14260W        W30154  17.220   4.537  13.072 -0.2040 -0.1323 -0.1280
14261W        W30155  14.448  11.831   3.866 -0.3687 -0.0992 -0.0033
14262W        W30156  10.160   4.361  12.935 -0.1031  0.0648  0.2697
14263W        W30157   1.767   9.580  15.564  0.4119 -0.0787  0.0899
14264W        W30158  13.572  16.665   4.083 -0.0442  0.0810 -0.3485
14265W        W30159   9.882  13.075  10.732  0.0396 -0.3555 -0.0068
14266W        W30160   0.650   1.988  13.798 -0.2261  0.1500  0.0595
14267W        W30161  11.158   6.569  11.766 -0.1011  0.0092  0.0372
14268W        W30162  14.045  16.255   1.709 -0.0106 -0.2717 -0.2086
14269W        W30163   8.790   9.283  14.546  0.0498 -0.0795  0.0480
14270W        W30164   8.747   1.614  13.053 -0.0525  0.1111  0.3444
14271W        W30165   8.219   0.374  13.527  0.1555  0.0507  0.0551
14272W        W30166   2.869  13.479  12.446 -0.4353  0.0404 -0.2352
14273W        W30167  16.655   1.705   3.723 -0.0551  0.0610  0.1626
14274W        W30168   4.891   5.273  13.361 -0.0724  0.2636  0.0583
14275W        W30169  11.411  10.384  14.187 -0.3791 -0.0538 -0.3088
14276W        W30170   0.819   4.254   2.720 -0.1665 -0.0548  0.2131
14277W        W30171  10.985  16.441  12.611  0.1114  0.2590  0.2529
14278W        W30172  18.440   6.333   2.829  0.0526 -0.3128  0.2789
14279W        W30173  17.562  12.967   2.696  0.1242 -0.1553  0.4804
14280W        W30174  13.645  10.039   5.493 -0.3204 -0.1113 -0.0662
14281W        W30175  12.007  11.364   2.179 -0.2118 -0.2605  0.0720
14282W        W30176   0.691  17.946   1.812  0.0668 -0.1483 -0.4078
14283W        W30177   2.699   4.309   0.192  0.0512 -0.0231  0.1165
14284W        W30178  15.347  16.705   2.368  0.0590 -0.0332  0.1118
14285W        W30179   8.992   7.226   3.941 -0.2868  0.0201 -0.2515
14286W        W30180   0.973  12.391  11.942  0.0764  0.3196  0.1716
14287W        W30181   9.949  14.283  13.584  0.0618 -0.1982  0.0627
14288W        W30182  15.795   3.022  14.809  0.1977  0.0057  0.1683
14289W        W30183   2.392   7.153   4.203  0.3588 -0.2747 -0.2600
14290W        W30184   5.598  12.150  11.759  0.4120 -0.1232 -0.3134
14291W        W30185  15.421  15.701  12.104 -0.0147  0.0237 -0.1047
14292W        W30186   0.242  14.009  14.076  0.1549 -0.1128  0.1474
14293W        W30187   1.551   5.414   0.983  0.0094  0.2619 -0.1041
14294W        W30188   0.162  15.955  13.657  0.3085  0.0551 -0.4394
14295W        W30189  13.780  13.783   3.076 -0.0867  0.0364  0.1214
14296W        W30190  17.757  13.426   3.664  0.2458 -0.1993 -0.1354
14297W        W30191   8.432  16.674   0.548 -0.3867  0.1627  0.2548
14298W        W30192  17.863  15.788  15.453 -0.0478 -0.2584 -0.2308
14299W        W30193  16.234  14.185   2.714 -0.0500  0.2659 -0.2216
14300W        W30194  14.456   9.265   0.733 -0.1586 -0.1751 -0.0270
14301W        W30195  17.460  15.580   2.369 -0.1327  0.0081  0.1001
14302W        W30196   7.762   0.711  14.483 -0.1044 -0.1244  0.2711
14303W        W30197   1.783  13.546  14.923 -0.0953  0.2150  0.1903
14304W        W30198   9.669   9.805   0.760  0.2607 -0.1577  0.0231
14305W        W30199  15.065  17.891   2.855  0.0347  0.2955  0.1211
14306W        W30200   8.011  14.609   4.106  0.0035  0.2992  0.0448
14307W        W30201   4.880   8.121   4.869  0.0048  0.1845  0.1600
14308W        W30202   1.016   2.203   3.810  0.0396 -0.0106 -0.0182
14309W        W30203   9.086  10.431  13.209  0.0985 -0.2727 -0.0502
14310W        W30204   4.408  17.251  12.403  0.1230  0.0748  0.0133
14311W        W30205  17.561  11.986   3.416  0.2904 -0.1602  0.2839
14312W        W30206  16.812   9.451  13.624  0.2622 -0.2404  0.0900
14313W        W30207   9.220  14.474  10.929  0.1465  0.1809 -0.0235
14314W        W30208  14.518   5.222  10.840  0.4000 -0.1008  0.0732
14315W        W30209   9.497  13.181   5.791  0.1412 -0.0345  0.2922
14316W        W30210  15.012   2.135  14.991 -0.0403  0.2071  0.1634
14317W        W30211   9.938  12.111   1.773  0.1316 -0.1638  0.0420
14318W        W30212   8.859   7.159  11.491  0.2228 -0.1638  0.2586
14319W        W30213  18.032   3.781  11.378  0.2663 -0.1984  0.0760
14320W        W30214  11.008  10.950   3.894  0.1594  0.4047 -0.0041
14321W        W30215   1.406  14.737  10.866 -0.0557 -0.0667  0.1231
14322W        W30216   0.319   4.944   4.666  0.3575 -0.0822  0.1235
14323W        W30217   5.802   7.340   2.136  0.0021 -0.4130 -0.2383
14324W        W30218   5.249   5.179  11.848  0.2035  0.1337 -0.0162
14325W        W30219  14.333  15.782   6.002  0.1822  0.1750 -0.1315
14326W        W30220   4.480   4.090  11.063  0.0630  0.0890 -0.1035
14327W        W30221  11.249   3.019   2.730 -0.0211 -0.0336  0.0971
14328W        W30222  14.425  11.683  12.354 -0.0893 -0.1476 -0.2156
14329W        W30223   5.900   9.398   0.515 -0.3509 -0.1537 -0.0309
14330W        W30224   3.370   3.066   2.015  0.1213 -0.0890  0.0166
14331W        W30225   5.749  10.279  14.927  0.1050 -0.1736 -0.0134
14332W        W30226   1.365   4.716   0.386  0.0642  0.3367  0.1488
14333W        W30227   9.755  15.535   4.685  0.1207  0.3629  0.1236
14334W        W30228  18.639  14.902  11.588  0.0113 -0.0078 -0.0714
14335W        W30229   0.995  17.039   5.685 -0.0001  0.2135  0.1047
14336W        W30230  10.695   8.633   5.872  0.1004  0.0108  0.1895
14337W        W30231   0.323   5.158   2.503 -0.0034  0.0298  0.1250
14338W        W30232   3.404   5.750  11.696 -0.2081 -0.0072  0.0686
14339W        W30233   2.680  18.663  11.826  0.1875 -0.3147  0.2152
14340W        W30234   0.543  14.907  15.593  0.1371 -0.1510  0.0958
14341W        W30235   7.048   5.765   0.524  0.0968 -0.0077  0.0053
14342W        W30236   8.743   0.234   3.132 -0.0549  0.2657 -0.0692
14343W        W30237   8.228  16.215  12.453 -0.1968 -0.2032  0.5353
14344W        W30238   3.257   6.362  14.527  0.1439  0.2175  0.0639
14345W        W30239  17.508  10.024  11.369  0.2342  0.0042 -0.1493
14346W        W30240  18.541   1.598  11.046  0.0660  0.0531 -0.2184
14347W        W30241   3.601   4.553   2.052 -0.2719  0.2814  0.1425
14348W        W30242   6.369  15.675   3.017  0.0280  0.3097  0.0863
14349W        W30243   2.828  12.220  10.706  0.0377  0.2543  0.0758
14350W        W30244   9.115  14.884   5.064  0.2955  0.0435 -0.1838
14351W        W30245  11.051   3.419  12.026 -0.1852  0.1670 -0.0677
14352W        W30246   2.943  13.087   1.247  0.1425 -0.0181 -0.0489
14353W        W30247   0.164  15.337  13.111 -0.1522 -0.0051  0.1023
14354W        W30248  15.199  16.670   0.979 -0.1169 -0.0552 -0.1533
14355W        W30249  12.838  10.294  13.847  0.1239 -0.0856 -0.0904
14356W        W30250   5.949   4.176  12.350 -0.2139 -0.1206  0.0653
14357W        W30251   7.573  16.097   4.884  0.2592  0.0766 -0.1029
14358W        W30252   2.196  17.346   1.696  0.1120 -0.0618 -0.1658
14359W        W30253  12.311  16.281   3.704  0.1071 -0.5431  0.0411
14360W        W30254   1.303  15.936   2.342 -0.0367 -0.2162 -0.0014
14361W        W30255  11.507  11.584  12.208 -0.1565 -0.0840  0.1773
14362W        W30256  15.752  12.726   4.910  0.2119  0.0069  0.0917
14363W        W30257   6.456   5.010   0.895  0.0143  0.1009 -0.0554
14364W        W30258   4.197   4.748   2.503  0.1252 -0.0717  0.4691
14365W        W30259   3.902  10.316   2.795  0.0195  0.1141  0.2807
14366W        W30260   2.436   2.804  11.889  0.0489 -0.2109 -0.1300
14367W        W30261   8.531   4.276   3.543 -0.2581  0.2016  0.2291
14368W        W30262   4.184  11.546  12.219 -0.1136 -0.0867 -0.0031
14369W        W30263   4.407   3.547  12.118  0.0716  0.1719  0.1644
14370W        W30264  14.112   8.059   0.770  0.0059 -0.0281  0.1935
14371W        W30265  12.724   5.345  14.485  0.1121  0.0691 -0.2452
14372W        W30266   2.459  18.373   1.628 -0.0597 -0.0941  0.0368
14373W        W30267   1.361  18.745  11.023 -0.0652  0.3064 -0.1757
14374W        W30268   3.351   9.152   4.712  0.0230  0.4203 -0.0037
14375W        W30269   7.389  10.287   4.684 -0.4991  0.0276  0.1520
14376W        W30270   0.794   1.296  14.275  0.1236 -0.3415  0.2055
14377W        W30271   0.329   2.380  12.683  0.1050 -0.0862  0.0527
14378W        W30272   0.238  18.336   1.943 -0.0532  0.0009  0.2038
14379W        W30273   0.320  17.002   2.365 -0.0932 -0.0077 -0.2653
14380W        W30274   0.386   9.101   4.115  0.1424  0.2626 -0.0916
14381W        W30275   2.923   8.119   3.976  0.0728  0.0186  0.2361
14382W        W30276  12.181  15.112  11.324 -0.0912 -0.0760  0.1020
14383W        W30277  16.717  14.082   4.402  0.1288 -0.0575  0.0685
14384W        W30278   9.150   1.445  11.498 -0.1138 -0.1374  0.1668
14385W        W30279  18.163   6.300  11.621  0.2617 -0.0865  0.2507
14386W        W30280  18.504   5.417   3.760 -0.4032 -0.1509 -0.0781
14387W        W30281  15.455  17.067   1.886  0.0215 -0.3488 -0.3214
14388W        W30282   6.580  18.616  10.638  0.1811 -0.0200  0.1710
14389W        W30283   2.599  16.369   2.366  0.2713  0.0740 -0.1182
14390W        W30284  12.631  14.869  12.321 -0.1106 -0.3439 -0.0483
14391W        W30285  16.499  13.283  15.439  0.2586  0.0379 -0.3065
14392W        W30286   3.149   5.227   5.843 -0.0868 -0.0221 -0.1336
14393W        W30287  16.904   8.940  11.784  0.0278 -0.0152 -0.1946
14394W        W30288   0.737  11.714   2.742 -0.3019  0.1701 -0.0004
14395W        W30289  15.199   2.438  13.205 -0.3599  0.2885  0.0097
14396W        W30290  15.952  15.255   0.069  0.1807 -0.1894 -0.4224
14397W        W30291   4.745  13.185   5.331  0.5302 -0.0031  0.0962
14398W        W30292  13.546   7.205   2.945  0.0915  0.1041 -0.3867
14399W        W30293   1.899  13.323  12.006 -0.1553  0.1992  0.0280
14400W        W30294  10.806   3.116   1.019 -0.3127 -0.2549  0.1956
14401W        W30295  13.398  14.299   3.213 -0.3793  0.2345 -0.3416
14402W        W30296  13.106  10.043   0.726 -0.0184  0.2053 -0.3072
14403W        W30297   3.786   5.594   2.010 -0.4210  0.2498 -0.2160
14404W        W30298  11.566   5.619  13.908  0.3148  0.0021  0.0129
14405W        W30299   2.260  10.909   3.722 -0.0744 -0.3374 -0.1633
14406W        W30300   2.628  13.500   1.289  0.0790  0.0030 -0.2858
14407W        W30301  11.396   4.204   1.040 -0.0585 -0.3208  0.0052
14408W        W30302   8.533  18.704  15.100 -0.2306 -0.1966 -0.4114
14409W        W30303   7.856   1.446  11.446  0.2759  0.1603  0.0926
14410W        W30304  16.610  11.234  15.601 -0.0318  0.0766  0.2734
14411W        W30305   8.026   6.164  15.285 -0.0326 -0.2026 -0.0970
14412W        W30306  17.294   4.641  15.020  0.1693  0.1967 -0.0717
14413W        W30307   8.771  13.107   3.688  0.1319 -0.2949 -0.3582
14414W        W30308  16.809  12.031  12.391 -0.1769  0.0447  0.0244
14415W        W30309  17.816   1.702  13.924  0.0046 -0.1911  0.1356
14416W        W30310   9.964   7.923   4.313  0.1256  0.0126  0.2803
14417W        W30311   9.556  10.153  13.416 -0.2198  0.2313  0.1135
14418W        W30312   0.933   8.843   2.165  0.2146 -0.0896  0.1478
14419W        W30313   8.402   1.773  10.959  0.2416 -0.1186 -0.1625
14420W        W30314  11.375  14.322   4.157  0.2971 -0.0040  0.4405
14421W        W30315   8.731   4.136  11.895  0.1235  0.1777  0.0529
14422W        W30316  11.694   5.616   2.773 -0.1637  0.0947  0.1621
14423W        W30317   7.623   5.405  12.295 -0.2196  0.2594  0.0429
14424W        W30318   5.047  18.120  13.511 -0.2935  0.1830  0.3065
14425W        W30319   0.704  10.949  11.658  0.4100 -0.1158 -0.0578
14426W        W30320   2.990   8.260   5.298  0.1287 -0.0870  0.4056
14427W        W30321  11.692  17.268   1.442  0.7937 -0.1996  0.0605
14428W        W30322   0.112   4.128   4.784 -0.2997  0.0527 -0.0549
14429W        W30323   5.642  10.297   2.803  0.1278  0.0849 -0.2326
14430W        W30324   5.557   6.879   2.195 -0.0752 -0.0418 -0.2208
14431W        W30325   4.097   9.103   3.951  0.0988 -0.1366 -0.0916
14432W        W30326   4.658  15.675   9.426 -0.0890 -0.0364 -0.1345
14433W        W30327  17.764   6.483   1.275 -0.2919 -0.0972 -0.2843
14434W        W30328  13.449   2.869  14.149 -0.2055  0.1513 -0.0167
14435W        W30329   5.784   8.439   0.081  0.0558 -0.0039 -0.0613
14436W        W30330   5.326  14.630  12.344  0.2996 -0.3017  0.2366
14437W        W30331  16.852  14.947  14.193  0.0410  0.2175 -0.4336
14438W        W30332   3.810   7.567  13.164  0.0947  0.2004  0.0242
14439W        W30333   4.622  11.257  11.874  0.0464  0.2308  0.2439
14440W        W30334   5.049  12.309   2.436  0.0522 -0.0225 -0.1673
14441W        W30335   1.198   4.432   4.143 -0.1317  0.0780 -0.0949
14442W        W30336   5.267   2.107   2.915  0.2679 -0.2062  0.2798
14443W        W30337   6.048  16.657  10.325 -0.2380 -0.1938 -0.0804
14444W        W30338   4.169  13.624   5.219  0.0065  0.0918  0.1430
14445W        W30339   9.407  13.554   0.172  0.1006  0.0032  0.1341
14446W        W30340   3.565   7.513  11.732  0.1342 -0.1264  0.4506
14447W        W30341  14.342  11.111   1.301 -0.0477  0.1210  0.1409
14448W        W30342   3.533  15.189   0.114  0.1026 -0.0367 -0.0253
14449W        W30343  18.072   9.513  10.913  0.0826  0.0291 -0.5317
14450W        W30344   2.134  13.247  14.621 -0.0692 -0.0042  0.2139
14451W        W30345   9.965   2.084  13.218  0.0275 -0.0281  0.0332
14452W        W30346   5.314   7.412   2.016 -0.0692 -0.2071 -0.0971
14453W        W30347  17.970  15.673   4.125  0.0806 -0.0252 -0.4192
14454W        W30348  18.566   1.203   5.070 -0.1124  0.0260  0.1013
14455W        W30349   8.829   3.613   4.934 -0.1839 -0.1059  0.0858
14456W        W30350   9.898  12.289  13.610  0.3201  0.0061  0.2038
14457W        W30351  16.391   4.180  15.192 -0.2516 -0.1014 -0.0347
14458W        W30352   5.967  14.579   4.501  0.3157  0.0669 -0.1796
14459W        W30353   5.354  14.151   2.066  0.1278 -0.1246  0.1241
14460W        W30354   2.522  10.690  15.287 -0.1855 -0.0363 -0.2915
14461W        W30355   1.941   0.133   3.666 -0.0311  0.0468  0.0732
14462W        W30356   1.922   6.951  12.571  0.1155  0.2391 -0.3262
14463W        W30357   3.237   1.372  13.664  0.1810 -0.4414 -0.1101
14464W        W30358   8.056  11.319   2.072 -0.1696  0.2397  0.1299
14465W        W30359   9.884   5.331  13.182  0.0864 -0.0573 -0.0640
14466W        W30360  11.997   0.241  11.241 -0.2400 -0.0461  0.3117
14467W        W30361   4.057   6.271  11.566  0.2460  0.0795  0.0567
14468W        W30362  16.930   2.142   2.933  0.0188 -0.2748 -0.1511
14469W        W30363   4.420  17.100   1.448  0.1973 -0.3987  0.3625
14470W        W30364   4.085   6.293   4.612  0.0300 -0.1024  0.0739
14471W        W30365  11.690  13.902   3.410  0.1849  0.0846 -0.1043
14472W        W30366   9.648   8.661  12.736 -0.3291  0.1750  0.0921
14473W        W30367  15.479  17.100  14.846  0.1508  0.0120  0.0397
14474W        W30368   1.932   6.215   0.887 -0.2205 -0.0368 -0.1812
14475W        W30369  12.367   4.988   3.290  0.1806  0.3241  0.2699
14476W        W30370  10.928   6.737   3.178  0.3352 -0.2053  0.2098
14477W        W30371  17.218   7.249   1.189  0.0027  0.2575  0.2421
14478W        W30372  13.502   6.764  14.535 -0.1698 -0.2751 -0.0158
14479W        W30373  14.219  10.136   4.012  0.0676 -0.2315 -0.1597
14480W        W30374   7.014  15.712  13.901  0.1690 -0.0131 -0.1468
14481W        W30375   7.339  10.575   5.294 -0.2162  0.1084  0.0246
14482W        W30376  16.084  17.293   5.402 -0.0455  0.1554 -0.1361
14483W        W30377  15.841  13.539  13.288 -0.1332  0.0174 -0.2003
14484W        W30378   2.845  12.623   2.955 -0.0404  0.0274 -0.1086
14485W        W30379  13.215  17.837   1.861 -0.3692 -0.2554 -0.1489
14486W        W30380   8.335   1.263  10.148 -0.0366  0.0216  0.0047
14487W        W30381   6.812   1.261   0.845  0.3445  0.1457  0.2664
14488W        W30382  17.861  14.187   0.661  0.1330 -0.1388  0.1463
14489W        W30383   9.430   8.236  12.678  0.1674  0.0277 -0.0921
14490W        W30384   1.488   3.346   5.203 -0.1911 -0.0067 -0.0945
14491W        W30385   6.203   5.687  12.530  0.0679  0.0841  0.2161
14492W        W30386  14.766   1.893   4.101 -0.3867  0.2342 -0.0183
14493W        W30387  13.694   2.201   5.724  0.0393  0.2877 -0.1494
14494W        W30388  17.292   8.698   2.698  0.0705  0.2345 -0.5184
14495W        W30389  12.279  13.114   1.168  0.0041  0.0387 -0.1220
14496W        W30390   9.199  10.163   3.687  0.1255 -0.0033  0.0269
14497W        W30391   1.502   1.102   3.898 -0.3654 -0.0127  0.2171
14498W        W30392  18.314  18.477   4.814  0.0963  0.1527  0.2769
14499W        W30393  13.893   6.876   5.216 -0.2497 -0.0889  0.0090
14500W        W30394  12.383   5.117  11.869  0.1312 -0.1054  0.0999
14501W        W30395   4.481   2.482   0.614  0.2039 -0.0815  0.0157
14502W        W30396   7.476   7.472   3.398 -0.0596  0.3608 -0.1398
14503W        W30397   7.177   1.973   1.588 -0.2358  0.0099  0.1079
14504W        W30398   9.371   1.209  10.133 -0.0401 -0.1776  0.1355
14505W        W30399   5.740  14.116  13.860  0.0293 -0.3268 -0.0368
14506W        W30400   3.532   1.395   1.956  0.1103  0.2106  0.2381
14507W        W30401   1.823   4.687  10.959  0.1353 -0.1592 -0.1715
14508W        W30402  14.080  13.864  11.411  0.0548  0.0491 -0.0551
14509W        W30403   7.914   6.438   2.637  0.1319  0.1703  0.0997
14510W        W30404   0.163   4.658  13.573  0.1707  0.0366 -0.3104
14511W        W30405  12.665   5.266  15.023 -0.2879 -0.0763 -0.2321
14512W        W30406  13.120  13.784  12.907 -0.0912 -0.1213  0.1853
14513W        W30407   1.626   0.157  14.220  0.1422 -0.2652  0.1129
14514W        W30408   2.398  16.393  13.602  0.0643 -0.0401  0.1360
14515W        W30409  15.589   1.637   3.144  0.0966  0.0429 -0.3770
14516W        W30410   6.015  17.687   1.629  0.0148 -0.1567 -0.1316
14517W        W30411   4.814  17.550  12.564 -0.1114 -0.0984 -0.2629
14518W        W30412  16.918  17.617  11.546 -0.0507  0.0182  0.2731
14519W        W30413  17.232  13.401   0.454  0.0273  0.1293  0.1525
14520W        W30414  16.712  12.658   0.976 -0.0193  0.3741  0.1088
14521W        W30415  18.292   8.073  10.231 -0.1522  0.2227 -0.2424
14522W        W30416  13.927  12.805   5.992  0.1138 -0.3750 -0.2724
14523W        W30417   8.948   5.245  13.606 -0.1621  0.0840 -0.1750
14524W        W30418   4.853   3.443   2.703 -0.2477 -0.1904  0.1053
14525W        W30419   8.266  13.920   0.352  0.0181 -0.0878  0.2149
14526W        W30420   0.858   9.455  10.775 -0.0069 -0.0876  0.0673
14527W        W30421  10.051  15.061   5.824  0.0328  0.0850  0.0885
14528W        W30422   5.564   3.952  12.190  0.2025  0.2281 -0.0404
14529W        W30423   6.234  14.034   1.761 -0.0364 -0.0205  0.1950
14530W        W30424   3.410  13.907   1.256  0.0873  0.3360 -0.2126
14531W        W30425  17.332   8.793  12.083  0.1285 -0.2524  0.2462
14532W        W30426   7.114   6.717   2.418  0.0587  0.0237 -0.0169
14533W        W30427   8.873   2.661   2.201  0.0820  0.1472 -0.1523
14534W        W30428  13.127   1.393  15.261  0.0253  0.0303 -0.3876
14535W        W30429   5.584  12.762   1.803  0.1613  0.2125 -0.0952
14536W        W30430   0.303   5.068  12.312 -0.1470 -0.0498 -0.2964
14537W        W30431   7.540   7.613   1.593  0.0969 -0.1288  0.2094
14538W        W30432  10.412   5.114  11.767  0.1649  0.2940 -0.0151
14539W        W30433   7.482  15.172   1.910 -0.0153 -0.1238 -0.0514
14540W        W30434   3.428  16.756  11.163  0.2933 -0.3134  0.1660
14541W        W30435  11.900   8.330  15.185  0.0777 -0.1782  0.0812
14542W        W30436  17.342   5.439  13.980  0.0702  0.2734 -0.1678
14543W        W30437   8.026  17.274  13.932  0.2558 -0.2655 -0.0695
14544W        W30438   9.609   8.329  13.668  0.1191  0.0693  0.0705
14545W        W30439  13.046  14.754  15.174  0.1761  0.1395  0.3150
14546W        W30440   1.886   7.702  14.142  0.1006  0.1371 -0.1159
14547W        W30441   5.586   5.531  13.006 -0.1286  0.1017 -0.0556
14548W        W30442  10.011  10.818  11.676 -0.3652  0.1669  0.0016
14549W        W30443  17.373   2.798  13.201 -0.0575 -0.1389  0.4011
14550W        W30444  17.819   5.460  14.704 -0.0036 -0.2269 -0.1073
14551W        W30445  17.984   6.836  11.254  0.0169  0.1947 -0.1142
14552W        W30446   1.337  15.485   2.749 -0.2078 -0.0399 -0.0035
14553W        W30447  17.213   7.208  11.026 -0.3937 -0.0837  0.2241
14554W        W30448  11.961   2.925   3.668 -0.0624 -0.1322 -0.0076
14555W        W30449   4.584   2.434  10.353 -0.0757 -0.0150  0.1296
14556W        W30450  11.849   1.299  14.601  0.0392 -0.0033 -0.0110
14557W        W30451  15.112  11.757   5.889 -0.1648  0.2076  0.2382
14558W        W30452   5.359  18.560  13.536 -0.0184  0.0812 -0.0059
14559W        W30453   8.748   3.077  14.879 -0.2341 -0.0412  0.2544
14560W        W30454   4.862   5.524  10.937 -0.2602 -0.0845 -0.0598
14561W        W30455   5.273   9.024   3.044  0.1589  0.2117 -0.0741
14562W        W30456   4.438   1.420  10.538  0.1146  0.0177 -0.1645
14563W        W30457  10.203  15.976  12.701  0.0872 -0.1050 -0.0708
14564W        W30458  16.297  18.330  11.110 -0.3386 -0.2316 -0.2508
14565W        W30459  17.231   2.921  13.908 -0.1184  0.0648 -0.1333
14566W        W30460  11.362  18.675   1.836  0.0901 -0.0793 -0.0139
14567W        W30461  10.853   2.807  13.179 -0.0317 -0.1888 -0.1042
14568W        W30462   0.032  10.562  11.928  0.2278  0.0284  0.2516
14569W        W30463   1.921   8.558   5.213 -0.0239  0.1074 -0.0659
14570W        W30464   7.345   6.498  11.638  0.0189  0.0154  0.0942
14571W        W30465   9.875   5.469  11.173  0.0820  0.2581  0.0738
14572W        W30466   4.993   5.788   1.772  0.4196 -0.1731  0.0021
14573W        W30467   3.149   1.450   2.679 -0.0667  0.1470  0.2390
14574W        W30468   7.784   5.547   4.795  0.0605  0.2675  0.0702
14575W        W30469   8.491   3.973   2.471 -0.0138  0.4829  0.2720
14576W        W30470  16.098  15.193  11.722  0.1548  0.4167 -0.1491
14577W        W30471   3.814  15.364  11.122  0.3298  0.0237 -0.1553
14578W        W30472  11.794  13.669  14.732 -0.2057 -0.0528  0.1379
14579W        W30473   2.502   7.935   3.042 -0.1119 -0.0651 -0.1504
14580W        W30474   3.659   1.006  12.059  0.0811 -0.1000  0.0013
14581W        W30475  16.698  15.085  13.740  0.0670  0.0541  0.0399
14582W        W30476   8.407   9.761  12.966  0.2276  0.0144 -0.1343
14583W        W30477   2.356  14.354  13.997  0.1090 -0.1389  0.0904
14584W        W30478   8.110  11.785   0.392 -0.0543 -0.0544 -0.3591
14585W        W30479  17.763   8.942  12.809  0.0915 -0.0920  0.2118
14586W        W30480   7.824   2.446   0.926  0.1007 -0.2056 -0.2009
14587W        W30481   7.934   6.781   4.728 -0.1710 -0.1378  0.0332
14588W        W30482   2.589   2.276   5.516 -0.2125 -0.4139 -0.0039
14589W        W30483   1.954   6.336  14.554  0.2271 -0.0411 -0.2125
14590W        W30484  16.020   6.890   0.418 -0.2265 -0.0860  0.1528
14591W        W30485   3.051  10.290  14.389  0.0579 -0.1882  0.2178
14592W        W30486   5.038   0.863   1.112  0.3537  0.1104  0.2171
14593W        W30487   1.665   8.478   1.049  0.1539 -0.0979  0.2180
14594W        W30488  10.762  11.519  13.482 -0.0855 -0.1555  0.1199
14595W        W30489  11.242   0.731  14.510  0.0833 -0.1774  0.1295
14596W        W30490  14.370   8.257   2.034 -0.3262  0.1671 -0.0400
14597W        W30491  18.157  18.463  13.934 -0.0222 -0.0449  0.0377
14598W        W30492  18.467   3.598   3.134  0.2489  0.2415  0.4702
14599W        W30493  13.727  17.836  13.532 -0.1137  0.1896 -0.3260
14600W        W30494   4.653  12.779   1.981 -0.0345 -0.2218 -0.1079
14601W        W30495  17.023  15.121  14.701 -0.2509  0.0319  0.0066
14602W        W30496   8.478  11.575   1.455 -0.1371  0.1675 -0.1170
14603W        W30497   2.873   6.363   2.417  0.0383 -0.2600 -0.0978
14604W        W30498   1.644   1.306   9.599  0.3021 -0.0812  0.0585
14605W        W30499  10.308  16.575   5.542  0.0448  0.0128 -0.0506
14606W        W30500  17.664  16.808   0.069 -0.0660 -0.0977 -0.1148
14607W        W30501   5.936   7.752  14.093 -0.0378 -0.4094  0.1225
14608W        W30502  12.756  13.802  15.237 -0.0313 -0.1920 -0.3090
14609W        W30503   6.786  16.954   2.832 -0.0132 -0.1191  0.3317
14610W        W30504  18.130   7.418  15.524 -0.2131 -0.0045  0.0322
14611W        W30505   1.419   7.811   4.024  0.1607  0.0477  0.1642
14612W        W30506  11.316  13.763   2.793 -0.1841  0.0124  0.1974
14613W        W30507  16.239  10.576  14.398 -0.0418  0.3441 -0.1719
14614W        W30508   3.245  10.123   1.371  0.1858 -0.1868  0.0406
14615W        W30509  14.359   8.441   2.899 -0.2623  0.0907  0.0856
14616W        W30510  11.341  16.877   1.806  0.1624  0.0138 -0.2404
14617W        W30511   8.886  16.013  15.128 -0.1831  0.0897  0.2610
14618W        W30512  13.598  12.147   3.566  0.3127  0.0860  0.0090
14619W        W30513   6.078   9.482   2.584 -0.0659  0.3364 -0.0975
14620W        W30514  13.950  16.855   1.756  0.1900  0.1563  0.0662
14621W        W30515   2.717   0.786   4.306  0.1874  0.0945 -0.0995
14622W        W30516   0.636  10.340  12.810  0.0058  0.1259 -0.3365
14623W        W30517   6.406  14.232  13.272  0.2456  0.2682  0.1714
14624W        W30518   7.039   5.101   5.399  0.1747  0.1010 -0.1332
14625W        W30519  10.815  15.919   1.264 -0.0936 -0.1265  0.1074
14626W        W30520   7.777  12.866  11.681 -0.1490 -0.3647  0.0050
14627W        W30521   9.392   8.382   4.274 -0.3195  0.2332  0.4263
14628W        W30522  15.964   6.162   5.387 -0.1854 -0.5534 -0.0069
14629W        W30523  17.571   3.309  13.051  0.0855  0.2569 -0.0365
14630W        W30524   8.046  18.188   2.481 -0.3412  0.0587 -0.1285
14631W        W30525   9.395   6.970  15.045 -0.4542 -0.2301  0.3528
14632W        W30526   6.618  14.335   1.614 -0.0389 -0.2598 -0.3326
14633W        W30527  14.234  16.208  13.694 -0.1421  0.0327 -0.1755
14634W        W30528   2.204   5.248  13.890 -0.0622 -0.1566 -0.0561
14635W        W30529   1.227  14.604   0.377 -0.0891 -0.3482 -0.1591
14636W        W30530   7.837  13.678  13.382  0.2292 -0.2179 -0.0215
14637W        W30531   1.864   5.611   3.959  0.3231  0.1055 -0.1076
14638W        W30532  16.481  10.856   5.392  0.1020 -0.1477 -0.0053
14639W        W30533  18.498  10.330  10.557 -0.2703 -0.2044 -0.0150
14640W        W30534  15.252  11.822   4.836 -0.2448 -0.0787 -0.1414
14641W        W30535  13.279  12.976   2.681 -0.2285  0.0017 -0.1846
14642W        W30536   0.435   3.346  13.971 -0.1963  0.0888  0.2005
14643W        W30537   4.856   7.374  11.356  0.0215  0.3398 -0.1063
14644W        W30538   7.947  12.284   1.964 -0.4011 -0.1269  0.0392
14645W        W30539   9.939  15.950  14.778 -0.3736 -0.1144 -0.1764
14646W        W30540  12.596   0.651  15.146 -0.1153 -0.0147 -0.1238
14647W        W30541  18.467  18.389  15.442 -0.0683  0.1497  0.3956
14648W        W30542   8.639   5.680   3.048 -0.3429  0.0263  0.1239
14649W        W30543  13.007   1.267   1.406 -0.1297  0.2069  0.4171
14650W        W30544  17.198   8.751   0.368 -0.2524  0.1197  0.3492
14651W        W30545   2.515   5.722   1.422 -0.1408 -0.1311  0.2531
14652W        W30546  12.573  18.059   5.158  0.0300 -0.0292  0.1154
14653W        W30547  17.443  13.939  13.721  0.3493 -0.1415  0.1405
14654W        W30548   8.785  13.992  13.928  0.0419 -0.2225 -0.3166
14655W        W30549   9.331   6.370  11.009 -0.2740 -0.1263 -0.1071
14656W        W30550   6.437   1.161   0.473 -0.2250 -0.0123  0.1290
14657W        W30551  14.754  14.710  13.448  0.1591 -0.0417  0.0886
14658W        W30552  15.585   8.524  13.412  0.1778  0.2489 -0.2629
14659W        W30553   2.751  14.439  14.854  0.1704 -0.0341  0.2887
14660W        W30554   7.283  15.457   9.732 -0.2021  0.2019 -0.1188
14661W        W30555   0.872  16.216  15.540 -0.0961 -0.0432  0.2398
14662W        W30556   1.514  17.697   3.384 -0.1045 -0.1353  0.2230
14663W        W30557  13.110   2.634   2.363  0.0769  0.0209  0.3746
14664W        W30558  17.685   3.218  14.087  0.0169 -0.1053  0.1440
14665W        W30559  12.331   8.268   2.819 -0.0769 -0.4331  0.1610
14666W        W30560   0.566   9.868  13.062  0.0618  0.2039 -0.0132
14667W        W30561   5.363  16.971   9.077  0.0285  0.0437 -0.3030
14668W        W30562   4.427   1.657   2.287  0.0198  0.2670  0.2631
14669W        W30563   2.803   4.410  12.693 -0.1226  0.0553  0.1965
14670W        W30564   9.504  14.220  11.359 -0.3063 -0.1563  0.1929
14671W        W30565  14.334   8.382   0.513 -0.2156  0.2932 -0.0746
14672W        W30566  14.355  14.336   4.424 -0.0060  0.0273  0.0246
14673W        W30567  11.706   7.239   5.977  0.1032  0.0071 -0.4159
14674W        W30568  13.887   8.460   6.100 -0.2315 -0.1813 -0.0972
14675W        W30569  12.330  16.754   4.683  0.2943  0.1105  0.1916
14676W        W30570  13.856   4.109  11.943 -0.4589  0.0396  0.1233
14677W        W30571   2.125  12.979   4.809  0.1322 -0.0789 -0.1458
14678W        W30572  10.868   7.169   3.830 -0.4378  0.3616 -0.2651
14679W        W30573   9.780  12.603   4.805 -0.3566  0.0551 -0.0580
14680W        W30574   9.187  16.643  11.570 -0.1001 -0.1434  0.2311
14681W        W30575   8.903  15.304   2.239  0.3925  0.1416 -0.0916
14682W        W30576  18.104   8.953   5.014  0.1593 -0.1060  0.1963
14683W        W30577  13.425  11.831  14.478 -0.2997 -0.0653 -0.0196
14684W        W30578  12.446   1.335   0.246 -0.1340  0.0568 -0.0507
14685W        W30579   8.525   2.567  15.234 -0.1866 -0.0976 -0.1716
14686W        W30580   1.783  18.764  14.951  0.1991 -0.1472 -0.2798
14687W        W30581   8.042   5.217  11.375  0.1940 -0.1052  0.1643
14688W        W30582   4.734   9.067   2.078  0.1093 -0.1175 -0.0085
14689W        W30583   3.589  16.691   4.740 -0.3083 -0.3057  0.0749
14690W        W30584  13.425   5.440  10.825 -0.0730  0.0234  0.0821
14691W        W30585   3.145   7.308  15.022 -0.2200 -0.0474  0.0197
14692W        W30586   0.379   7.204  15.557 -0.3184 -0.3329 -0.0754
14693W        W30587   3.418   0.195  10.636  0.1774 -0.1742  0.1120
14694W        W30588  17.295   1.328   3.718  0.2394  0.0725  0.1802
14695W        W30589   6.030  10.470   2.417 -0.0462 -0.1996  0.3240
14696W        W30590  12.162  18.674  11.600  0.2347  0.0054 -0.0161
14697W        W30591  12.723   8.462   2.602 -0.3217  0.1195 -0.0076
14698W        W30592   8.380  18.485   1.209  0.0227 -0.3122 -0.0186
14699W        W30593   3.558   7.225   9.652  0.2585 -0.0343  0.0552
14700W        W30594   3.210   6.130   0.756  0.0086 -0.0140 -0.3726
14701W        W30595   9.615   3.469   3.131  0.3800  0.2859 -0.2711
14702W        W30596   3.150   9.775   0.398 -0.1269  0.0713  0.0602
14703W        W30597   2.588   4.707  11.553 -0.0903  0.0099 -0.0083
14704W        W30598  11.989  17.401   4.802  0.1203 -0.0945  0.1850
14705W        W30599  13.701  17.463   0.495  0.0134 -0.2597 -0.0442
14706W        W30600  17.460  10.641   0.990 -0.0509 -0.0408 -0.1075
14707W        W30601  17.155  10.261  12.556 -0.0072  0.1397 -0.1258
14708W        W30602   8.495  18.336   4.787 -0.2487 -0.2898 -0.0043
14709W        W30603   0.330   9.859   1.585 -0.0695  0.0511  0.2696
14710W        W30604  12.994   9.345   6.017 -0.0158 -0.1831  0.5290
14711W        W30605  17.757   6.047   0.894  0.1800  0.0117 -0.2150
14712W        W30606   1.325   6.809  15.544  0.1484 -0.0110 -0.4107
14713W        W30607   2.592  10.642   5.442 -0.1711  0.0673  0.0289
14714W        W30608   2.915   2.307   1.311 -0.3206  0.0009 -0.3434
14715W        W30609  15.459   9.802   1.172  0.2526  0.1813  0.0284
14716W        W30610   3.206  15.782   3.865  0.2513 -0.3223 -0.4971
14717W        W30611  17.454   9.826   0.567  0.2466  0.0391 -0.4613
14718W        W30612   6.912  18.187   0.447 -0.0410  0.4668  0.0434
14719W        W30613   9.581  17.832   0.792 -0.3362  0.1070 -0.1786
14720W        W30614   8.163  13.930  15.021 -0.1841  0.4567 -0.3028
14721W        W30615   3.204  12.883   4.647 -0.3546 -0.1161 -0.2771
14722W        W30616  15.906  17.185   1.870  0.0623 -0.3217  0.1328
14723W        W30617   2.552  15.966   2.079 -0.0299  0.0325  0.0692
14724W        W30618   2.075  18.231  11.295 -0.0303  0.1933  0.0299
14725W        W30619  12.462   0.921  12.647  0.1016  0.0879  0.2132
14726W        W30620   6.615   0.191   1.261 -0.0035  0.1195 -0.0320
14727W        W30621   4.986  15.091   0.199  0.1917 -0.2314  0.0388
14728W        W30622   8.140  10.458   4.153  0.0423 -0.1471 -0.1511
14729W        W30623  12.777  10.336   4.632 -0.2611  0.1075 -0.2147
14730W        W30624   3.450  17.562  10.510 -0.0889 -0.0912  0.0413
14731W        W30625   9.672   7.743  11.987  0.1161  0.1253 -0.0020
14732W        W30626  10.223  13.455   5.134 -0.0193  0.1524 -0.1842
14733W        W30627  14.345  18.355   2.630  0.1487  0.0177 -0.0405
14734W        W30628   8.234  10.770   1.348  0.0011  0.2033  0.2012
14735W        W30629   5.857  11.394   2.087 -0.0553  0.0904  0.1420
14736W        W30630  11.236   8.462   0.071  0.1178  0.0478 -0.1575
14737W        W30631   0.271   9.815   5.584 -0.0927 -0.0544 -0.1852
14738W        W30632  16.327  14.411  13.362 -0.0280  0.1183  0.2562
14739W        W30633   8.904   1.751  10.812  0.0444  0.1436  0.2197
14740W        W30634   0.571   5.162  13.594 -0.0485  0.1121  0.0603
14741W        W30635   7.022   9.942   0.959 -0.1466 -0.1721 -0.3191
14742W        W30636   8.449  11.108   5.121 -0.2996 -0.1219  0.0752
14743W        W30637   4.438   5.210  12.521  0.2949  0.0569  0.2499
14744W        W30638   7.233  13.003   1.842  0.0025 -0.2224  0.0917
14745W        W30639  17.109  13.326  13.040 -0.0640 -0.1038  0.0791
14746W        W30640  12.245  12.364   1.828  0.2996  0.0767 -0.1076
14747W        W30641  13.530  17.304  14.296  0.1394 -0.3898  0.1407
14748W        W30642  14.729  13.216  15.187  0.0355 -0.0094 -0.0482
14749W        W30643   8.831  15.027  13.420  0.1146 -0.0135 -0.1327
14750W        W30644   9.911   5.131  12.124  0.0877 -0.2494  0.0151
14751W        W30645   0.914   9.708   3.072  0.1248 -0.2947 -0.0405
14752W        W30646  16.626   2.582   2.906 -0.1387 -0.0340  0.1771
14753W        W30647   1.695  17.050  11.164  0.1506  0.2697 -0.1847
14754W        W30648  15.962  18.262   2.408 -0.2491 -0.2475 -0.2269
14755W        W30649   4.866   4.491   3.092 -0.1732 -0.0434  0.2583
14756W        W30650  10.867   6.083  12.989 -0.1053  0.0717  0.4291
14757W        W30651   3.934   0.080   2.504  0.0574  0.0984 -0.2874
14758W        W30652  14.173   7.520   0.028 -0.1309 -0.0822  0.0974
14759W        W30653  16.944   2.634   1.533  0.5302 -0.3140  0.2281
14760W        W30654   9.555   1.198  10.622  0.0876 -0.0676 -0.0435
14761W        W30655   4.890   1.795  11.677 -0.0499  0.1634 -0.0689
14762W        W30656   1.266  15.887   1.163  0.2844 -0.1923 -0.2192
14763W        W30657  14.795   6.556   5.401  0.1572 -0.2697 -0.1649
14764W        W30658  11.338  15.095   5.740 -0.1089 -0.0338 -0.1033
14765W        W30659   2.878   6.285  13.428  0.2082  0.1355  0.1623
14766W        W30660   6.269   4.465   1.599  0.1737  0.2270 -0.0877
14767W        W30661   5.233   1.199  10.662  0.0522  0.0359  0.0994
14768W        W30662   4.453   1.636  14.602 -0.0594 -0.1975 -0.0037
14769W        W30663  15.087  16.625   3.212  0.3524 -0.1242  0.0716
14770W        W30664   7.257   8.859   5.256  0.3253  0.0089  0.2965
14771W        W30665  14.717  14.224  13.669 -0.0699 -0.1934 -0.0582
14772W        W30666   8.925  15.055   0.306  0.0867 -0.3841 -0.1641
14773W        W30667  18.514   9.395  12.477 -0.0647  0.2170  0.0706
14774W        W30668   1.379  18.426   4.631 -0.1987 -0.0371  0.1322
14775W        W30669  12.463   2.456  14.228 -0.0151  0.0434  0.1924
14776W        W30670  10.200  18.648  15.520 -0.0023  0.1077  0.1895
14777W        W30671   4.974  15.580   4.203  0.0205 -0.0665 -0.0939
14778W        W30672   6.100   9.066  12.827  0.1688  0.0062  0.2342
14779W        W30673  16.015  11.411  12.274  0.0171  0.1962 -0.4789
14780W        W30674   0.716  14.271  11.819 -0.1058  0.2080  0.1511
14781W        W30675   5.519  13.063   0.770  0.3606  0.1632 -0.4070
14782W        W30676   2.584  15.839  12.266 -0.2190  0.2455  0.1634
14783W        W30677  13.655   6.087  15.021 -0.1684 -0.1471  0.0382
14784W        W30678  13.608   7.440  10.923 -0.1756 -0.1002 -0.1051
14785W        W30679   7.255   3.630   2.049  0.0645 -0.0239  0.2053
14786W        W30680   3.527  13.166  11.151 -0.2827 -0.0529 -0.3871
14787W        W30681  18.363   9.147  11.041  0.1994 -0.0546  0.3672
14788W        W30682   7.730  12.725  12.196  0.2110  0.1997  0.0801
14789W        W30683   1.883  11.767   0.818 -0.1786  0.1879 -0.0744
14790W        W30684   0.440  17.297   1.157  0.1711 -0.0880  0.1445
14791W        W30685   8.461  18.199  13.038  0.2691 -0.2562  0.1132
14792W        W30686  14.379  14.486  11.934  0.1601  0.1130 -0.0431
14793W        W30687  14.546   6.588   1.557 -0.2580  0.0996  0.4258
14794W        W30688  16.761   5.811  15.068 -0.1733 -0.1504 -0.1413
14795W        W30689  15.990   8.878   6.539  0.0564 -0.3051 -0.0386
14796W        W30690   5.477   1.808  13.360  0.0291 -0.0123  0.0646
14797W        W30691   5.345  17.295   4.445  0.0584 -0.1004 -0.0403
14798W        W30692   6.934   5.372   0.808 -0.1421 -0.1569 -0.0158
14799W        W30693   7.348  14.236   4.340  0.2162 -0.1385 -0.0891
14800W        W30694  13.128   3.333   3.902  0.4774  0.1273 -0.0581
14801W        W30695   5.120   2.716  15.428  0.2994 -0.1306  0.1198
14802W        W30696  15.231  16.755   3.691 -0.3079  0.3029  0.1723
14803W        W30697   6.605  13.404  12.083  0.2594  0.0825  0.1525
14804W        W30698   7.978   4.295   4.146  0.1882 -0.1165  0.1916
14805W        W30699   1.582   0.345  11.678  0.1098 -0.2417  0.1206
14806W        W30700  17.238   8.716   4.005  0.1381  0.0869 -0.0602
14807W        W30701  17.374  16.241  13.107 -0.0200 -0.2398  0.3121
14808W        W30702  12.217  12.930  12.612  0.1275 -0.2430 -0.0876
14809W        W30703  11.885   4.021   2.123  0.1472 -0.1282  0.0507
14810W        W30704  14.372   2.147  14.267  0.1086  0.2606 -0.1834
14811W        W30705  14.788   8.231   0.644 -0.0419 -0.0861  0.1608
14812W        W30706   3.682   1.287   1.491 -0.0122  0.0687 -0.1542
14813W        W30707   6.706  15.016   4.312  0.0514 -0.0515 -0.2527
14814W        W30708  14.978  16.988   4.056  0.1667 -0.0444  0.2249
14815W        W30709   9.261   1.577   3.529  0.1791 -0.3051  0.1809
14816W        W30710   9.361   5.192  15.252 -0.2212  0.2545 -0.3717
14817W        W30711   0.210   7.016  12.229  0.2607 -0.2360  0.0168
14818W        W30712   6.758   1.245   2.950 -0.0937 -0.1540  0.2351
14819W        W30713  15.831  12.327  15.525 -0.1567 -0.0421  0.3180
14820W        W30714   4.204  16.195   0.115  0.0367  0.0282  0.0277
14821W        W30715   8.514   6.482   5.231  0.1032  0.2115 -0.0845
14822W        W30716   7.337   3.134  10.321 -0.5486 -0.0618 -0.3020
14823W        W30717  12.068  15.060  11.819 -0.2158  0.1961 -0.1901
14824W        W30718  16.796   3.686   1.706  0.1319 -0.0984  0.4100
14825W        W30719  15.312   3.421   3.353  0.1280  0.1112  0.0587
14826W        W30720   3.017  13.229   3.087 -0.0769  0.4595 -0.4904
14827W        W30721  17.124   4.413  11.519 -0.2475 -0.4954  0.3557
14828W        W30722   2.338  18.266   2.090  0.0847  0.2930 -0.1867
14829W        W30723   3.288   0.720  13.756 -0.5181 -0.1678 -0.1050
14830W        W30724  10.625  10.332  15.098 -0.0569  0.0351  0.0228
14831W        W30725   0.659   2.768   0.443 -0.2073  0.0548 -0.1459
14832W        W30726  13.532  17.646   2.771 -0.0564 -0.3921 -0.0265
14833W        W30727   5.750   8.711   4.097 -0.0549 -0.1514 -0.0603
14834W        W30728  11.979  12.390   3.600  0.0202  0.1027 -0.1574
14835W        W30729   0.708   3.229  11.843  0.2286  0.3696 -0.2252
14836W        W30730   4.870   8.764   4.322 -0.2310  0.1669 -0.3445
14837W        W30731  13.519   1.138  13.788 -0.2251 -0.0510  0.0034
14838W        W30732  17.155   9.839   3.373  0.0836  0.0864 -0.0663
14839W        W30733   1.850  15.331   2.845 -0.2955  0.1022  0.3698
14840W        W30734   9.217  12.393   2.669  0.2909  0.0941  0.0673
14841W        W30735  13.833   9.009  14.395 -0.0799  0.0219 -0.0932
14842W        W30736   4.211   8.994  14.084  0.1714 -0.2840  0.3046
14843W        W30737   6.735  12.182  13.387 -0.1505 -0.3852  0.1922
14844W        W30738  18.654  18.184   1.604  0.2424 -0.0073 -0.1882
14845W        W30739   8.612   8.579   3.380 -0.0482  0.0461  0.2157
14846W        W30740  18.712   6.064   0.733 -0.2900  0.1297  0.2396
14847W        W30741  18.196   7.473   4.280 -0.0615 -0.1962 -0.3367
14848W        W30742   2.794   1.194   3.072  0.0137 -0.0301 -0.2117
14849W        W30743  11.686   3.063   5.179 -0.1011  0.0774  0.0931
14850W        W30744  13.897   9.175  15.322  0.1257  0.0852 -0.1843
14851W        W30745  17.467   6.471  12.392  0.0386  0.0165  0.1609
14852W        W30746   5.454  17.863  13.559 -0.0599  0.0753  0.2827
14853W        W30747   4.146   9.685  15.575 -0.0280  0.2611  0.0892
14854W        W30748  14.103   8.881  11.789  0.3035 -0.3182 -0.0466
14855W        W30749  16.562   5.081  12.963 -0.1672 -0.1887 -0.0802
14856W        W30750   6.801   0.263  12.866 -0.0940 -0.2981 -0.3464
14857W        W30751   1.030   9.592   2.590 -0.1313  0.0939 -0.1755
14858W        W30752   6.121   7.467   4.199 -0.1580 -0.1116 -0.2787
14859W        W30753  12.124   0.015  13.237 -0.3095 -0.1258  0.0791
14860W        W30754   2.197   6.287  10.330  0.0364  0.4081 -0.0556
14861W        W30755   7.279  13.226   9.536  0.0175  0.0698  0.1561
14862W        W30756  17.171   2.435  14.023 -0.1520  0.1950  0.2480
14863W        W30757  17.664  10.018  15.314  0.2317  0.1040 -0.0408
14864W        W30758   3.311   2.739  15.268 -0.1812  0.2152  0.4521
14865W        W30759  17.614   4.020   3.673 -0.1060 -0.1000 -0.2228
14866W        W30760   0.051  18.290   1.100 -0.1856 -0.1510  0.1823
14867W        W30761  12.918  16.209  14.835  0.0387 -0.1153  0.2375
14868W        W30762  18.545  15.750   1.500 -0.1293  0.0901  0.2695
14869W        W30763   8.282   4.576   1.334 -0.2957 -0.1337  0.2359
14870W        W30764  12.426   6.144   3.121 -0.2209  0.0406 -0.0146
14871W        W30765   2.892   5.479  11.094  0.1175 -0.0606  0.2343
14872W        W30766  13.446  15.159  11.243  0.1049  0.0339 -0.1389
14873W        W30767  10.535   7.139   4.697  0.1308 -0.0267 -0.1167
14874W        W30768  15.906   7.948   3.423 -0.2076  0.2875 -0.1959
14875W        W30769   5.029  15.984   2.262 -0.1030 -0.0541  0.0702
14876W        W30770  13.209   3.388   6.152  0.3612 -0.0918  0.0346
14877W        W30771  14.573   6.329   0.088  0.0036 -0.1075 -0.0117
14878W        W30772   4.012   2.485   0.880  0.2672  0.0201 -0.0959
14879W        W30773   8.982  16.536  15.198  0.0457 -0.0873  0.0522
14880W        W30774  12.296  14.127  15.238  0.0916  0.2181 -0.4355
14881W        W30775   4.742  10.226  14.119  0.0966  0.2026  0.0016
14882W        W30776  17.312  11.379  10.971 -0.1537 -0.0248  0.1817
14883W        W30777   9.339   1.529  12.414 -0.1528  0.2223  0.0006
14884W        W30778   0.922   9.388   2.118 -0.1280 -0.0560 -0.1659
14885W        W30779   7.666  17.520   3.026 -0.1485  0.0823  0.0181
14886W        W30780  15.931  17.913   3.448  0.1674  0.1415 -0.0022
14887W        W30781   6.065  11.451  14.104 -0.0765 -0.2077  0.3279
14888W        W30782   0.808  13.706   0.235  0.0260  0.1919  0.0724
14889W        W30783  17.590   1.301   0.133  0.1865 -0.2746 -0.1787
14890W        W30784  10.235  16.389   3.293 -0.0234  0.3789  0.0094
14891W        W30785  12.765  17.562   0.286  0.0844  0.0419  0.0472
14892W        W30786  17.487   6.258  13.987 -0.2833  0.0069 -0.1339
14893W        W30787  14.658  14.382   4.059  0.0378  0.3671 -0.0753
14894W        W30788   8.911   8.235   5.865  0.1122 -0.2735  0.1081
14895W        W30789  11.735  11.619   3.908 -0.1886 -0.2218  0.1181
14896W        W30790   6.250  16.402  15.516  0.3013  0.4025  0.1936
14897W        W30791   9.761  18.228  11.335  0.3701 -0.0154  0.0712
14898W        W30792  17.124  15.649  15.226  0.0083  0.0906 -0.0003
14899W        W30793   3.495  15.186  15.058  0.2420 -0.4482  0.0050
14900W        W30794  18.478  17.736   1.123  0.1823 -0.1393 -0.0482
14901W        W30795   1.456  11.577   2.682 -0.3548 -0.1676  0.0156
14902W        W30796   9.538   3.841  12.418 -0.0971 -0.1674 -0.1397
14903W        W30797   0.508   8.606   2.462 -0.2247  0.5396 -0.1006
14904W        W30798  12.218  13.468  10.839  0.0843 -0.3894 -0.0140
14905W        W30799  18.339   5.187   0.068 -0.0229 -0.1008  0.0562
14906W        W30800   5.068   2.381  14.066 -0.0885 -0.0164 -0.1176
14907W        W30801   4.630  12.773  11.694 -0.2483  0.0920 -0.2830
14908W        W30802   0.570   1.698   1.247 -0.3000  0.0517  0.0393
14909W        W30803   5.772   1.682  11.069  0.2246 -0.0102 -0.0302
14910W        W30804   6.132  17.718  10.404  0.1681 -0.0471 -0.0065
14911W        W30805   9.705   6.867   0.201  0.1910 -0.2099  0.0557
14912W        W30806  11.715   0.884  10.985  0.2833  0.0082 -0.0273
14913W        W30807   0.731   9.271  11.619  0.1309  0.2245  0.2516
14914W        W30808  17.414   2.439  13.617 -0.0965 -0.0251  0.0830
14915W        W30809  18.686   4.655   1.142  0.0320  0.0847 -0.0174
14916W        W30810   6.907  14.820   1.297 -0.0430 -0.0911  0.0364
14917W        W30811  14.672  13.818   0.820 -0.1134 -0.1306  0.2648
14918W        W30812   8.836  14.647   0.634 -0.3703  0.1186  0.0536
14919W        W30813  11.189   7.633   2.785 -0.0155 -0.0419 -0.0375
14920W        W30814   9.891  14.661   4.476 -0.0773 -0.2419  0.0315
14921W        W30815  15.757  10.151   4.318  0.1074 -0.0447  0.0010
14922W        W30816  18.464   7.747  12.834 -0.1779  0.0004  0.0628
14923W        W30817  17.884  14.217  14.799  0.2810 -0.1075  0.1937
14924W        W30818   3.525   3.939  10.767  0.3066  0.1273  0.1052
14925W        W30819   8.031  14.744  15.448  0.1492  0.2455 -0.0017
14926W        W30820  10.132  15.927   9.513  0.0279  0.0592 -0.0667
14927W        W30821   0.341  15.558  12.244  0.3372  0.1226  0.2550
14928W        W30822  16.048  11.989   6.061 -0.0639  0.1911  0.1516
14929W        W30823   0.608  18.375   3.549  0.2088 -0.2336 -0.0861
14930W        W30824  10.477   4.715  14.289  0.0669  0.0314  0.0194
14931W        W30825   8.272   3.681   2.829 -0.3458  0.0871 -0.2789
14932W        W30826   1.778   7.170   5.091 -0.2451  0.1899 -0.0327
14933W        W30827   6.318  16.960  11.932 -0.2445 -0.0602  0.0346
14934W        W30828  13.100  17.612  11.564  0.2932  0.3330  0.0077
14935W        W30829  15.858  10.242  15.452  0.3159  0.1538 -0.2342
14936W        W30830   8.986   3.007  13.562  0.0988  0.0039  0.3815
14937W        W30831   8.238   0.291   2.576 -0.1079  0.2142 -0.2940
14938W        W30832   1.589   9.206   4.610  0.0987 -0.0953  0.3248
14939W        W30833   9.482   8.903   4.476  0.1914  0.0407  0.1495
14940W        W30834  16.788   6.207   2.465  0.0382 -0.1460 -0.3453
14941W        W30835   8.131   2.851  14.099  0.0656 -0.0246 -0.1939
14942W        W30836  16.891  18.076   0.911  0.1274  0.4037 -0.2757
14943W        W30837  11.870   4.760   0.481  0.0408 -0.0166 -0.4325
14944W        W30838   8.264   1.423  11.827  0.0928 -0.0337  0.1163
14945W        W30839  15.790  17.348   0.654 -0.1759  0.1580  0.2934
14946W        W30840  18.734   9.371   1.525  0.2226  0.3341  0.0646
14947W        W30841   5.604  14.570  13.244  0.2622 -0.1643 -0.1764
14948W        W30842   9.456   9.740   0.231  0.1130  0.4721 -0.0019
14949W        W30843  17.209  17.483   4.386 -0.0385  0.1621 -0.0063
14950W        W30844  18.331   9.135   1.310  0.1720 -0.3994  0.0073
14951W        W30845  12.584   1.687  15.140 -0.0096  0.1925  0.0963
14952W        W30846  17.898  11.683   2.315  0.2268 -0.0949 -0.2737
14953W        W30847  11.295  14.258   6.188  0.2005 -0.0602  0.3128
14954W        W30848   7.513   8.928  11.565 -0.1443 -0.0205  0.2426
14955W        W30849  16.295   2.232   0.567  0.2531 -0.1064  0.0891
14956W        W30850   5.259   5.624   4.643 -0.1331 -0.1886  0.0042
14957W        W30851  17.444   6.220   0.498  0.2234  0.2866  0.1923
14958W        W30852   9.899  10.091  14.632  0.0875  0.0413 -0.0922
14959W        W30853  14.348   1.729   3.941  0.0171  0.2522  0.1556
14960W        W30854   4.807  13.905  12.508  0.0865 -0.2458  0.2624
14961W        W30855  16.872   0.269   5.648  0.1932  0.2304 -0.1467
14962W        W30856   9.455  10.387  12.071  0.2180 -0.0240  0.2891
14963W        W30857   1.574   1.678   2.707 -0.0179 -0.0524 -0.2533
14964W        W30858   7.480   0.570   3.185 -0.0169  0.0367  0.2485
14965W        W30859  11.713  14.139   2.423 -0.1882 -0.1276 -0.0879
14966W        W30860   5.434  11.013   5.254  0.0272 -0.2217 -0.1678
14967W        W30861   1.652  13.161  15.262 -0.0373 -0.0401  0.3851
14968W        W30862   8.165  13.533   4.248 -0.1996  0.0413 -0.0019
14969W        W30863   9.975  11.326  13.835  0.0077 -0.0746 -0.0870
14970W        W30864  11.556   5.632  14.981 -0.1741 -0.2762  0.0619
14971W        W30865   8.217  10.445  14.173  0.2343  0.0651 -0.2148
14972W        W30866   1.605  17.480  10.896  0.3272 -0.6187  0.0471
14973W        W30867  16.206  12.672  14.566  0.1489 -0.0483 -0.0883
14974W        W30868  10.226   6.364   5.446 -0.0638  0.1257  0.0956
14975W        W30869  14.835   2.143  13.131  0.1294  0.0838  0.0337
14976W        W30870   6.105   7.082  14.472  0.2411 -0.0503 -0.1639
14977W        W30871   1.439   1.539  14.222  0.2062  0.1600 -0.0142
14978W        W30872  13.635   2.015  12.931  0.0729 -0.0700  0.1269
14979W        W30873  14.259  13.582   0.193 -0.0240  0.3688 -0.1012
14980W        W30874   8.374   5.993   2.282 -0.0656 -0.1680  0.0122
14981W        W30875   6.924   7.893  10.655  0.1060  0.0761 -0.0201
14982W        W30876  15.610  14.051   5.426  0.0260  0.0891 -0.3411
14983W        W30877   6.911  15.195  14.091  0.2218  0.1637 -0.0378
14984W        W30878  15.825   7.114  15.500  0.1820  0.4134 -0.0132
14985W        W30879  11.487  14.684   5.478  0.0065  0.1213 -0.0783
14986W        W30880   7.376   2.507  11.077 -0.0468 -0.0680 -0.1882
14987W        W30881   1.824  10.707   4.964 -0.0951 -0.1788  0.0291
14988W        W30882  18.369   9.981   3.152  0.0368  0.0531  0.2327
14989W        W30883   8.383   1.446  12.767  0.2118  0.0778  0.3034
14990W        W30884   8.358   2.401  11.501  0.4086  0.0523  0.1628
14991W        W30885  11.723  10.337   4.202  0.1497 -0.0550  0.2183
14992W        W30886  17.435  17.282   3.520  0.4822 -0.1176  0.1412
14993W        W30887   4.060   1.874   3.231  0.0559  0.2894  0.0242
14994W        W30888  11.319  16.908  14.346 -0.0107 -0.3654  0.1800
14995W        W30889   3.140   8.687  14.362 -0.1008  0.0325  0.1161
14996W        W30890   2.802  12.004  14.929 -0.1064 -0.1460 -0.1154
14997W        W30891  14.179   0.197  14.130  0.1124  0.1641 -0.1508
14998W        W30892   2.546  14.509  12.418 -0.1341 -0.2675  0.1987
14999W        W30893  15.462   8.763   3.499  0.1867  0.0878 -0.1248
15000W        W30894  18.393   4.292   0.950  0.0015  0.0112  0.1224
15001W        W30895  14.969   7.179   1.314 -0.2453  0.0212  0.1269
15002W        W30896   7.575   5.877   5.798  0.2954 -0.1257 -0.1759
15003W        W30897  14.110  13.258  12.690 -0.0356  0.0653  0.0823
15004W        W30898   8.323  11.576   3.832 -0.0423  0.2399 -0.2165
15005W        W30899   1.900   4.247  14.265 -0.5370  0.1534  0.0186
15006W        W30900   5.726  14.872   3.902 -0.1728  0.0186 -0.2236
15007W        W30901  10.739   9.531  12.161 -0.1713  0.0571 -0.1024
15008W        W30902   1.966  11.027   4.189 -0.1273 -0.3591  0.1361
15009W        W30903   1.964  16.313  14.538  0.0142  0.2300 -0.0687
15010W        W30904   8.386  13.038   0.825  0.1184  0.0810 -0.1083
15011W        W30905  14.481  18.752   4.274  0.0113 -0.2448  0.0670
15012W        W30906   4.658   5.685  12.703  0.2002  0.0530 -0.0965
15013W        W30907   1.467  11.860  15.131 -0.0132  0.0645  0.0138
15014W        W30908   3.794   9.730  14.867  0.0007 -0.0733 -0.1498
15015W        W30909  16.360  10.239  14.033 -0.3002 -0.1903  0.2283
15016W        W30910   6.568   1.200   1.514  0.3202  0.1933  0.1545
15017W        W30911  12.262   4.860   2.312 -0.0309 -0.3592  0.1496
15018W        W30912  15.328   6.322  12.607 -0.3866 -0.4665 -0.1375
15019W        W30913  16.258  16.642  12.022  0.0190 -0.0883  0.2141
15020W        W30914  12.633  14.731   2.192  0.0641 -0.1348 -0.1625
15021W        W30915  13.019  12.330  15.379 -0.2395  0.0390  0.0823
15022W        W30916   7.544  15.048  14.719 -0.0357 -0.1798 -0.0541
15023W        W30917   9.798  10.922   2.557 -0.1326  0.0491  0.2244
15024W        W30918  11.814   0.283  11.673 -0.0858  0.0759 -0.1378
15025W        W30919  10.365  17.629   4.219 -0.3348 -0.2318 -0.1443
15026W        W30920  10.644  10.562   2.397 -0.1128  0.3345  0.3523
15027W        W30921  16.269  13.157   2.752  0.1822  0.2769 -0.1075
15028W        W30922   6.874   6.818  12.167 -0.1092  0.0123 -0.1102
15029W        W30923   1.174   2.865   4.496 -0.1542  0.1341  0.0617
15030W        W30924  12.212   3.325  14.041  0.1974  0.2488 -0.1659
15031W        W30925   9.409   8.386   1.169  0.1374 -0.1037 -0.0279
15032W        W30926  11.663   4.357   0.265  0.1755 -0.1243 -0.0964
15033W        W30927  11.558   8.147  13.681 -0.0234 -0.2004 -0.1176
15034W        W30928   1.489  16.175  13.319 -0.0748 -0.0367 -0.2735
15035W        W30929   4.562   7.097   2.523  0.0566 -0.2624 -0.0425
15036W        W30930  16.030   6.519   2.174  0.3194  0.1617 -0.0660
15037W        W30931   6.840   2.312  12.253 -0.4507  0.4303  0.1167
15038W        W30932   1.951  12.556   3.682  0.0099 -0.1216 -0.0309
15039W        W30933   8.864   2.736  10.845  0.0020  0.1198 -0.1496
15040W        W30934   1.461  17.747  11.757 -0.1777  0.1419  0.0463
15041W        W30935   4.549  14.109  11.599 -0.2971  0.2212  0.0072
15042W        W30936  14.061   4.496   0.076 -0.0450 -0.2685  0.0083
15043W        W30937   7.282  16.908   9.448 -0.0558 -0.1680 -0.3372
15044W        W30938  16.609  12.658   3.462  0.1066  0.1394  0.1222
15045W        W30939  10.844   9.361  13.663  0.0314 -0.3660  0.2126
15046W        W30940   0.408   7.012  12.714 -0.1173 -0.2033 -0.1762
15047W        W30941   9.692  18.305  13.683 -0.0020  0.1494  0.0263
15048W        W30942   9.080  12.763   0.485 -0.3442  0.0053  0.1173
15049W        W30943   0.540   2.273   1.370  0.1507 -0.0925  0.0108
15050W        W30944   3.311   3.573   2.972 -0.2647 -0.0245 -0.1571
15051W        W30945  10.300   4.517  13.787  0.1099 -0.3223 -0.0378
15052W        W30946   6.487  18.000  11.684 -0.0308  0.2245  0.1782
15053W        W30947  12.988   6.007   5.692  0.0347  0.1122 -0.0103
15054W        W30948   4.726   1.631  12.685  0.2176 -0.1590  0.4235
15055W        W30949  16.447   9.702   0.849  0.0621 -0.0646 -0.1497
15056W        W30950   3.689   2.226  12.029  0.2017 -0.2326  0.0567
15057W        W30951   0.680  17.566  14.124  0.1608  0.2471 -0.3035
15058W        W30952   2.419  15.470   0.406 -0.0747  0.1323 -0.0816
15059W        W30953   8.112   9.347  11.005 -0.5740 -0.0320  0.2455
15060W        W30954   0.100  16.332  12.718  0.3869  0.1701 -0.1000
15061W        W30955   5.931  10.875  14.639  0.2143 -0.0109  0.1729
15062W        W30956   1.450   8.654  11.997 -0.2255 -0.0966  0.1566
15063W        W30957   0.780  17.448  11.311 -0.0907 -0.1261 -0.2770
15064W        W30958   8.849  11.490  15.138  0.0631 -0.2738 -0.1942
15065W        W30959   9.179   2.415  11.596  0.0017 -0.0165 -0.1851
15066W        W30960   4.344  13.275   4.934  0.1987 -0.1582  0.1807
15067W        W30961   1.038   5.522  10.970 -0.1627  0.3212  0.0910
15068W        W30962  18.425   7.082   4.102  0.2658  0.0283  0.0950
15069W        W30963   4.839  17.977   3.129  0.0841 -0.2412  0.0460
15070W        W30964   7.603  13.678  11.983  0.1840 -0.2258  0.0995
15071W        W30965   4.025  14.127  14.668 -0.0063  0.0323  0.2291
15072W        W30966  17.055   8.013  13.875  0.1432  0.0046  0.1048
15073W        W30967   9.997  10.471   3.839  0.1311  0.2492  0.1465
15074W        W30968   9.679   4.457   1.213 -0.0139  0.2116  0.0763
15075W        W30969   3.954   5.186   2.889 -0.0174 -0.0638  0.0283
15076W        W30970  14.443  11.852  13.675  0.2365 -0.2421  0.0011
15077W        W30971   3.693  16.380   2.809 -0.0131 -0.1138  0.3930
15078W        W30972   5.467   4.973   2.329  0.0428 -0.0630  0.2422
15079W        W30973  18.183  12.492  14.456  0.0813 -0.0963 -0.3121
15080W        W30974  11.261  10.964  11.550 -0.2033 -0.1054 -0.0079
15081W        W30975   4.221   4.596   0.402 -0.1990 -0.1176  0.0006
15082W        W30976  16.761   1.776  12.306 -0.0708 -0.1860 -0.0270
15083W        W30977   5.811  10.545  11.044  0.0782 -0.5284 -0.0191
15084W        W30978  15.197   9.705  10.254  0.0980  0.0052  0.2872
15085W        W30979  10.320  12.036   2.917 -0.1034  0.0131  0.4361
15086W        W30980   5.598   8.963   1.763 -0.3313 -0.2193  0.0169
15087W        W30981   4.847   6.872   1.653  0.3738 -0.1545 -0.2738
15088W        W30982  12.760  11.212  14.406  0.1306  0.1732 -0.1853
15089W        W30983  14.570  16.335   0.000 -0.1431 -0.1170 -0.0358
15090W        W30984  10.599   6.943  12.832  0.1617 -0.1108  0.0864
15091W        W30985   3.429   9.567   2.021 -0.0682 -0.0396 -0.0303
15092W        W30986   1.107   9.775  15.523 -0.0878 -0.1743 -0.0189
15093W        W30987   4.039   4.014  13.368 -0.3096  0.0449 -0.0674
15094W        W30988   9.419  10.714   5.936 -0.2090  0.0219  0.1260
15095W        W30989  14.416   1.139  14.421 -0.1451 -0.0642  0.1859
15096W        W30990  15.572   6.637   0.537  0.0617  0.3452  0.3630
15097W        W30991   8.976  11.360  14.108 -0.0719  0.0471 -0.0669
15098W        W30992  10.975  16.395   1.592 -0.0987  0.0209 -0.1998
15099W        W30993   3.688  17.662   3.688 -0.0305  0.3726 -0.0694
15100W        W30994  13.866  18.664  12.262 -0.0090  0.1074 -0.1126
15101W        W30995   2.303   9.391   3.245  0.0607 -0.1339 -0.0020
15102W        W30996   6.283  14.971  15.521 -0.2597  0.2662 -0.1025
15103W        W30997  16.710   8.191   3.229  0.0745 -0.2049 -0.0413
15104W        W30998  17.432   5.761   4.400  0.0472  0.2167  0.1742
15105W        W30999  13.254  11.638   3.340 -0.1709  0.1214 -0.3359
15106W        W31000  11.397   5.459   4.507 -0.0442 -0.3130  0.0803
15107W        W31001  18.013   9.138   0.149 -0.0577 -0.0477 -0.0199
15108W        W31002  10.365  15.595   0.112 -0.0175  0.0208 -0.1886
15109W        W31003   3.725   5.748  13.397  0.0386 -0.0891  0.0496
15110W        W31004  14.645  12.742  13.849 -0.0806  0.0404 -0.1038
15111W        W31005  15.432   6.702  14.565 -0.0950  0.0149  0.0073
15112W        W31006   1.558   8.975   0.609 -0.0061 -0.1301 -0.0074
15113W        W31007   6.289  15.856  14.823 -0.2714  0.2764  0.1128
15114W        W31008  13.143  12.125   0.182  0.2962 -0.2414  0.0421
15115W        W31009   1.104   1.501  15.231 -0.0864 -0.2391 -0.1260
15116W        W31010  14.504   2.598   2.014  0.2120  0.1209 -0.5219
15117W        W31011   6.786   6.557   1.625  0.0697 -0.2397 -0.0739
15118W        W31012   1.848   3.683  14.861  0.0358 -0.0170 -0.1553
15119W        W31013   6.494  17.520  11.322  0.4173 -0.2710 -0.1491
15120W        W31014  17.148  15.746  14.663 -0.0918 -0.2709 -0.0294
15121W        W31015  14.133  16.541  14.150  0.0547 -0.0229  0.1639
15122W        W31016  18.469  17.819   3.252  0.1095  0.0883 -0.0696
15123W        W31017   8.972  11.507   6.348 -0.2192 -0.0194 -0.0562
15124W        W31018   8.605  13.188  15.626 -0.2043 -0.5167 -0.1153
15125W        W31019   2.828  18.710   0.347  0.1306 -0.2516  0.2791
15126W        W31020   7.869   2.413   2.282  0.0849  0.0396  0.1622
15127W        W31021   3.212  15.749  14.462 -0.0633 -0.2816 -0.0732
15128W        W31022   6.830   0.332  15.208  0.0232 -0.0013 -0.1739
15129W        W31023   5.078   2.442  12.382 -0.1525 -0.3911 -0.1323
15130W        W31024   9.866   2.188  15.397 -0.1256 -0.0788  0.1531
15131W        W31025  16.815   6.176  11.561 -0.0071 -0.1787 -0.0247
15132W        W31026   9.596  13.374   0.869  0.0593 -0.0131  0.1633
15133W        W31027  11.243  15.448  13.555  0.1129  0.1297 -0.0053
15134W        W31028   8.640  15.361   1.227  0.2436  0.0784 -0.5311
15135W        W31029   9.109   5.327   0.013  0.1041 -0.0694  0.1412
15136W        W31030   0.951   1.136  14.773 -0.0280 -0.1267 -0.0225
15137W        W31031  17.411  10.855   2.539 -0.1885 -0.5042  0.0721
15138W        W31032   9.770  18.147   2.386  0.0737  0.2966 -0.3263
15139W        W31033   0.692  15.640  13.494 -0.1600 -0.0244  0.3100
15140W        W31034   4.383   9.556   4.943  0.1409 -0.0403 -0.0845
15141W        W31035   6.727   6.302  14.112  0.2535 -0.0049  0.1843
15142W        W31036   2.649  13.768   5.770 -0.0529 -0.3387 -0.1615
15143W        W31037  14.516   2.074   5.062 -0.0700  0.1589 -0.1070
15144W        W31038  13.146   8.632   2.884 -0.3334 -0.0957 -0.0357
15145W        W31039  16.272   1.288  14.712  0.0428 -0.1431  0.1483
15146W        W31040  10.663   7.763   4.879 -0.0159 -0.5298  0.1336
15147W        W31041   1.051   9.348   4.374 -0.3658 -0.0253  0.0338
15148W        W31042   6.053   3.058  13.380  0.2484  0.0981 -0.0188
15149W        W31043   0.203   5.589   0.092  0.2423  0.0241  0.0822
15150W        W31044  11.765  18.643  11.943  0.0956 -0.2610 -0.1342
15151W        W31045  18.765  11.716   4.355  0.0303  0.1790 -0.1295
15152W        W31046   1.254  14.739   3.579  0.2507  0.1850 -0.2120
15153W        W31047  14.888  15.299   3.189  0.3718  0.3514 -0.1637
15154W        W31048   5.409   9.734   0.580 -0.2204  0.0488  0.0856
15155W        W31049   5.983  13.533   1.695  0.0455  0.0435 -0.0431
15156W        W31050   0.017  11.735   1.964  0.0514 -0.1703 -0.1864
15157W        W31051   3.675  16.157  12.216  0.1434 -0.2207 -0.3347
15158W        W31052   0.180   1.854   2.455 -0.1389  0.1393  0.0140
15159W        W31053   3.954  14.583  14.470 -0.2709 -0.0422  0.3631
15160W        W31054   6.951  15.305   1.908 -0.0502  0.2474  0.2406
15161W        W31055   9.753  17.727  11.841  0.0794  0.0632 -0.0697
15162W        W31056  13.073   4.300  12.176  0.0007 -0.1785  0.1256
15163W        W31057   6.900   1.954   4.635  0.0171  0.1971  0.2443
15164W        W31058   5.647   4.849   4.439 -0.1165  0.0888 -0.1927
15165W        W31059   8.105   8.752  13.652  0.1354 -0.0194  0.0585
15166W        W31060  11.816   2.059   4.352 -0.2745 -0.4924 -0.2289
15167W        W31061   2.515   5.354   3.391 -0.1626 -0.2659  0.0168
15168W        W31062   0.609   2.688  14.299  0.0974  0.1649  0.0425
15169W        W31063  10.009   8.429  13.402  0.0788 -0.0660  0.1085
15170W        W31064  11.661   4.659   4.139 -0.0836  0.0034  0.2153
15171W        W31065   7.794   7.335   2.505 -0.0050  0.1334  0.3233
15172W        W31066  17.719   8.042  15.060  0.1400  0.1889 -0.0367
15173W        W31067   2.791   8.431   1.684  0.0778 -0.1439  0.0442
15174W        W31068   6.209  14.850   2.916  0.1121  0.1921 -0.0876
15175W        W31069  12.330   4.533   4.977 -0.0120 -0.2935 -0.1832
15176W        W31070   0.921   0.825  14.237  0.1577  0.3645 -0.0132
15177W        W31071  14.383   0.438   2.090 -0.2319  0.0384 -0.0850
15178W        W31072  17.740   1.841  13.314  0.2646 -0.0412  0.1762
15179W        W31073  14.130  14.403   2.092 -0.1073  0.0058 -0.0421
15180W        W31074  13.238  14.027  11.364  0.2067  0.1490 -0.3936
15181W        W31075  16.924   3.661   0.066  0.1974  0.0351 -0.2214
15182W        W31076  15.709   2.503  11.568 -0.0962 -0.0660 -0.0606
15183W        W31077  18.459  13.427   1.939 -0.0238  0.0144 -0.1799
15184W        W31078   6.132  13.204  14.527  0.5039 -0.2189 -0.3589
15185W        W31079  11.100  12.375  12.969  0.1014  0.3551 -0.1433
15186W        W31080  18.497   3.360   4.472  0.0677 -0.0813 -0.0705
15187W        W31081  17.088  15.755  10.485  0.1304  0.1338  0.1767
15188W        W31082  17.369  13.118  14.226  0.1215  0.0005  0.3974
15189W        W31083   5.205   4.591   3.851 -0.2717 -0.0690  0.2161
15190W        W31084  10.821   8.830  11.597  0.0313 -0.2980  0.2722
15191W        W31085   5.367   8.510   4.327  0.0910  0.0612  0.0118
15192W        W31086   6.493   8.358  12.241 -0.0081 -0.0528  0.3517
15193W        W31087   0.871   7.548   2.190  0.2384 -0.1489 -0.1335
15194W        W31088   8.939  10.004  14.207 -0.2332  0.0164  0.2705
15195W        W31089  15.815  16.070   1.765 -0.0047 -0.4283 -0.1250
15196W        W31090   7.482  11.900   2.529  0.4349  0.1923  0.1017
15197W        W31091   4.078  16.744  12.196  0.2944  0.2028 -0.1070
15198W        W31092   3.388  15.576   1.027  0.2485  0.4510  0.0953
15199W        W31093   4.603   2.509   3.932  0.0573  0.0743 -0.0262
15200W        W31094  12.514  17.862   1.338  0.1594 -0.0702 -0.1251
15201W        W31095   0.369   6.602  12.456 -0.1968  0.0026  0.0999
15202W        W31096  14.330  14.905   0.359  0.0837  0.1083  0.0426
15203W        W31097  13.977   6.545  12.268 -0.0815  0.1364  0.0992
15204W        W31098   0.399   0.645   0.343  0.1920  0.1080  0.0136
15205W        W31099  18.743  17.670  11.096  0.3178 -0.0037  0.1724
15206W        W31100   2.142  11.285   4.870 -0.1778  0.0430 -0.2982
15207W        W31101   6.228  18.396  13.233  0.0665  0.0408 -0.0157
15208W        W31102   0.935  16.197  13.673  0.1940 -0.1345 -0.2887
15209W        W31103   1.186  14.073   0.392  0.0380 -0.1082  0.0628
15210W        W31104   3.243  11.224   3.118  0.0673  0.1482 -0.5651
15211W        W31105  16.221   8.265  14.132  0.1395  0.0542 -0.3772
15212W        W31106  15.391  12.612  14.322  0.2020  0.0444  0.1790
15213W        W31107  12.797  12.369  11.399  0.0206  0.1608  0.0504
15214W        W31108  11.206   1.045   4.477  0.3072  0.1621  0.0018
15215W        W31109  14.288   4.335  15.190  0.1489  0.2512  0.0758
15216W        W31110   6.026  17.160  11.202 -0.0663  0.1408  0.0470
15217W        W31111  13.236  14.061  13.342  0.0376  0.1555  0.0062
15218W        W31112   1.893   8.007   3.894  0.3346  0.1401  0.0311
15219W        W31113   5.744   4.509   1.771 -0.2628 -0.1452 -0.1034
15220W        W31114   2.751   9.537  10.736 -0.0153  0.0521  0.2084
15221W        W31115   1.169  17.296  12.743 -0.1954  0.2136  0.0940
15222W        W31116   0.861   3.957   4.059  0.0799  0.2847  0.0398
15223W        W31117  18.572   2.388  11.529  0.2704 -0.1402  0.2678
15224W        W31118   8.372  10.601  15.473  0.1346  0.1427  0.1690
15225W        W31119   3.101  13.870  12.151  0.0217 -0.1029  0.0433
15226W        W31120   0.265  15.957  14.877  0.0337 -0.3851  0.0831
15227W        W31121   1.174  14.298  12.009 -0.0197 -0.0206  0.3321
15228W        W31122  14.602  11.093  13.096  0.1123  0.1711 -0.0147
15229W        W31123   5.492  17.789   0.618  0.1688 -0.1251 -0.0794
15230W        W31124   6.077  14.490   3.981 -0.0367  0.0173 -0.0970
15231W        W31125  13.692   4.326  14.290 -0.1801 -0.0530 -0.1424
15232W        W31126  15.788  11.714  11.691  0.0243  0.1041  0.1891
15233W        W31127   5.836   4.799   0.194 -0.0137  0.0704 -0.1035
15234W        W31128  15.328   5.462  14.283  0.1879  0.1573  0.1003
15235W        W31129   8.494  11.672   9.946  0.2552 -0.4779  0.0825
15236W        W31130  12.607   7.693  12.939 -0.2070 -0.0189  0.0440
15237W        W31131  15.407   7.970   1.212 -0.1000 -0.1875 -0.0148
15238W        W31132  11.730  14.624  13.197 -0.3728  0.3877  0.0681
15239W        W31133  15.878  12.241  11.866  0.3271  0.0764  0.2380
15240W        W31134   8.141   9.103   2.135 -0.0211  0.0281  0.2778
15241W        W31135   8.947   0.441  12.137  0.0792 -0.0507  0.2608
15242W        W31136  12.615   1.145  15.052 -0.1797 -0.2928 -0.1999
15243W        W31137   7.178  18.507   0.774 -0.2045 -0.2119 -0.0594
15244W        W31138   7.647   5.300  15.065  0.0298  0.0793 -0.1783
15245W        W31139  10.098  17.693   4.941 -0.0908  0.1588 -0.0416
15246W        W31140   0.272  13.342  10.806  0.2126 -0.0422 -0.2443
15247W        W31141  14.466   2.808   1.028 -0.2827  0.0586 -0.2829
15248W        W31142   6.956   6.454   0.620 -0.0560  0.0261 -0.4073
15249W        W31143  16.387  12.992   6.372  0.1953 -0.4575 -0.1325
15250W        W31144  15.958  14.340   2.196  0.1231  0.2666  0.0924
15251W        W31145  13.618  17.885  13.053 -0.0619 -0.2519 -0.1748
15252W        W31146   0.583   1.519  13.840  0.1641 -0.4541 -0.1134
15253W        W31147   3.632  13.619  14.047  0.3097  0.1258 -0.1068
15254W        W31148  10.273   8.066   0.340 -0.1368 -0.0292  0.0695
15255W        W31149   7.097  14.945   2.440  0.0638 -0.2460 -0.1337
15256W        W31150  13.972  11.810  10.273 -0.0150  0.1644 -0.0443
15257W        W31151   8.087  11.827  14.477  0.1337 -0.5432  0.1444
15258W        W31152  11.035  12.315  14.355 -0.2241 -0.0681 -0.2452
15259W        W31153  13.747   5.044   4.793  0.2782  0.3481 -0.0497
15260W        W31154   1.283  16.245  14.539  0.1188  0.1491  0.1492
15261W        W31155  12.691   8.709   3.074 -0.2095  0.1511  0.1486
15262W        W31156  11.210   3.472  15.386 -0.2012 -0.3533  0.1535
15263W        W31157  11.245  10.821   3.422 -0.1010  0.1617  0.5101
15264W        W31158   7.279   7.898   2.218  0.0046 -0.6926 -0.1414
15265W        W31159  15.267   4.254  13.567  0.3306  0.1228  0.0553
15266W        W31160  11.175  13.166  12.792 -0.0778 -0.0076 -0.5312
15267W        W31161  15.777   9.280   5.708  0.0368 -0.1903  0.0094
15268W        W31162  12.707  12.433   5.507 -0.2833 -0.3366  0.0265
15269W        W31163   1.084  17.171   4.056  0.4228 -0.1899  0.0046
15270W        W31164   0.697  15.187  13.270  0.0035  0.0395  0.1095
15271W        W31165  11.205   6.688   3.627 -0.0863 -0.4794 -0.1952
15272W        W31166  13.893   2.674  11.756 -0.1202  0.0961 -0.2465
15273W        W31167   6.997   6.150   9.985 -0.2163  0.1712  0.0627
15274W        W31168  14.159   0.400   2.995 -0.0661  0.0653  0.0530
15275W        W31169   6.481   0.112   0.785  0.1213 -0.3002 -0.0231
15276W        W31170  11.504   3.156  14.311  0.1108 -0.1075  0.0548
15277W        W31171  14.716  15.160  12.157  0.1809 -0.2490 -0.0062
15278W        W31172   2.481  13.156  12.715  0.0093  0.0336 -0.0022
15279W        W31173   8.114   0.237   0.911  0.0857 -0.2629 -0.0991
15280W        W31174   2.806  17.152  11.975  0.3180 -0.1469 -0.0371
15281W        W31175   7.718  16.268   0.742  0.1508 -0.1034  0.3417
15282W        W31176   1.999   8.687   0.692 -0.1714 -0.0659 -0.0614
15283W        W31177   5.719   3.361   3.770  0.0095  0.0605 -0.3461
15284W        W31178   7.831  11.406  15.220 -0.0174 -0.0334 -0.0458
15285W        W31179   4.420   2.781  11.918 -0.0012  0.1927  0.1745
15286W        W31180  18.085   6.168   4.334 -0.0815 -0.1723 -0.1325
15287W        W31181  13.187  12.888   0.733 -0.0685  0.0253 -0.3810
15288W        W31182   4.393   1.155  13.253 -0.1834 -0.1965 -0.1419
15289W        W31183  12.758   2.455   3.066  0.0334  0.0985 -0.2445
15290W        W31184  18.238   5.877   3.619 -0.2670 -0.1414  0.2208
15291W        W31185  12.664  13.591   4.144 -0.0294 -0.1540 -0.0710
15292W        W31186  14.855  12.077  15.627  0.2687  0.0137  0.0998
15293W        W31187  13.130  14.467   2.793  0.0181  0.0371 -0.1204
15294W        W31188   0.706   4.669   4.262 -0.1998  0.1966  0.2130
15295W        W31189  14.902  14.432   1.923  0.1948  0.0400  0.2607
15296W        W31190   7.599   4.410   2.594  0.0592  0.3105  0.0051
15297W        W31191  10.832  13.842  15.077  0.1239 -0.1125  0.1223
15298W        W31192  10.280   4.322   2.114  0.1580  0.0324 -0.1544
15299W        W31193  13.528   0.304  12.176  0.1470  0.2211  0.0434
15300W        W31194   1.824  12.439   0.163  0.1420 -0.0552 -0.2077
15301W        W31195  11.805  13.721   1.207 -0.4824 -0.1076 -0.1544
15302W        W31196   2.490  15.438   3.599  0.4323  0.1661  0.1126
15303W        W31197  15.218  13.646   1.408 -0.1276 -0.0306  0.2367
15304W        W31198   2.889   9.833   1.084  0.0009  0.0629 -0.5084
15305W        W31199   1.986   4.215   4.535 -0.0398 -0.0115  0.0664
15306W        W31200   5.592   9.114   2.680  0.0599  0.0569 -0.1702
15307W        W31201   5.350  16.916   2.122 -0.1480 -0.2274 -0.0977
15308W        W31202  17.177   9.905  12.903 -0.2684 -0.2408  0.0616
15309W        W31203   2.702  17.652  15.164 -0.0594  0.1310  0.2015
15310W        W31204  16.915   0.816  12.693  0.1216 -0.3714 -0.2496
15311W        W31205  13.326  11.108  13.568  0.0919  0.0718 -0.1042
15312W        W31206  15.611  12.688   5.888  0.0141 -0.1542 -0.1004
15313W        W31207   6.365  18.493   1.266 -0.1011 -0.2973 -0.0492
15314W        W31208   7.717  12.603  15.538  0.2126 -0.3467  0.2969
15315W        W31209  14.095  14.721   3.050 -0.0503 -0.1718  0.1327
15316W        W31210  17.362   9.152  13.014  0.2924  0.1627 -0.1281
15317W        W31211  16.398  17.952   2.489 -0.2287  0.0250 -0.0117
15318W        W31212  11.316   1.249  12.545  0.2220  0.0725 -0.0359
15319W        W31213   7.239  12.394   2.402  0.0110  0.1604  0.1090
15320W        W31214   7.740  16.344   5.415  0.0024 -0.0291 -0.2307
15321W        W31215   1.335  14.479   2.424  0.0055 -0.3473  0.1041
15322W        W31216   9.114  11.055  15.084 -0.0865  0.1638  0.1444
15323W        W31217  10.312  15.488  11.218  0.0998  0.0491 -0.3435
15324W        W31218   6.082  14.603   1.006 -0.0988  0.1384  0.0448
15325W        W31219   4.575  17.391  11.656  0.1049  0.1039 -0.1003
15326W        W31220  18.441   5.954   5.203 -0.1383  0.0553  0.0565
15327W        W31221  15.659   2.740   3.270 -0.0096  0.1091  0.1129
15328W        W31222  10.692  12.277  15.321 -0.2618 -0.0865 -0.1015
15329W        W31223   7.254   5.122  13.618  0.0638 -0.2492  0.2003
15330W        W31224  10.323   5.221  13.614  0.1269  0.1329  0.0849
15331W        W31225   1.957   0.835  14.197  0.1329  0.0466  0.0562
15332W        W31226   4.609   8.818   3.323 -0.0667 -0.1325 -0.0316
15333W        W31227  16.805  11.239  14.528 -0.4460 -0.0042 -0.2259
15334W        W31228  12.903   8.735   4.426 -0.2137  0.2200  0.1366
15335W        W31229  16.826   2.080   1.200  0.0656  0.3656 -0.1834
15336W        W31230   3.651  13.204   2.641  0.0390  0.1298  0.0823
15337W        W31231   8.188   5.184   2.050  0.0836 -0.2560  0.3359
15338W        W31232  14.129  10.102  13.197 -0.1198  0.2076 -0.1053
15339W        W31233   6.236  13.676   1.288 -0.0142  0.2044 -0.0756
15340W        W31234  16.203   0.337  11.153 -0.0833  0.0253 -0.1307
15341W        W31235  14.975   3.111   1.321 -0.3432 -0.1802 -0.0129
15342W        W31236  11.983   3.733  14.374 -0.0107 -0.2715  0.2331
15343W        W31237  17.103  10.625  13.359 -0.0928 -0.1303  0.2378
15344W        W31238  16.623  13.971  11.627 -0.3327 -0.1965  0.2818
15345W        W31239  17.879   1.418  12.116 -0.0080  0.2156 -0.0083
15346W        W31240  17.564   4.020  12.494 -0.1173 -0.1621 -0.0578
15347W        W31241   7.690   2.263  14.589 -0.0474 -0.1475  0.3536
15348W        W31242   3.828   4.836   3.902  0.3846  0.0954  0.0414
15349W        W31243   6.622   8.108   4.431 -0.1039  0.3449  0.0530
15350W        W31244   3.249   9.682   3.506  0.1261  0.0587  0.1887
15351W        W31245   0.074   6.131  13.087 -0.1832  0.0922  0.1244
15352W        W31246  10.652  11.921   2.222  0.0687  0.1210  0.1439
15353W        W31247  16.364  17.929  15.068  0.4616  0.4372 -0.3209
15354W        W31248  14.318  13.803   1.241  0.1302 -0.2626 -0.0239
15355W        W31249  14.015   7.641  11.989 -0.2744 -0.0807 -0.0379
15356W        W31250   0.188   0.539  12.939 -0.2474  0.2087  0.3337
15357W        W31251  13.105   8.950   6.248 -0.2928  0.1387 -0.1188
15358W        W31252   7.850  14.953  12.591 -0.0764  0.2121 -0.1083
15359W        W31253   6.335  11.136   4.583 -0.1628  0.0192 -0.2043
15360W        W31254   1.065  17.973   5.251  0.0006 -0.1242 -0.2410
15361W        W31255  15.841   6.972  14.555 -0.1134 -0.0478 -0.0482
15362W        W31256   2.643  11.173   4.885  0.0779 -0.3474 -0.0367
15363W        W31257  11.561   4.940  10.155 -0.0951 -0.0489 -0.3571
15364W        W31258   5.178  12.158  13.308  0.0354 -0.1720  0.0443
15365W        W31259  12.899   8.828   0.562  0.2341 -0.0943 -0.1765
15366W        W31260  10.692   6.202   3.937 -0.0391 -0.1008  0.3077
15367W        W31261   2.322   7.619  13.810 -0.0415  0.0673  0.1640
15368W        W31262   7.718  17.749  15.478  0.0761 -0.1230  0.0594
15369W        W31263  16.217  12.789  12.454 -0.3191  0.1756 -0.0614
15370W        W31264  11.637  16.713  13.373  0.2184 -0.2578  0.0130
15371W        W31265  17.047   2.703   5.614 -0.1082 -0.0573  0.3541
15372W        W31266  16.072   2.530  15.131 -0.1504 -0.1902  0.1935
15373W        W31267  10.529   9.138  11.873  0.1003 -0.1588  0.1056
15374W        W31268   4.049  14.463  12.511 -0.0413  0.1529  0.0657
15375W        W31269   0.306  11.237   3.786 -0.1360 -0.0050  0.2738
15376W        W31270   5.678   1.831   2.904  0.0500 -0.0657  0.0896
15377W        W31271  15.598   9.385   1.372 -0.2387 -0.1517 -0.1772
15378W        W31272   6.555   4.655  11.100 -0.0452 -0.0477 -0.2185
15379W        W31273   7.030  11.009   2.744  0.0347  0.1024 -0.0650
15380W        W31274   3.389   8.384   2.553 -0.0440 -0.0122 -0.0418
15381W        W31275   2.677  14.001  13.632  0.2269 -0.0008 -0.0467
15382W        W31276   6.479   9.545   3.379  0.0248 -0.1281 -0.0671
15383W        W31277   0.931  17.373   1.077  0.0849  0.0878  0.3268
15384W        W31278  17.170  14.227   5.839 -0.0262 -0.1807  0.0765
15385W        W31279   7.190   7.465   4.668 -0.0202  0.0562  0.1085
15386W        W31280   5.465  11.072  10.805  0.0194 -0.0625 -0.1164
15387W        W31281   3.747  18.036   0.188  0.2701  0.4034 -0.0761
15388W        W31282   2.841  11.690  15.364 -0.0505  0.2006  0.2223
15389W        W31283   4.986  14.754   2.875  0.1231  0.1902  0.1628
15390W        W31284  15.430  12.304   4.923 -0.5387 -0.0688  0.3644
15391W        W31285  13.723  12.485  13.113  0.1499 -0.3889 -0.1493
15392W        W31286   2.900   5.873   0.184  0.0351  0.0100 -0.5123
15393W        W31287   1.039   4.618  14.468 -0.1450  0.1955  0.1135
15394W        W31288   3.687  16.527  11.859  0.1120 -0.1677 -0.0909
15395W        W31289   6.238   0.054  14.507 -0.1700 -0.0076  0.0658
15396W        W31290  16.685   5.852   5.046  0.4151  0.4342  0.1945
15397W        W31291  11.529  12.020  11.772  0.0417 -0.1921  0.0721
15398W        W31292  10.892  14.927   0.009 -0.0261 -0.2964  0.1324
15399W        W31293  11.919  12.621  13.518 -0.1284  0.0043 -0.4799
15400W        W31294  10.805  17.712  14.074  0.0268  0.2330  0.1541
15401W        W31295   5.108   3.711   2.316 -0.3147 -0.2647  0.0631
15402W        W31296   7.966  14.548   0.348 -0.0349  0.3402  0.0164
15403W        W31297   3.575   0.169  15.461 -0.1649 -0.0815 -0.4361
15404W        W31298   4.775   1.188  14.714  0.3196 -0.3524 -0.1318
15405W        W31299   7.000  14.661  13.907 -0.1035 -0.0585 -0.0755
15406W        W31300  14.573   0.916   4.478  0.5331 -0.0806  0.0492
15407W        W31301  16.507   7.880  13.853  0.0725 -0.1899  0.0540
15408W        W31302  11.572  14.656   1.222  0.0983  0.1352 -0.0824
15409W        W31303  14.123   9.214   3.209 -0.1561  0.3235  0.3355
15410W        W31304  13.049   3.811   3.613  0.0820  0.1732  0.1566
15411W        W31305  17.269  10.554   5.818  0.6638 -0.2815 -0.0569
15412W        W31306   9.209   4.315   1.363  0.0931  0.1228 -0.1076
15413W        W31307   0.797   5.236   3.801 -0.3396 -0.1482  0.1532
15414W        W31308  10.298   2.928   4.230 -0.0299  0.0250  0.0611
15415W        W31309  12.195  17.261  15.202 -0.3861  0.4320  0.1077
15416W        W31310  13.150  15.629   0.078  0.2204 -0.0260  0.0827
15417W        W31311   8.331  11.468   2.442  0.0017  0.1009  0.0751
15418W        W31312   9.965  16.475  12.026  0.1052  0.1720  0.0101
15419W        W31313   1.005  16.089   1.620 -0.1734  0.2688 -0.0955
15420W        W31314  12.829  16.016   3.581  0.0229 -0.2840  0.0108
15421W        W31315  14.717   3.916   2.786 -0.1924  0.0886 -0.1409
15422W        W31316   1.779  10.801   3.226  0.5091 -0.2788  0.0485
15423W        W31317  15.876  15.924  14.256  0.0352  0.1323  0.0106
15424W        W31318  11.122  11.580   2.218  0.1251 -0.1427  0.0456
15425W        W31319   4.643   7.762   1.473 -0.1291  0.2117  0.1119
15426W        W31320   9.481  11.441  13.720  0.1353 -0.5570 -0.1977
15427W        W31321   4.872   9.321   1.347  0.1431  0.1387 -0.1435
15428W        W31322  13.337   4.156   0.390  0.0290 -0.1664 -0.1417
15429W        W31323   1.246   8.644   0.954  0.1043  0.0641  0.1533
15430W        W31324   6.983  10.575  14.797  0.1406  0.2393  0.0076
15431W        W31325  18.378  11.411   0.978  0.0985  0.0529 -0.3278
15432W        W31326   9.620  13.970  11.837  0.2859  0.2863  0.2821
15433W        W31327  16.604   1.689   4.949 -0.1416  0.0608  0.1486
15434W        W31328   2.597   5.524  11.997  0.0537  0.2243 -0.1710
15435W        W31329  18.081  13.943   1.269  0.4741 -0.2704  0.0725
15436W        W31330  16.453  13.959  14.328  0.2886 -0.0617  0.3778
15437W        W31331  12.132  12.700   4.685 -0.1381  0.1137 -0.0594
15438W        W31332   0.718   4.737  13.865  0.0460 -0.0572 -0.0671
15439W        W31333  16.301  13.740  12.537 -0.0437 -0.1498 -0.0514
15440W        W31334  10.258  15.311  12.684 -0.2780  0.1486 -0.0529
15441W        W31335  10.844  11.053   1.598 -0.2699 -0.0656  0.1062
15442W        W31336  11.744   4.068  11.698 -0.2049 -0.1321  0.3012
15443W        W31337   5.611  18.571   1.849 -0.0891  0.3382 -0.2325
15444W        W31338  12.013   9.869   3.357 -0.2275  0.0565  0.2294
15445W        W31339  14.719  16.106   4.162 -0.0170 -0.2081  0.0913
15446W        W31340   4.354   1.012  11.464 -0.1925 -0.0787 -0.0789
15447W        W31341   9.761   7.340   0.053  0.1354 -0.0880 -0.0262
15448W        W31342   0.983  13.216   1.522 -0.2350  0.2508 -0.1930
15449W        W31343   3.640  10.394   3.506 -0.1572  0.0475 -0.2404
15450W        W31344   9.763   4.600  14.074  0.0797 -0.1287 -0.1917
15451W        W31345  15.231   2.634  11.232 -0.0219 -0.1590 -0.1084
15452W        W31346   1.745   7.243   4.225  0.0506 -0.0329 -0.0280
15453W        W31347   6.744  10.826  11.197  0.0543  0.1280  0.0508
15454W        W31348  10.847  14.608   4.868 -0.1026  0.3695  0.0361
15455W        W31349  16.056  10.046   0.772  0.1297 -0.1655 -0.0768
15456W        W31350  13.372  16.160  13.569 -0.1111 -0.0149  0.1999
15457W        W31351  14.064  15.592   2.958 -0.0041 -0.1387 -0.0787
15458W        W31352  12.938  17.649  13.574 -0.2406 -0.0155 -0.1412
15459W        W31353  11.759   9.365   4.793 -0.0162  0.3934 -0.1869
15460W        W31354  18.009  11.634   4.018  0.2031 -0.0989 -0.2457
15461W        W31355   5.170   7.110  15.118 -0.0230 -0.0613 -0.3420
15462W        W31356   4.758  14.759   4.684  0.1271  0.1038  0.3327
15463W        W31357   1.360  16.663   3.222 -0.1005  0.1301  0.1904
15464W        W31358   4.930   4.190   9.980  0.3051 -0.0513 -0.0816
15465W        W31359  15.484  14.508   5.210 -0.0109 -0.5705 -0.0601
15466W        W31360   5.792   5.213   2.613 -0.1434  0.0775  0.1880
15467W        W31361  11.981   3.091   3.231  0.2626  0.0657 -0.0788
15468W        W31362   3.162  15.908  12.501 -0.0464  0.0960 -0.2758
15469W        W31363   0.759  16.789   3.467 -0.2414  0.1890 -0.0425
15470W        W31364   2.828   0.348   4.142 -0.2058 -0.1598  0.5863
15471W        W31365   2.951  11.857  13.082  0.0777 -0.1587 -0.1991
15472W        W31366   6.177  13.060   2.546 -0.0163 -0.1452  0.2409
15473W        W31367   7.467   2.083   4.334  0.3926 -0.1611  0.0333
15474W        W31368   7.562   3.481  11.470 -0.0040  0.2124  0.0554
15475W        W31369  17.213   3.946  11.694 -0.0629  0.0627  0.0882
15476W        W31370  11.973  14.568  12.135  0.0737  0.0124  0.1959
15477W        W31371  16.985  13.808   3.995 -0.1604 -0.0967 -0.2148
15478W        W31372   8.349  13.413  10.470  0.2777  0.2082  0.1349
15479W        W31373   5.584  16.846  13.929 -0.2148 -0.0835  0.2546
15480W        W31374  11.193  10.108   3.250  0.0881  0.3336  0.0647
15481W        W31375   3.944   7.753  10.929 -0.1308  0.2708 -0.1842
15482W        W31376   5.910   4.909   0.771 -0.0739 -0.0146 -0.3772
15483W        W31377  10.359  18.152   4.869  0.0355  0.3859 -0.0268
15484W        W31378  18.349   0.342  14.883 -0.0182  0.0675 -0.0270
15485W        W31379   5.976  13.909  12.664 -0.0132 -0.1037 -0.0642
15486W        W31380   1.536   4.666  13.700 -0.0254 -0.1464  0.1149
15487W        W31381  11.721  17.077  13.001  0.0168  0.0647 -0.1062
15488W        W31382   6.234   6.032   5.089 -0.3245 -0.0311  0.1872
15489W        W31383  11.523   7.214  12.793  0.0103 -0.4613 -0.0287
15490W        W31384   8.071   7.412  13.667 -0.0950  0.2021 -0.1987
15491W        W31385  10.670   1.967  13.174 -0.0549 -0.6051  0.2297
15492W        W31386  18.720  12.053   3.113 -0.0129 -0.1110  0.3040
15493W        W31387   6.735   4.601   1.188  0.0754 -0.2313  0.1093
15494W        W31388  10.044  12.729   2.879 -0.0068 -0.2723  0.0444
15495W        W31389   0.918   2.857   1.406 -0.1159  0.2382 -0.5258
15496W        W31390   5.135   3.673  14.292  0.1856 -0.0498 -0.1014
15497W        W31391   5.025   9.234  11.015 -0.2740 -0.1306  0.0799
15498W        W31392  14.018  11.295   2.551  0.0978 -0.3767  0.1521
15499W        W31393   9.233  14.699   1.058 -0.0322  0.0700 -0.1691
15500W        W31394   1.087   8.680  11.127  0.1003  0.2741 -0.1828
15501W        W31395  14.528  13.182  13.616  0.0276 -0.1602 -0.1927
15502W        W31396  12.323  12.461   5.932 -0.0356  0.2604  0.1293
15503W        W31397  10.229   1.815   0.267  0.0883  0.2335 -0.0394
15504W        W31398   5.416  16.231  15.121 -0.0880 -0.2316  0.1207
15505W        W31399   1.000   2.631  11.237 -0.0321 -0.3668  0.2967
15506W        W31400   3.548   9.199  14.453  0.1271  0.2346  0.1751
15507W        W31401  12.693   5.962   2.522  0.0178  0.0509 -0.1525
15508W        W31402   7.756  10.540  13.997  0.0003 -0.1608  0.3979
15509W        W31403   3.157  10.507   3.719 -0.0936 -0.2442  0.0956
15510W        W31404   8.312   9.740  15.139 -0.2293 -0.1977 -0.0120
15511W        W31405  11.047   9.103  12.707  0.4933 -0.0856 -0.0760
15512W        W31406   5.063  15.287   3.832  0.3664  0.1028  0.1481
15513W        W31407  12.731   4.592   1.599 -0.0421  0.2493 -0.1615
15514W        W31408  14.550   0.881   3.872  0.1520 -0.0840  0.0088
15515W        W31409   0.494  18.015  14.691 -0.1152 -0.1030  0.0573
15516W        W31410  10.947   5.051   5.207 -0.1874  0.0868 -0.2439
15517W        W31411   8.454   0.162   3.921  0.0502 -0.0303 -0.2214
15518W        W31412  10.576  17.286  13.866 -0.3357 -0.2424 -0.2851
15519W        W31413   2.844  15.281   2.538  0.0863  0.1163 -0.1687
15520W        W31414  12.693  17.386   3.762 -0.0893 -0.0215  0.0609
15521W        W31415   0.962   6.798   0.402  0.1799  0.2189  0.2365
15522W        W31416   5.797  10.362   1.036 -0.1450  0.1000  0.1462
15523W        W31417  12.908   7.187   3.751  0.0396  0.3356 -0.2257
15524W        W31418   9.853  13.069  13.895 -0.1392  0.0192  0.2737
15525W        W31419  14.258  16.596  15.291 -0.1189 -0.1153  0.0914
15526W        W31420  14.452   8.539   2.432 -0.1242  0.1410  0.2097
15527W        W31421  14.374   5.478  15.260 -0.1783  0.0799 -0.2532
15528W        W31422  17.436  17.693  11.502 -0.0662 -0.3517 -0.0945
15529W        W31423   9.568  11.835   4.652 -0.2240  0.2956 -0.2295
15530W        W31424   9.755   8.151   0.393  0.4528  0.0990 -0.2471
15531W        W31425   4.555  13.639   2.202 -0.3647  0.1868  0.3251
15532W        W31426  10.332  17.539  10.651  0.0246  0.0136  0.0365
15533W        W31427   8.078   4.217   2.443  0.0312  0.0445 -0.2469
15534W        W31428   4.196   6.712   5.079 -0.1053  0.0298 -0.1873
15535W        W31429   9.282  13.969   4.516 -0.0359 -0.0724 -0.0486
15536W        W31430   7.467  13.276  11.533  0.0112  0.0396  0.0023
15537W        W31431  10.979   4.955   1.257  0.0728  0.0246 -0.0859
15538W        W31432   2.185   6.464   5.618 -0.0492  0.2049  0.1354
15539W        W31433  11.005   7.127  13.192  0.2159 -0.1283 -0.3601
15540W        W31434   6.771  13.952  13.618  0.1793  0.0208  0.4697
15541W        W31435   4.284  16.610   0.540  0.0668  0.1112  0.0584
15542W        W31436   4.354  10.351   3.408 -0.1110 -0.1007  0.1598
15543W        W31437   2.721  15.894  14.394 -0.0744  0.1573 -0.3279
15544W        W31438  16.245   7.765  13.431  0.1397  0.1495  0.2481
15545W        W31439   2.246   6.106   1.254 -0.1966  0.0715 -0.2767
15546W        W31440   7.604  16.352   2.152 -0.0515 -0.1227 -0.2450
15547W        W31441   2.149  14.255  13.008 -0.1070  0.0827 -0.0729
15548W        W31442   9.236   8.979   0.521 -0.5064 -0.3174 -0.0171
15549W        W31443   2.042   4.913   2.049 -0.0020  0.0832 -0.1996
15550W        W31444   3.000   0.763  14.191 -0.0732  0.1048 -0.2040
15551W        W31445   9.831   7.567   5.239  0.1590  0.3295  0.2931
15552W        W31446   8.216   1.446  14.356 -0.1405 -0.1487 -0.3380
15553W        W31447  15.112   2.619  14.095  0.3344  0.0825 -0.0366
15554W        W31448   9.585   0.763   2.631 -0.3409  0.0901 -0.1007
15555W        W31449  15.303   9.142   4.716  0.0591  0.1107  0.0329
15556W        W31450   8.728  13.815  14.860 -0.0131  0.2496 -0.0156
15557W        W31451   6.503   5.552  12.058 -0.1936 -0.0268 -0.1358
15558W        W31452   9.468  10.704   3.540 -0.1605  0.0243  0.3459
15559W        W31453   6.009   5.318  10.968 -0.2246 -0.4020 -0.0880
15560W        W31454  13.309  12.599   3.579  0.1880  0.2473  0.0810
15561W        W31455   3.020  10.399   5.575 -0.0693 -0.4779  0.2676
15562W        W31456   5.457  18.204  13.218 -0.1544 -0.2561  0.3043
15563W        W31457  14.566   6.086  14.510  0.5717  0.1368  0.2102
15564W        W31458   7.973  18.380   3.552  0.0038  0.0486 -0.0432
15565W        W31459   6.531  10.379   2.850 -0.0157 -0.2306 -0.0492
15566W        W31460  16.381   0.490   1.972 -0.0305 -0.2170 -0.0855
15567W        W31461  17.153  15.284  10.204 -0.0946 -0.1176 -0.2729
15568W        W31462   8.104   5.178   1.019 -0.2205 -0.1501  0.0027
15569W        W31463   2.762   9.555  12.279  0.1480  0.2396  0.0730
15570W        W31464  10.429   7.910   4.053 -0.2389 -0.0701  0.2111
15571W        W31465   4.711   5.344   3.459  0.3055 -0.0558 -0.3386
15572W        W31466   5.661  12.120  11.218 -0.2414 -0.3305  0.1842
15573W        W31467   9.641  14.019   0.016 -0.1291  0.4199  0.1816
15574W        W31468  10.641  12.336  13.961  0.1438 -0.1514  0.3994
15575W        W31469  10.971   6.520   1.295  0.3227 -0.1234 -0.0723
15576W        W31470   4.170   1.264   3.131 -0.4285 -0.2028 -0.1132
15577W        W31471  16.362   1.362   1.300  0.2848  0.1613  0.0550
15578W        W31472   8.700  16.444   5.177 -0.1244  0.4265 -0.0603
15579W        W31473  11.523  18.377   3.217  0.0472  0.3172  0.1737
15580W        W31474   3.798   2.106   5.269  0.2240 -0.3607  0.0106
15581W        W31475  17.161  10.196   0.355  0.0298 -0.0902  0.0221
15582W        W31476  16.976  16.791   3.250  0.0211 -0.0820  0.2943
15583W        W31477   7.338  13.533   3.642  0.2275  0.1682  0.0833
15584W        W31478  15.246  12.575   2.056 -0.2480  0.0458  0.1940
15585W        W31479  13.807  15.541   0.155 -0.3407  0.2829  0.3641
15586W        W31480   4.038   9.950  14.438 -0.0310 -0.0553  0.0490
15587W        W31481   1.483   5.084   1.816 -0.2080 -0.1105 -0.0207
15588W        W31482  16.456   1.068  10.923  0.0530 -0.1643  0.1228
15589W        W31483   7.454  12.663  10.857  0.1039  0.1431  0.0493
15590W        W31484  10.397  14.460   5.088 -0.1780  0.1683  0.1421
15591W        W31485   0.322  15.692  14.082 -0.1037  0.1630  0.2010
15592W        W31486  12.428  13.810   5.214  0.1564 -0.0026  0.0888
15593W        W31487  16.963  17.432   0.393 -0.1999 -0.0463 -0.0480
15594W        W31488   2.080  16.208   1.503  0.2963 -0.0001 -0.1884
15595W        W31489  13.970   2.012  14.550 -0.2072  0.0202  0.2087
15596W        W31490  18.428  17.456  10.657 -0.1346  0.3958  0.2708
15597W        W31491  15.408   2.747   2.695  0.2141 -0.0625  0.1919
15598W        W31492   0.874  17.650   4.086 -0.4265  0.2152  0.0303
15599W        W31493   9.655  11.360   2.675  0.2317  0.0857 -0.0414
15600W        W31494  10.241   7.691  14.171 -0.1280  0.0846  0.4153
15601W        W31495  17.481   2.616  14.417  0.1261  0.2968  0.0610
15602W        W31496   0.405  10.237  14.244 -0.0260  0.1598 -0.4588
15603W        W31497   2.422   2.187   2.407 -0.0275 -0.2053  0.1139
15604W        W31498  15.492  18.602   0.276  0.1045 -0.0984 -0.0690
15605W        W31499   9.607   7.174  14.625  0.1952 -0.1449  0.0305
15606W        W31500   6.017  10.315   4.179  0.0108 -0.3028  0.1900
15607W        W31501  18.651  16.093   1.132 -0.0476 -0.1326  0.2410
15608W        W31502   3.649  10.046  10.849  0.2440  0.3462  0.0141
15609W        W31503  16.258   7.314   2.541  0.2150  0.0784 -0.1624
15610W        W31504   7.764   9.465  12.857  0.0361 -0.6162  0.0333
15611W        W31505   2.034  15.922   5.305 -0.2758  0.0130 -0.1650
15612W        W31506   3.735  16.251   1.771  0.4856 -0.0828 -0.0723
15613W        W31507  12.004   5.284   0.558  0.0961  0.1029 -0.0299
15614W        W31508  10.907  10.847  11.191  0.1306 -0.2416 -0.0533
15615W        W31509  18.353  12.693   3.749 -0.3271 -0.2757 -0.0379
15616W        W31510  10.225   9.403  10.956  0.0077  0.0412 -0.0314
15617W        W31511  14.674   8.640   4.226 -0.0948 -0.1061 -0.4446
15618W        W31512   9.893   7.279   3.608 -0.0624  0.0091 -0.2315
15619W        W31513  14.569  10.739  12.544  0.3407  0.0593 -0.2450
15620W        W31514   1.863   9.258   5.688 -0.1916  0.1090 -0.1086
15621W        W31515   8.663  11.006  11.885 -0.1198 -0.2208  0.0797
15622W        W31516   7.944  12.348  11.604 -0.1104  0.1495 -0.3394
15623W        W31517  12.774  15.050   4.460 -0.0314 -0.2044  0.0603
15624W        W31518   2.891  12.019   4.597  0.3206 -0.2387 -0.0728
15625W        W31519   9.620   6.733   4.355 -0.0624  0.0353  0.0218
15626W        W31520   6.440   6.541   4.320 -0.0483 -0.0348  0.0348
15627W        W31521   0.090   6.542   0.658 -0.3929  0.1703  0.0443
15628W        W31522  18.704   1.159  12.290  0.1581 -0.3198  0.3873
15629W        W31523   8.610   5.067  13.998 -0.0962 -0.1987 -0.0044
15630W        W31524   5.451   5.827  14.959  0.2051  0.2446 -0.1014
15631W        W31525   9.825  12.825   5.713 -0.0285  0.0750  0.2530
15632W        W31526  14.971   1.170  15.080  0.0950  0.0280 -0.0147
15633W        W31527  15.048  14.955  15.196  0.0159 -0.2077 -0.0699
15634W        W31528   5.731  17.683  13.881  0.1539 -0.1059 -0.0651
15635W        W31529  10.845  16.442  12.121 -0.3006  0.1435 -0.3134
15636W        W31530   3.880   0.485   0.185  0.0940 -0.2827  0.3036
15637W        W31531  14.929  11.189  15.547  0.2165  0.0874 -0.2319
15638W        W31532  18.407  11.012   3.984  0.0105  0.1471  0.4574
15639W        W31533  13.992  14.337  11.546 -0.0887 -0.1551  0.0308
15640W        W31534   9.361   7.955  11.097  0.0689  0.1392  0.1990
15641W        W31535   4.789   2.636  12.965 -0.0701  0.4216 -0.0872
15642W        W31536  14.610   7.959   1.625  0.0490  0.1152  0.2007
15643W        W31537   5.844  16.691   5.033 -0.1568  0.2925  0.1524
15644W        W31538   1.820   3.941  10.624  0.1958  0.1653  0.1031
15645W        W31539   0.542   8.260   1.011  0.3606 -0.3254  0.0325
15646W        W31540  17.332  11.220   0.325  0.2115 -0.3520 -0.4694
15647W        W31541  13.580   8.057   0.746  0.4629  0.3316 -0.0262
15648W        W31542  11.465   7.264  13.327 -0.3806 -0.3228 -0.2979
15649W        W31543   6.080   2.459  10.464 -0.2855 -0.0206 -0.0423
15650W        W31544  10.443  15.300   2.686 -0.2104 -0.0257  0.3123
15651W        W31545  15.054  10.024   1.408  0.0653  0.3535  0.2705
15652W        W31546   2.998   3.307  13.424  0.2857  0.3520  0.2063
15653W        W31547   1.837   9.965   1.370 -0.1693 -0.0513  0.0913
15654W        W31548  12.019   9.637   2.238  0.0315  0.0393 -0.0443
15655W        W31549   7.292  14.866   0.869 -0.0472  0.0169 -0.1148
15656W        W31550  12.918   0.726   5.410 -0.0272  0.1734 -0.1046
15657W        W31551   2.460  18.639   3.087 -0.3044 -0.1918  0.2054
15658W        W31552  13.699  15.533   2.139 -0.1496 -0.2289 -0.3738
15659W        W31553  17.836   0.122  14.888 -0.0052 -0.3134  0.0006
15660W        W31554   8.387   1.183   4.088 -0.2013 -0.0341 -0.0720
15661W        W31555   5.413   6.428  10.604  0.0253  0.1120 -0.0285
15662W        W31556  16.074   4.976   2.620 -0.1014 -0.2034 -0.2021
15663W        W31557  12.387  10.952  12.522 -0.0235 -0.1507  0.1710
15664W        W31558   9.286  18.221   2.408  0.1219  0.0962 -0.0574
15665W        W31559   2.819  18.528  10.885 -0.1327  0.1124  0.0474
15666W        W31560   4.915   8.101  10.913 -0.1302  0.3052 -0.1112
15667W        W31561   5.840   9.582  11.099 -0.0159  0.3003  0.1663
15668W        W31562   8.440   3.594   4.620  0.0745 -0.1889 -0.3657
15669W        W31563  11.418   3.821   4.738 -0.0178  0.0775 -0.2515
15670W        W31564  17.677   7.145  11.902 -0.0709 -0.0383 -0.0045
15671W        W31565   2.733   4.751   0.377 -0.1347 -0.3303 -0.0865
15672W        W31566   4.635  14.581   4.202 -0.4404  0.0271 -0.2788
15673W        W31567   7.816  10.809   4.124 -0.0347 -0.0025  0.0587
15674W        W31568   5.285   1.631  10.858  0.0361 -0.1223  0.1509
15675W        W31569   7.403   6.494   2.839  0.1190  0.0002 -0.0550
15676W        W31570   6.195  12.585   4.613 -0.1611  0.3918 -0.1096
15677W        W31571   1.728   9.073   1.701 -0.0337 -0.1793  0.1878
15678W        W31572   6.113  13.002   3.004 -0.1082  0.5344 -0.0450
15679W        W31573   6.100  17.704  14.420 -0.1388  0.0546 -0.0423
15680W        W31574  10.937  16.324   0.986 -0.0802 -0.0104 -0.0806
15681W        W31575   8.701  14.600  13.155 -0.1003 -0.2430 -0.2836
15682W        W31576   3.194  11.984   1.896  0.0457  0.1510 -0.0186
15683W        W31577  13.339   9.781  10.594  0.0975  0.1747 -0.0950
15684W        W31578  15.421  11.940   3.951  0.0894 -0.1118  0.2415
15685W        W31579  15.417   6.902  11.135  0.0112  0.1829 -0.3168
15686W        W31580   9.919   2.107   0.518  0.0802  0.0945 -0.0119
15687W        W31581   5.814   9.173  12.048  0.1346  0.1199 -0.0824
15688W        W31582   1.213   4.829  12.854 -0.3459 -0.1167 -0.2011
15689W        W31583  14.113  11.442   0.017  0.0200  0.1129 -0.0424
15690W        W31584   1.813   6.959  13.052  0.0180  0.0015  0.2900
15691W        W31585   7.588   1.247  13.661 -0.1345 -0.1626  0.0875
15692W        W31586  10.505  16.925  12.621  0.1704 -0.1280  0.1430
15693W        W31587   5.129  11.815   1.474 -0.0257  0.2394 -0.2204
15694W        W31588  10.496  18.082   1.961  0.4028 -0.0089  0.0115
15695W        W31589   0.542  14.527  13.283  0.1829 -0.2735  0.2164
15696W        W31590  15.145  15.075   4.434 -0.0139 -0.0030  0.1502
15697W        W31591  10.990   6.613   4.080 -0.3879 -0.2758  0.1035
15698W        W31592  15.958  17.522   1.410 -0.2567 -0.3051 -0.0158
15699W        W31593  10.119  12.635  13.968 -0.0057 -0.0947 -0.1731
15700W        W31594  10.863   6.361   1.788  0.2635 -0.2203 -0.1172
15701W        W31595   0.909   2.106   1.062  0.1188 -0.0781 -0.0431
15702W        W31596  13.239   3.096  13.000  0.0595 -0.2437  0.2011
15703W        W31597   4.105   9.725   1.522 -0.2024 -0.0848 -0.2756
15704W        W31598  16.435   7.765   3.340 -0.4804  0.0487  0.4094
15705W        W31599   2.748   5.141  14.124  0.1404  0.1827 -0.0246
15706W        W31600  16.971  12.706   2.630  0.4390  0.1472 -0.1584
15707W        W31601  17.215   0.845   3.345 -0.0605 -0.0475 -0.0697
15708W        W31602  16.335   9.738  15.451 -0.0808 -0.1168  0.1941
15709W        W31603   9.443  10.124   4.485  0.1223 -0.0608  0.2317
15710W        W31604  15.492  17.473   9.547 -0.2110  0.0628 -0.1191
15711W        W31605  16.545  17.607  10.694 -0.2624 -0.1106  0.0156
15712W        W31606   4.376   5.806  11.653  0.1662  0.0755  0.4493
15713W        W31607  13.109   2.063  11.889 -0.3987  0.2504  0.2383
15714W        W31608   3.455  17.635  11.453 -0.3773 -0.3080  0.0812
15715W        W31609   9.859   4.693   2.484 -0.1935  0.1691 -0.0152
15716W        W31610  11.922  13.668  13.787 -0.0871 -0.3349 -0.0237
15717W        W31611  17.712  17.876  13.980 -0.0716  0.1658 -0.1271
15718W        W31612  13.256  13.313  12.934 -0.0311  0.2729  0.0149
15719W        W31613  14.399  17.055  14.022  0.0413  0.0540 -0.2032
15720W        W31614  14.485  11.252  15.317  0.1534 -0.0242 -0.0633
15721W        W31615  15.113   9.855   0.754 -0.2192 -0.0358 -0.0954
15722W        W31616  15.307  15.235  12.377 -0.3180 -0.3400 -0.1707
15723W        W31617  15.265  15.369   6.168 -0.1449  0.0354  0.0109
15724W        W31618   8.054   0.288  10.627 -0.3252 -0.1311  0.0855
15725W        W31619   9.433  18.140  14.967 -0.2155  0.0400  0.1504
15726W        W31620   3.876   4.848   0.232  0.2942  0.0120 -0.0977
15727W        W31621   1.114  14.265   2.074 -0.0502  0.1225 -0.0152
15728W        W31622  14.554   1.968   2.949 -0.2540  0.0413 -0.2040
15729W        W31623  11.773   0.958   0.718  0.0495  0.0452  0.1786
15730W        W31624  16.495  13.749   2.577 -0.2317 -0.1609  0.0926
15731W        W31625  15.629  16.526  11.031  0.1859  0.1737  0.3351
15732W        W31626  15.169  18.061  15.068  0.0635 -0.0445  0.3146
15733W        W31627   6.885  18.493   1.150  0.1029  0.1726 -0.2672
15734W        W31628  12.671   1.203   5.873 -0.3285 -0.2099 -0.1209
15735W        W31629  14.364   7.035   4.057  0.0902 -0.1225  0.0507
15736W        W31630  10.662   6.422  10.896 -0.1674  0.1911 -0.2191
15737W        W31631   1.852   0.281   1.780 -0.2816  0.0554  0.1943
15738W        W31632   3.999   4.121   2.932  0.3031  0.0337 -0.0137
15739W        W31633   2.803   0.591   1.808 -0.0503 -0.0031  0.1066
15740W        W31634  10.061   9.545   0.980  0.1934 -0.1391  0.2772
15741W        W31635  11.396  10.571  12.747  0.2206  0.3990  0.3198
15742W        W31636  11.907   0.305  12.892 -0.1809  0.0656  0.2672
15743W        W31637  11.234  12.123   3.045  0.0006 -0.0740 -0.3183
15744W        W31638   9.058   1.165  14.214  0.1357  0.2843  0.1827
15745W        W31639  18.026  14.702  10.261  0.1939  0.1016  0.0544
15746W        W31640   7.447  10.152   2.941 -0.3756  0.0766 -0.0448
15747W        W31641  13.545  13.531   1.257 -0.1569 -0.1042  0.3398
15748W        W31642   6.252  12.943  13.621  0.1786  0.0137  0.1166
15749W        W31643  10.752   4.294  13.725  0.0783 -0.0672 -0.0816
15750W        W31644   0.951  12.036  13.617 -0.2846  0.1046  0.1099
15751W        W31645  10.352   8.642  11.593  0.2020 -0.2469 -0.1198
15752W        W31646   9.084   2.328  11.088 -0.1746 -0.1089 -0.1843
15753W        W31647   6.801   1.384  14.279  0.0415 -0.1539  0.1207
15754W        W31648  16.865   0.486   2.097  0.0613 -0.0463  0.1106
15755W        W31649  14.769  11.442  12.039 -0.2582 -0.0014 -0.0759
15756W        W31650   4.007   7.406  12.116 -0.1070  0.0849  0.2554
15757W        W31651   1.714  11.003  12.421 -0.0905 -0.0930 -0.1019
15758W        W31652  18.429   6.547  12.069 -0.3103 -0.2259  0.3510
15759W        W31653  18.453  16.829  14.061  0.0100  0.0622  0.1495
15760W        W31654   4.708  14.984  11.831 -0.1211 -0.1306  0.0836
15761W        W31655  14.158   1.202   3.185 -0.1778 -0.0620 -0.0976
15762W        W31656   4.299  12.702   3.157  0.2517  0.0346 -0.1773
15763W        W31657  15.545  14.152   3.545  0.0159  0.1288 -0.3703
15764W        W31658  14.588   7.851   3.748 -0.0496 -0.5320  0.0443
15765W        W31659   7.916   0.202   0.364 -0.0868 -0.0645 -0.0224
15766W        W31660   3.782   3.615   2.857  0.1041 -0.1210  0.1003
15767W        W31661   6.234  14.821  14.965 -0.1729 -0.2218 -0.0487
15768W        W31662  17.017   3.660   2.977 -0.1477  0.0347  0.2153
15769W        W31663  14.359   8.471  15.069  0.1468 -0.2446 -0.0844
15770W        W31664   9.943   5.863   2.688 -0.1571 -0.0670 -0.0319
15771W        W31665   1.720   2.544  12.339  0.2475 -0.0316  0.1122
15772W        W31666   6.298  18.354  12.182  0.1223  0.0200 -0.3608
15773W        W31667   6.916  16.751   0.275 -0.1158 -0.0437 -0.0124
15774W        W31668   2.609  10.639   1.705  0.0982 -0.2088  0.0791
15775W        W31669  12.486   2.555   5.621 -0.0474  0.3293 -0.1136
15776W        W31670   9.844  10.063   4.122  0.0758  0.1692 -0.0805
15777W        W31671   5.552   6.363   4.471 -0.1544  0.2249 -0.2303
15778W        W31672   1.452  10.698  14.474 -0.0042  0.0751  0.5201
15779W        W31673  17.573   2.446  11.389 -0.2738 -0.0437  0.1710
15780W        W31674  16.973   9.163   0.079  0.0072  0.1474 -0.3756
15781W        W31675   9.378   8.521   2.972  0.0760 -0.0434 -0.2658
15782W        W31676   0.590   3.027   4.027  0.1440  0.0151 -0.1456
15783W        W31677   6.470  10.714  12.379  0.0868 -0.0418  0.1872
15784W        W31678   6.198   8.907  12.345 -0.0038  0.2896 -0.0249
15785W        W31679   6.123   1.746  10.747 -0.0114  0.0809  0.0204
15786W        W31680   8.181  17.349  13.001 -0.2040  0.2043 -0.3410
15787W        W31681   1.118   8.639   0.402 -0.0376  0.1341  0.2744
15788W        W31682  13.866   5.987  12.911  0.0864  0.0248  0.3603
15789W        W31683  18.756  14.617   4.770 -0.0862 -0.0009 -0.1370
15790W        W31684   9.714  11.638   1.847  0.0177  0.2485  0.1234
15791W        W31685   6.625   7.637   5.039  0.1389 -0.2524 -0.1067
15792W        W31686  16.672   4.972  14.499  0.0065  0.0479 -0.1649
15793W        W31687   0.195   7.997  12.841 -0.4488 -0.3249  0.0437
15794W        W31688   8.675  11.937   3.889 -0.2808  0.2386  0.0600
15795W        W31689  16.754   2.620   9.751  0.2319 -0.1874  0.1904
15796W        W31690  12.820   3.951  15.308  0.2898  0.1388  0.1463
15797W        W31691  15.875   2.899   2.480 -0.5296 -0.1305  0.0271
15798W        W31692  15.416   4.837   0.245  0.0159 -0.1791 -0.0679
15799W        W31693   7.733   5.911  12.430  0.1126  0.3153  0.1806
15800W        W31694   5.909   5.231   0.022 -0.2223 -0.2797  0.1152
15801W        W31695   6.073  10.534   0.594  0.0628  0.0023  0.3709
15802W        W31696   2.636   7.491   1.617 -0.1432 -0.2948 -0.1996
15803W        W31697   3.575  14.055  11.550 -0.1750  0.0688 -0.2042
15804W        W31698   2.289  16.366   1.906 -0.0234 -0.3471  0.0873
15805W        W31699  15.491  14.388   4.572  0.0434  0.1749 -0.0619
15806W        W31700  12.168   1.380  12.594 -0.0385  0.0548  0.2160
15807W        W31701  15.062  18.368   2.693 -0.1164  0.0203 -0.1561
15808W        W31702   6.607  16.652   4.528 -0.0950  0.0671  0.0677
15809W        W31703   4.359  16.920   1.938  0.0462  0.0407  0.2612
15810W        W31704   4.148  15.792  10.251  0.1093  0.0104 -0.0163
15811W        W31705   8.617  15.363  11.861  0.3805  0.1289  0.4222
15812W        W31706   8.037   2.404  14.953 -0.0937  0.0735 -0.1772
15813W        W31707   0.345  13.927   1.650  0.2570 -0.0092  0.2894
15814W        W31708   4.168   2.915   1.577  0.2827 -0.2686 -0.1393
15815W        W31709   5.287  18.028  11.718 -0.0360  0.1808 -0.0707
15816W        W31710  16.897   6.874  13.765  0.1012 -0.1773  0.2869
15817W        W31711  10.259  16.131  13.218  0.1702 -0.2762  0.0165
15818W        W31712  12.838   3.112   2.130 -0.0264 -0.0800 -0.0818
15819W        W31713  17.256  16.880  14.777  0.1510 -0.0338 -0.0692
15820W        W31714  17.139   8.246  15.581 -0.0781 -0.0380 -0.2556
15821W        W31715  11.101  10.791  15.064 -0.1451  0.1652  0.0098
15822W        W31716   6.898  12.313  14.057 -0.1789 -0.0151 -0.2985
15823W        W31717  17.586  18.181   0.264 -0.1809  0.2384  0.0673
15824W        W31718   7.177  18.133   2.417  0.1361  0.0197 -0.4553
15825W        W31719  13.425   4.888  10.165  0.0744 -0.0387  0.2849
15826W        W31720  18.157  18.667   1.119  0.1210 -0.0750  0.1844
15827W        W31721  13.377  14.288  13.768  0.1702 -0.0563  0.1227
15828W        W31722   6.525   5.277   5.236  0.1355  0.1046  0.0289
15829W        W31723   4.973   3.383   5.631 -0.0480 -0.1115  0.0038
15830W        W31724   9.823  17.826  15.254 -0.2881  0.0645 -0.0838
15831W        W31725   3.518  17.613  13.024  0.1802  0.0902 -0.1578
15832W        W31726   6.127  11.493  12.995 -0.0410  0.1996 -0.1387
15833W        W31727  12.242  18.544  12.267 -0.0881 -0.0617  0.0033
15834W        W31728   3.048  11.559  14.087 -0.0585 -0.1954  0.0795
15835W        W31729   1.959   1.178  11.723  0.0477 -0.2948  0.1144
15836W        W31730   3.415   0.259   2.658  0.1010 -0.1702 -0.2027
15837W        W31731  10.247   5.581   5.351 -0.0746 -0.1419 -0.4237
15838W        W31732  11.528  12.420   5.098  0.3203 -0.2941 -0.0621
15839W        W31733   2.689  10.776  13.555 -0.0081 -0.2048  0.1976
15840W        W31734   2.799  17.740  11.674 -0.1626  0.0971 -0.2045
15841W        W31735  10.194  16.726   2.842 -0.1384 -0.2972 -0.0956
15842W        W31736  12.019   9.933  12.281  0.1141 -0.3021 -0.1547
15843W        W31737   4.188   0.758   3.257 -0.0094 -0.1084  0.0375
15844W        W31738  15.516   0.163  14.796  0.0788 -0.0989 -0.0155
15845W        W31739  10.926   9.842   4.489  0.3031  0.0826 -0.1877
15846W        W31740   5.751  16.748  11.308 -0.0071 -0.2912 -0.0218
15847W        W31741  10.629  13.623  15.534  0.0873 -0.1108 -0.0284
15848W        W31742  12.102   2.476   4.278 -0.0675 -0.1049 -0.2785
15849W        W31743   6.547  10.703   2.058  0.2400 -0.1437  0.3393
15850W        W31744   5.747  10.742  15.074  0.0025 -0.1136 -0.0363
15851W        W31745   9.493   9.916   2.558  0.0218  0.0618 -0.1509
15852W        W31746   2.151   0.034   0.800 -0.0035  0.0220 -0.0502
15853W        W31747   2.703  16.395   2.855  0.1466 -0.0763  0.0332
15854W        W31748  15.526  18.217   6.281 -0.3526 -0.2646 -0.0014
15855W        W31749   2.636   7.868   0.490 -0.0426  0.0886  0.1700
15856W        W31750  17.446  10.404   2.797  0.0329 -0.4378  0.1906
15857W        W31751  13.418  11.934  11.294  0.0633  0.1268  0.2864
15858W        W31752  13.005   0.343   1.522 -0.0525 -0.1053 -0.1142
15859W        W31753   2.150  14.225   2.347 -0.0413  0.0951 -0.0039
15860W        W31754   8.305  10.160   2.724  0.2204 -0.1263  0.0661
15861W        W31755  16.606  15.616  14.924  0.1151 -0.2358 -0.1743
15862W        W31756  13.703   5.184   3.530  0.0934 -0.1740 -0.0080
15863W        W31757  11.331  17.891  10.883 -0.1473  0.1644  0.0186
15864W        W31758  18.073   6.081   2.491 -0.0722 -0.3179  0.2399
15865W        W31759   1.530   2.956  13.881  0.2208  0.0132  0.2291
15866W        W31760   2.849   2.096   0.341 -0.2314 -0.0021  0.0812
15867W        W31761   3.862   7.086   0.128 -0.1874  0.0871  0.1928
15868W        W31762  11.626  17.739  14.162  0.3627  0.2271  0.2199
15869W        W31763   9.080  10.112  13.704 -0.0111  0.2413 -0.4535
15870W        W31764  15.663   1.370  11.283 -0.0266 -0.1327  0.1989
15871W        W31765  16.382   2.805  15.471 -0.0192  0.0288 -0.2671
15872W        W31766  16.533   7.856   2.032  0.2231 -0.4236  0.0353
15873W        W31767   7.558   6.766  10.334 -0.2897  0.0165  0.2994
15874W        W31768   6.285   2.939  14.628 -0.0000 -0.0294 -0.0537
15875W        W31769  16.675   2.699  11.528 -0.0505 -0.3129 -0.2244
15876W        W31770   1.157  15.836  10.963  0.0173  0.0518 -0.1731
15877W        W31771   6.741   6.535  15.122 -0.1813 -0.0347  0.0091
15878W        W31772   0.962   9.052  15.231  0.0724  0.0358  0.1523
15879W        W31773   0.183  13.600   2.027  0.1021 -0.2696  0.4560
15880W        W31774  12.551  17.630  15.429  0.3774 -0.1124 -0.1326
15881W        W31775   4.218   0.905   4.342  0.2560  0.0565 -0.1515
15882W        W31776   4.351  14.078   1.046  0.0399 -0.1442 -0.0327
15883W        W31777   5.704  17.266   0.077 -0.0310 -0.0685 -0.0987
15884W        W31778  10.597   6.991  11.068  0.0779  0.0315  0.3119
15885W        W31779  13.181   6.767  14.892 -0.0905 -0.0455  0.1555
15886W        W31780  13.034   7.228  12.246  0.3108 -0.2808 -0.0439
15887W        W31781  14.731   8.939   3.156 -0.0692 -0.0418  0.1843
15888W        W31782  11.037  14.228   2.787  0.1618 -0.1176 -0.0983
15889W        W31783   9.449  14.494   4.640  0.4457 -0.1133 -0.0276
15890W        W31784  13.976  11.838  12.603  0.2582 -0.3367 -0.0958
15891W        W31785   1.990   0.018  15.442  0.3342 -0.0462  0.2145
15892W        W31786  11.370   6.541   2.222 -0.0490 -0.1416  0.1891
15893W        W31787   5.837  18.612  13.900  0.2261 -0.1977  0.1813
15894W        W31788  15.632   0.870   2.264 -0.2402  0.1453 -0.2326
15895W        W31789  15.429   3.098  12.659 -0.1185 -0.2354  0.0389
15896W        W31790   7.089   9.754   2.337 -0.1519 -0.0296 -0.2982
15897W        W31791   6.491   8.662  10.981 -0.2402  0.1785  0.2483
15898W        W31792  12.146  16.138   2.913 -0.2258 -0.2757 -0.0615
15899W        W31793   2.588  12.623  12.995  0.2026 -0.0692  0.0132
15900W        W31794  14.380   4.871  12.012  0.0292 -0.0367 -0.1905
15901W        W31795  18.449   5.560  12.212  0.0296  0.0967  0.0444
15902W        W31796   3.805   6.894  11.994 -0.1344  0.1935 -0.0525
15903W        W31797   9.763  16.334   1.428  0.1271 -0.2981  0.0680
15904W        W31798   3.316   7.987  10.230 -0.2431  0.1113  0.0590
15905W        W31799   0.778  10.849  10.445 -0.0827 -0.1937  0.0343
15906W        W31800   8.055   4.826   1.737  0.3018  0.1379 -0.1507
15907W        W31801   3.669  16.837   3.277 -0.0998 -0.0026  0.0267
15908W        W31802  14.376   8.653  14.235 -0.1908 -0.2645 -0.2152
15909W        W31803   9.467  15.239   9.917 -0.1903 -0.1727  0.1987
15910W        W31804   9.133   7.092  12.030 -0.0764  0.0012  0.0957
15911W        W31805   9.459   1.282  11.913 -0.0186  0.2512  0.2134
15912W        W31806  17.993   4.991  11.480  0.0714  0.0965 -0.1533
15913W        W31807   1.968   1.915   3.527  0.2908 -0.1758 -0.1071
15914W        W31808  10.171  16.872   3.307 -0.1680 -0.1545  0.1078
15915W        W31809   9.630  11.755   0.628  0.1191  0.0435 -0.0870
15916W        W31810   4.630   9.639  12.842 -0.2296 -0.2328 -0.2952
15917W        W31811   9.592   8.083   5.086  0.2165  0.1846 -0.1508
15918W        W31812   1.612  13.455   1.196  0.4301 -0.0644  0.0226
15919W        W31813   3.074  16.319   1.146 -0.0329  0.0530  0.0167
15920W        W31814  14.305  15.903  13.265  0.1822 -0.0213 -0.3962
15921W        W31815   3.294   1.568   3.863 -0.2993  0.1299  0.0264
15922W        W31816  16.076  15.524  13.988  0.0402 -0.0357 -0.1799
15923W        W31817   3.570  10.518  10.709 -0.2109 -0.3218 -0.1321
15924W        W31818  18.467  13.379  12.762 -0.0872  0.2033 -0.2312
15925W        W31819   9.049  10.920  12.636 -0.1084 -0.0457  0.5248
15926W        W31820  15.272   7.498   4.048 -0.0160  0.1354  0.0393
15927W        W31821   7.394   0.627  12.957 -0.1239  0.2579 -0.0493
15928W        W31822  11.106  18.425  11.364  0.3103 -0.1459  0.0434
15929W        W31823   4.084   9.368   2.597 -0.1723 -0.0026  0.0976
15930W        W31824   4.962  14.069  11.912  0.1480  0.1228 -0.1314
15931W        W31825  11.859  12.152   1.662 -0.0193 -0.0767 -0.1912
15932W        W31826  16.472  13.234  14.693  0.0221  0.0925 -0.3697
15933W        W31827   6.362  13.571  10.630 -0.2194  0.1964  0.0285
15934W        W31828  18.730   0.889   0.484 -0.2194 -0.0612 -0.2448
15935W        W31829   2.064   2.003   2.035  0.1666 -0.4838 -0.0207
15936W        W31830   6.549   9.893  11.433 -0.1553  0.2720 -0.1501
15937W        W31831  14.646   7.378   4.993  0.1094  0.1931 -0.1315
15938W        W31832  16.565  14.723  14.533  0.1545  0.2339  0.2477
15939W        W31833   6.482   6.129  13.735  0.0954  0.3149 -0.1546
15940W        W31834  16.461   6.131   5.413 -0.2684  0.0561  0.1138
15941W        W31835  14.310   5.677   2.115 -0.1124 -0.2227 -0.2543
15942W        W31836  12.818  17.350   4.331  0.1788  0.1943  0.5375
15943W        W31837  18.513   2.088   1.404  0.1030 -0.2684 -0.0508
15944W        W31838   5.254   1.191   3.101  0.1121  0.2342 -0.1524
15945W        W31839   5.823  18.151  10.357  0.1530 -0.4204 -0.0675
15946W        W31840   6.979   3.364  12.634 -0.0762  0.2850 -0.0033
15947W        W31841   6.352   9.485   0.756 -0.0765  0.3941  0.1620
15948W        W31842   1.006  16.027   3.955  0.1001 -0.5940 -0.1082
15949W        W31843   4.390   2.900   0.868 -0.1057  0.0499  0.1752
15950W        W31844  14.425  13.076   4.730  0.2122  0.0304  0.1211
15951W        W31845  15.637  11.890   0.668 -0.0838 -0.0643 -0.2199
15952W        W31846   6.985  15.323  12.214 -0.0608  0.0337  0.1401
15953W        W31847   8.591   0.426   1.731  0.1780  0.0703  0.0088
15954W        W31848  14.550  12.760  11.979 -0.0066  0.1725 -0.1686
15955W        W31849   9.522  11.593   1.093 -0.1186 -0.2572  0.2172
15956W        W31850  14.193   5.711   3.431 -0.3453  0.1019  0.0836
15957W        W31851  16.966   6.093   5.448 -0.1609  0.0763  0.1764
15958W        W31852  15.645   2.019  14.931 -0.3670 -0.0596  0.1727
15959W        W31853   6.640   7.023   1.772 -0.0561  0.0730  0.0010
15960W        W31854  17.672   4.909   2.074 -0.0916  0.0841  0.1887
15961W        W31855   0.003   3.258   4.887  0.0640  0.0572  0.1372
15962W        W31856  12.313   3.835  11.615  0.1202 -0.0764 -0.2263
15963W        W31857   3.075  14.062  10.392 -0.1665 -0.2445 -0.1167
15964W        W31858  13.344   0.185   1.901  0.3857  0.2724  0.1000
15965W        W31859  13.387   1.303   2.314  0.0500 -0.0185  0.4286
15966W        W31860   5.286  11.232   1.218  0.1570  0.0670  0.1200
15967W        W31861  10.447   6.945  14.198 -0.0854  0.2986  0.1567
15968W        W31862  15.490  17.884   1.390  0.0626  0.1499 -0.0215
15969W        W31863   8.393  18.682  13.347 -0.2891 -0.1910  0.0237
15970W        W31864   0.054  17.505   0.724  0.0728  0.0170 -0.1782
15971W        W31865  13.836  15.639  13.164  0.1110 -0.0535  0.0595
15972W        W31866  16.855  16.097   1.952  0.0660  0.2440 -0.0318
15973W        W31867  13.467   2.449  12.730  0.0305 -0.0519 -0.1063
15974W        W31868   9.690  12.923   3.862  0.2867 -0.0775 -0.0620
15975W        W31869   6.276  13.111  10.864  0.2218  0.1462  0.2082
15976W        W31870   2.453   5.733   3.657  0.0903 -0.0399 -0.0358
15977W        W31871   4.510  12.392  11.962 -0.2159 -0.1747  0.0596
15978W        W31872   6.138   3.037  10.658  0.0635  0.0205 -0.4312
15979W        W31873  12.268  12.945   2.727 -0.2857  0.0361  0.0340
15980W        W31874  14.102   2.806  14.944  0.0298  0.0821  0.0399
15981W        W31875   6.093  13.349   5.041  0.1670 -0.0020  0.0153
15982W        W31876  13.585   6.301  13.248 -0.2849  0.1681 -0.2591
15983W        W31877  14.794   2.161   2.594  0.1068 -0.0061  0.0456
15984W        W31878   1.783   1.072  15.462  0.2661 -0.1846 -0.2150
15985W        W31879  10.073  16.565  10.939  0.0402 -0.1376 -0.4051
15986W        W31880   3.329   6.038  15.529 -0.0194 -0.1635 -0.0268
15987W        W31881  10.189  14.442   2.180  0.2799 -0.1942 -0.2074
15988W        W31882   2.231   9.441  11.047  0.0535  0.0016  0.1571
15989W        W31883  12.385  11.557  10.669  0.2508  0.0551  0.2743
15990W        W31884  18.135  16.093  12.496 -0.2745 -0.2500 -0.3402
15991W        W31885   1.205  14.854  11.312  0.0756 -0.2402 -0.1121
15992W        W31886   1.125  12.928  11.991 -0.2618 -0.2890 -0.0635
15993W        W31887   6.962  14.350   4.601  0.2583  0.2870 -0.0843
15994W        W31888   2.179  11.115  15.104  0.0626 -0.5911 -0.1704
15995W        W31889   7.844   8.752  15.000 -0.0760 -0.3774  0.2924
15996W        W31890   8.586   1.447  10.573 -0.2892 -0.2090  0.0025
15997W        W31891  11.398  14.973   2.055  0.2202  0.2099  0.2877
15998W        W31892   2.373  17.011  10.259 -0.2087 -0.0496 -0.2585
15999W        W31893   7.304   5.509  12.704  0.1068 -0.3085  0.2478
16000W        W31894   0.585   4.093  11.356 -0.0369  0.0632 -0.2803
16001W        W31895  14.892   8.598   1.083 -0.2723 -0.1378  0.2499
16002W        W31896  14.955  11.569   2.844 -0.1297 -0.0081  0.2615
16003W        W31897   8.841   9.865   3.832  0.1786  0.2786  0.3943
16004W        W31898  11.765  11.173  12.446 -0.2075 -0.2688  0.2920
16005W        W31899  12.898  17.859   3.860 -0.1285 -0.3060 -0.0840
16006W        W31900  10.131   4.983  10.848  0.0774 -0.0490 -0.1184
16007W        W31901  15.392   6.133   4.281  0.0662  0.1048 -0.0554
16008W        W31902   3.510  14.044   3.634 -0.5625  0.0721  0.2594
16009W        W31903   6.160  14.753  11.080 -0.1946 -0.1447  0.0698
16010W        W31904  10.732  17.987  15.582 -0.1892 -0.0563 -0.2178
16011W        W31905   2.420   8.754   1.887  0.1491  0.0815 -0.0269
16012W        W31906   9.415   2.764   3.244  0.0581 -0.3327 -0.1775
16013W        W31907  15.710  17.157   2.347 -0.0768 -0.3005  0.1321
16014W        W31908  15.707  15.055   3.808  0.4289  0.0664  0.0501
16015W        W31909   1.219   3.359   0.659  0.0163  0.2908  0.1114
16016W        W31910   3.595  12.242   3.973 -0.2104  0.2372 -0.0247
16017W        W31911  14.781   7.295   3.889  0.2026 -0.0550 -0.1007
16018W        W31912  15.449   7.857  14.179 -0.2441 -0.1300  0.2497
16019W        W31913   7.732   8.481  11.609 -0.1449 -0.0716  0.2811
16020W        W31914   2.633  17.812   5.310 -0.1711  0.2513  0.0011
16021W        W31915   2.731   1.100  12.438  0.3127 -0.0659 -0.1317
16022W        W31916  13.006  17.839  15.541  0.2112  0.0014 -0.1015
16023W        W31917   5.648  15.862   4.004  0.0276 -0.0465 -0.2340
16024W        W31918  16.250   1.541   5.279 -0.0745  0.0374  0.0872
16025W        W31919  12.199  17.760   3.157  0.0302  0.3375 -0.0833
16026W        W31920  16.334   8.868  11.823  0.0124 -0.1482 -0.1219
16027W        W31921  16.632  11.946  11.901  0.0555 -0.1492  0.0317
16028W        W31922   1.760   1.969   4.669 -0.1223 -0.4819 -0.0676
16029W        W31923  12.931   9.857   3.287 -0.0459  0.4806 -0.1399
16030W        W31924  16.091  17.384  14.340 -0.0924 -0.1089  0.2009
16031W        W31925   5.455  15.989   3.144 -0.0985  0.2377 -0.0272
16032W        W31926  11.908   6.412  14.412  0.1031 -0.1247  0.1785
16033W        W31927   3.934  17.376  12.795 -0.1541 -0.2176  0.0507
16034W        W31928  11.470   7.689  11.520 -0.0551 -0.0025 -0.0219
16035W        W31929  16.873  11.035   0.588  0.0285 -0.7731 -0.0320
16036W        W31930  13.193   7.612   1.707 -0.1198 -0.1690  0.3729
16037W        W31931  14.396   3.034  15.245 -0.0819 -0.0609  0.3355
16038W        W31932   3.839  14.533  13.636  0.1049 -0.1736 -0.0972
16039W        W31933  18.121  13.807   3.692  0.1994 -0.0245  0.2472
16040W        W31934  11.324  10.133   5.796 -0.3305  0.2098 -0.1638
16041W        W31935  10.894   1.018   4.046  0.0235  0.1753  0.1973
16042W        W31936   8.799   1.327  13.603 -0.1748 -0.1339  0.0635
16043W        W31937  11.375   2.464   3.065  0.0653  0.2535  0.3480
16044W        W31938  15.020  13.935  13.982 -0.2484 -0.0554  0.0325
16045W        W31939  11.060  18.379   3.753 -0.2229 -0.0711  0.4412
16046W        W31940  12.259  12.881   6.212  0.1860 -0.2527  0.1769
16047W        W31941  13.731  11.215   4.046  0.0623  0.2750  0.1263
16048W        W31942  15.286  11.206   2.915 -0.1651  0.0657  0.0154
16049W        W31943  18.130  15.664  11.180  0.0255  0.0806  0.0985
16050W        W31944   5.695   3.114  11.187 -0.1613  0.0295  0.2275
16051W        W31945   5.496  10.806   1.054 -0.1486  0.1794  0.0309
16052W        W31946  13.200   2.937  12.374  0.1335  0.1329 -0.2286
16053W        W31947  10.537   3.648   0.367 -0.1574 -0.0909 -0.2100
16054W        W31948   2.998  10.775   3.285  0.1688 -0.3690  0.0907
16055W        W31949  13.633   6.890  13.374 -0.2368 -0.0611 -0.0474
16056W        W31950   1.290   6.335   4.118 -0.0192 -0.1186  0.1407
16057W        W31951   1.177   2.482   5.743  0.0768  0.1270 -0.1420
16058W        W31952   1.402   2.514  14.180  0.0362 -0.3282 -0.1901
16059W        W31953   3.362  18.653  12.697  0.0135 -0.1865  0.0343
16060W        W31954  15.000  13.816  14.552  0.0736 -0.0650  0.2066
16061W        W31955   9.874  12.614   1.670  0.0306  0.0795 -0.1192
16062W        W31956   7.975   4.077   0.622  0.0442 -0.1909  0.0289
16063W        W31957  16.526  15.824   2.672 -0.0852 -0.1285  0.0669
16064W        W31958   4.914  17.992  11.080  0.2079  0.0480  0.0836
16065W        W31959   5.500  12.326   2.932  0.0267 -0.1739  0.2451
16066W        W31960  15.128   5.315   2.251  0.5654 -0.1669 -0.0030
16067W        W31961  16.246   6.927  12.264  0.0023  0.0014 -0.1263
16068W        W31962  12.676   5.390   0.450 -0.1052  0.0529  0.1527
16069W        W31963   3.588  10.345   1.054  0.0161 -0.1058  0.3508
16070W        W31964   9.598  14.790   2.866  0.1680  0.1951 -0.2059
16071W        W31965   6.689  12.836  13.438 -0.0040 -0.0937  0.0570
16072W        W31966   9.094   3.265  11.178 -0.0805  0.0801 -0.2045
16073W        W31967  16.777   6.840  12.398 -0.1158  0.0981 -0.2249
16074W        W31968   2.038  16.951   5.153 -0.0846  0.3081 -0.0107
16075W        W31969  11.999  13.400   3.388 -0.2885 -0.1925 -0.3322
16076W        W31970  15.048  15.685  13.128 -0.2731  0.2618  0.1269
16077W        W31971  10.369   7.064  13.253  0.2055  0.3716 -0.1282
16078W        W31972  13.934   8.163  14.109  0.0951 -0.1238  0.0801
16079W        W31973  13.298  11.149   5.635  0.2955  0.4132 -0.0113
16080W        W31974  18.645   2.574  12.575  0.4561 -0.1025  0.1589
16081W        W31975  16.288  16.424  13.664 -0.1116 -0.1395  0.0872
16082W        W31976  17.531   1.409  13.661 -0.0204 -0.2164 -0.0797
16083W        W31977  12.745  13.821  11.319  0.0579 -0.3136 -0.0495
16084W        W31978   1.839   1.536   2.319 -0.0121  0.1916 -0.0067
16085W        W31979   6.096   7.414   3.330  0.1609 -0.0327 -0.0121
16086W        W31980   0.030   0.336   0.461 -0.1941  0.3210  0.0641
16087W        W31981   1.032   8.580  12.288  0.0386 -0.1835 -0.2522
16088W        W31982   9.786  12.319  15.210  0.0969 -0.0110 -0.2320
16089W        W31983  15.546   0.413  14.346  0.3392  0.1557  0.0651
16090W        W31984  17.452   2.960   3.628 -0.0975  0.0056 -0.0317
16091W        W31985   1.325  11.971  12.126 -0.1029  0.1416 -0.0013
16092W        W31986   8.087   7.869   4.918  0.0039  0.0585  0.1829
16093W        W31987   5.003  12.539   4.791 -0.0218 -0.4186 -0.2001
16094W        W31988   3.876  16.981   0.020  0.1592  0.1885 -0.1324
16095W        W31989  15.587   0.641   5.011 -0.1076 -0.0544  0.0827
16096W        W31990  13.754   2.953  14.539 -0.3270 -0.1457 -0.0641
16097W        W31991   4.370  11.274  14.236  0.0925 -0.1516 -0.1687
16098W        W31992   7.528   5.153  11.348  0.0437 -0.1346  0.1867
16099W        W31993   2.321  15.098  11.657  0.1497 -0.0975 -0.0149
16100W        W31994   8.175  11.224   1.583  0.0364  0.1038 -0.0825
16101W        W31995  12.264  10.884   3.074 -0.5422  0.0183 -0.1017
16102W        W31996   2.643  14.762   9.742 -0.1643 -0.0599 -0.0549
16103W        W31997   7.384   1.042   0.388  0.0423 -0.2188  0.2417
16104W        W31998   8.922   0.614  12.923  0.0211  0.0429  0.4299
16105W        W31999  15.765  14.904  14.090  0.0095 -0.0617 -0.0212
16106W        W32000   3.749  11.668  14.879  0.0845 -0.1589  0.2439
16107W        W32001  11.606   6.614   4.346 -0.0629  0.0549  0.0671
16108W        W32002   3.991  17.986  11.216 -0.1096 -0.0804  0.0724
16109W        W32003  16.423  15.932   2.209 -0.1790  0.3433 -0.0930
16110W        W32004  15.868   4.770   6.158 -0.3097  0.0037 -0.2790
16111W        W32005   3.964  10.578   3.244  0.0742 -0.0145  0.4148
16112W        W32006   4.992  16.927  11.743 -0.1783  0.0851 -0.1406
16113W        W32007  17.537   2.508   5.475 -0.2638 -0.2066  0.0367
16114W        W32008  12.177  16.119   0.729 -0.2468  0.0788 -0.3328
16115W        W32009  14.453   4.282   0.921  0.0545 -0.0072  0.0895
16116W        W32010   9.500  14.893  13.965 -0.1052 -0.0678 -0.0467
16117W        W32011   9.937  17.938  10.816  0.4109  0.1031  0.2052
16118W        W32012  10.967  17.350  13.583 -0.0715  0.0793  0.2863
16119W        W32013  16.259  15.363   1.302 -0.1621  0.1671 -0.3116
16120W        W32014  18.177  14.354   0.275 -0.1352 -0.2557  0.0602
16121W        W32015  16.752   7.416   1.368  0.1981 -0.0731  0.0512
16122W        W32016  17.774  14.351  11.563 -0.0572 -0.1679  0.1059
16123W        W32017   0.175   6.110   2.174 -0.1263  0.0321  0.1014
16124W        W32018  17.121  17.922   0.482 -0.0323 -0.2948 -0.0257
16125W        W32019   4.720  15.854   0.252 -0.3148 -0.0867  0.0504
16126W        W32020   2.241  14.464   0.354 -0.0240 -0.4157 -0.1029
16127W        W32021   1.829   5.373  13.190 -0.1866 -0.3698 -0.0731
16128W        W32022  12.449  12.661   1.072  0.0661  0.1576 -0.0411
16129W        W32023  11.489  15.175   1.565  0.2693  0.0832  0.4431
16130W        W32024  15.059   5.650   5.087 -0.0746  0.0862  0.0797
16131W        W32025   0.415  11.633   2.314  0.0750  0.0291  0.0482
16132W        W32026  13.046   1.211  14.776 -0.0049 -0.0710  0.0570
16133W        W32027  14.190  17.410   3.989 -0.0498  0.0319 -0.3106
16134W        W32028   9.671   9.296   0.602  0.0305 -0.0261 -0.1993
16135W        W32029  11.132  11.609   1.209  0.0051 -0.0868 -0.0416
16136W        W32030   0.081  18.713  11.206  0.2734  0.0268  0.0945
16137W        W32031   1.968   0.731   0.233  0.2532  0.0108 -0.2019
16138W        W32032   3.370  16.676  13.767  0.0553 -0.1615  0.2030
16139W        W32033  15.480   3.163  10.788  0.1663  0.1300 -0.0632
16140W        W32034  10.087   0.120  11.372  0.3320 -0.1084  0.3120
16141W        W32035   5.172   5.823  11.250  0.2674 -0.2366  0.2233
16142W        W32036  10.645   5.676  11.770  0.2091  0.1817  0.0608
16143W        W32037  14.468  11.602  13.261  0.2190  0.0651 -0.0329
16144W        W32038  12.754   4.234   4.216 -0.0062  0.0444  0.2601
16145W        W32039   0.448  11.130  14.574 -0.0278  0.0722 -0.2716
16146W        W32040  15.479   2.810   4.317 -0.2052 -0.0814  0.0307
16147W        W32041   9.858   4.570  10.801  0.0883 -0.1100 -0.2419
16148W        W32042  14.548  14.617  12.401 -0.1302  0.1065  0.2816
16149W        W32043  10.487   5.277   5.058 -0.2642  0.1113  0.0610
16150W        W32044   2.105  16.792  10.974  0.0350 -0.2408 -0.2166
16151W        W32045  16.827   4.815   1.392  0.1529 -0.1076 -0.0522
16152W        W32046   0.718   0.658   1.195  0.2776 -0.0171  0.4706
16153W        W32047  17.138   3.744   1.344 -0.0947  0.0602  0.1376
16154W        W32048  16.661  17.563  15.245 -0.1908 -0.2125  0.2871
16155W        W32049   3.965   7.152   5.595  0.0600  0.3024 -0.4191
16156W        W32050  13.682   0.864  14.263 -0.2764 -0.0460  0.0026
16157W        W32051   5.914   1.585  15.181 -0.2528 -0.1498 -0.2390
16158W        W32052   1.731   6.588  15.267  0.1605  0.0657 -0.3092
16159W        W32053  10.534   7.889   3.585  0.0193 -0.0605 -0.0921
16160W        W32054   8.713  13.172  14.602  0.0842 -0.1241 -0.0442
16161W        W32055  17.206   4.936   0.190 -0.2629 -0.2573 -0.0030
16162W        W32056  14.872   2.274   3.835 -0.2670 -0.0421  0.0618
16163W        W32057   7.970  14.624   1.461  0.0210  0.0281  0.2019
16164W        W32058  16.046   1.143   2.420 -0.1239  0.0378 -0.2102
16165W        W32059   0.043  16.192  15.259 -0.1263 -0.2645 -0.1322
16166W        W32060   4.133  13.891   2.422 -0.1238  0.2048  0.1104
16167W        W32061   1.684  18.121  12.225  0.0903  0.1386 -0.2200
16168W        W32062   8.570   5.055  10.694 -0.2104 -0.1961 -0.0507
16169W        W32063   1.590  17.590   1.636  0.2373  0.0874 -0.0321
16170W        W32064  16.354   7.758   4.818 -0.1973  0.2866  0.0153
16171W        W32065   4.077  18.255  12.911 -0.1034  0.1248 -0.0952
16172W        W32066   2.287   4.696  11.162 -0.1093 -0.1677 -0.0983
16173W        W32067  15.203   0.844  14.342  0.1100  0.2378  0.0849
16174W        W32068   0.707   2.639   3.620 -0.0402  0.1078 -0.1180
16175W        W32069  16.937   8.762  11.166  0.3213 -0.1733  0.1463
16176W        W32070   3.127   9.091  14.619 -0.2050  0.4929 -0.1938
16177W        W32071   5.136  13.756   3.816 -0.0566 -0.1259  0.0484
16178W        W32072  16.249  12.908   2.042 -0.0941  0.0890 -0.2050
16179W        W32073  10.578   2.597   0.284 -0.0993  0.3169 -0.1404
16180W        W32074  14.781   6.191   4.439 -0.1422  0.0667  0.3568
16181W        W32075   6.867  14.040   4.149 -0.0984 -0.1231  0.0871
16182W        W32076   1.418   2.961  10.974  0.1382  0.2389  0.0309
16183W        W32077  10.698  17.787  13.597 -0.2401 -0.2091 -0.1069
16184W        W32078  15.105  18.485  15.609  0.1824 -0.1046 -0.1352
16185W        W32079  10.005  11.738   0.937  0.0454  0.0440 -0.1223
16186W        W32080   8.074   4.791  13.466  0.0336 -0.3168 -0.0398
16187W        W32081  15.210   6.581   2.667 -0.1181  0.0632  0.2944
16188W        W32082  13.272   1.795   2.483  0.0990 -0.0566  0.1336
16189W        W32083  13.352   3.834  13.134  0.1676 -0.0281  0.0310
16190W        W32084  18.490  10.023  13.506  0.0304 -0.0859 -0.0811
16191W        W32085   6.162   1.747  12.125 -0.2396  0.1182  0.0145
16192W        W32086  14.824  13.826   5.682 -0.2773  0.0008  0.3206
16193W        W32087   8.837  15.425  12.701  0.2093  0.3330 -0.0043
16194W        W32088  18.518   4.921  14.072 -0.2667  0.0175 -0.0289
16195W        W32089   4.792  13.282  13.007  0.0961  0.0212 -0.1831
16196W        W32090   5.071  10.115  10.729 -0.0741  0.1175 -0.1802
16197W        W32091  16.843  10.550  14.938 -0.0206 -0.2343  0.3241
16198W        W32092  15.452   6.913   1.446 -0.2170  0.2994  0.1351
16199W        W32093   8.684  10.184   5.234 -0.3961  0.0122 -0.1644
16200W        W32094  14.680   1.484   4.640 -0.2105 -0.0106 -0.1648
16201W        W32095  14.556   8.815  14.823  0.0090 -0.4805 -0.1472
16202W        W32096  13.323  11.391   0.691  0.1345 -0.0347 -0.1806
16203W        W32097   0.612  13.193  11.358 -0.0146 -0.0063  0.1861
16204W        W32098  14.103   1.790   5.678  0.1723  0.1155 -0.2334
16205W        W32099   5.990   4.090   3.290  0.0648 -0.0280 -0.0372
16206W        W32100   5.807   5.578   5.947 -0.0563  0.0897 -0.1803
16207W        W32101   2.368  17.486   0.844  0.0719 -0.3732  0.0319
16208W        W32102   2.940   3.585  11.451  0.0284  0.1689 -0.1308
16209W        W32103  14.414   0.864   9.806 -0.1773 -0.3623 -0.1118
16210W        W32104   0.129   4.078   0.232  0.0976  0.0802  0.2907
16211W        W32105   5.592   7.701   0.880 -0.2607 -0.0524  0.0126
16212W        W32106  13.949   5.720  15.244  0.2957 -0.1547 -0.0517
16213W        W32107  10.248   9.750  12.468 -0.2817  0.1653  0.0231
16214W        W32108   1.466   4.032   2.474 -0.1321  0.0736  0.0056
16215W        W32109   5.216   5.777  15.601  0.2031 -0.2371 -0.2476
16216W        W32110   1.883   1.591  12.724  0.1108  0.3890 -0.2945
16217W        W32111  16.674  13.974  13.375 -0.3419 -0.0988  0.2805
16218W        W32112  14.693   7.396   1.638 -0.1080 -0.0857  0.0527
16219W        W32113   7.055   4.653  13.219  0.1616  0.0413 -0.0746
16220W        W32114   9.265  11.045   3.282  0.1989  0.0501  0.0177
16221W        W32115   9.854  16.429  13.119  0.0752  0.3371  0.3535
16222W        W32116   4.347   1.652  13.046  0.2410  0.1001  0.1935
16223W        W32117   0.977  15.841   5.309 -0.0265  0.2806  0.1762
16224W        W32118  12.445   3.471  14.484  0.0967  0.1826  0.0173
16225W        W32119  18.481  10.452   3.402 -0.1343 -0.0492  0.1126
16226W        W32120   6.055  10.683  15.503  0.2995 -0.1608 -0.0646
16227W        W32121   6.565   3.695  11.923  0.2785 -0.0956  0.1436
16228W        W32122   8.040  14.879   4.517 -0.2546 -0.0145 -0.3875
16229W        W32123   6.698  10.253  12.279  0.0726  0.1904 -0.3482
16230W        W32124   5.344  11.061   2.903 -0.0371  0.0549  0.0573
16231W        W32125  13.766  17.228   0.069 -0.0863 -0.2655 -0.1031
16232W        W32126   2.091   0.874  11.245 -0.0251  0.1092  0.4422
16233W        W32127   8.415   9.305  14.844  0.2100  0.1175  0.0360
16234W        W32128  16.912   5.528  13.210  0.0809  0.1111  0.1084
16235W        W32129  10.090  17.105  12.265 -0.1974  0.0483 -0.0261
16236W        W32130   1.238   1.307   2.958  0.2250 -0.1317  0.4176
16237W        W32131   6.322   2.835   0.303 -0.1293  0.0409 -0.0890
16238W        W32132   8.096  15.751  10.375 -0.0194 -0.0928  0.2385
16239W        W32133  18.641  13.630  10.904  0.0613 -0.0100 -0.0906
16240W        W32134   3.007   5.281   1.190 -0.0673 -0.1066 -0.4626
16241W        W32135   3.440  17.277  10.935  0.1215  0.0670  0.3769
16242W        W32136  12.082   8.623  14.038 -0.1893 -0.0111 -0.0248
16243W        W32137  18.332  15.718   1.017 -0.0732  0.3295 -0.3793
16244W        W32138   5.894  11.548   1.564 -0.3766 -0.4046 -0.1351
16245W        W32139   7.177  13.647  14.309 -0.1992 -0.2826 -0.2968
16246W        W32140   8.867  13.587   2.704  0.1773  0.0036 -0.0459
16247W        W32141   9.396  11.489  14.622  0.0995  0.0492 -0.3050
16248W        W32142   7.611  16.431  15.575 -0.1962  0.2034  0.3649
16249W        W32143   6.957   2.463   1.442  0.0919 -0.0437  0.0674
16250W        W32144   7.192  13.640   4.960  0.0991  0.3745 -0.3552
16251W        W32145   1.906   4.008  15.246  0.2714 -0.1647  0.3121
16252W        W32146   4.285  10.813   5.390 -0.3881 -0.1670 -0.0682
16253W        W32147   8.658   4.790   3.498  0.5163 -0.1475 -0.0652
16254W        W32148   9.553  12.592  13.878  0.2627 -0.2244 -0.1356
16255W        W32149  11.388  17.127  13.738 -0.2031 -0.0822  0.4556
16256W        W32150  13.591   8.469   2.728 -0.1420 -0.3521  0.0221
16257W        W32151   8.917  10.368  11.847  0.5086 -0.1413  0.2766
16258W        W32152   0.434  17.854   4.306 -0.0631  0.2269  0.2716
16259W        W32153   6.881  15.395   4.947  0.5425  0.3128 -0.1843
16260W        W32154  14.576  10.499  11.411  0.0745  0.4706  0.0718
16261W        W32155  13.106   4.770  12.348 -0.5313 -0.2271 -0.0719
16262W        W32156   7.755   6.821   3.217  0.0215 -0.0158  0.2909
16263W        W32157   0.968  17.034  15.246 -0.0420 -0.2536 -0.2257
16264W        W32158   1.686  10.358   1.737 -0.0891 -0.0306 -0.0683
16265W        W32159  16.679   5.575   0.462  0.4539  0.0415  0.0909
16266W        W32160   5.823  13.102   3.696  0.2471  0.2827 -0.1444
16267W        W32161  11.693   8.255  12.764  0.2018  0.1041 -0.1990
16268W        W32162  13.721   6.554  11.779 -0.0342 -0.0382  0.3406
16269W        W32163   4.061  17.610   4.505  0.1574  0.0918  0.2440
16270W        W32164  12.297   4.078   1.012  0.1848 -0.0182  0.1317
16271W        W32165  10.405   2.644  10.628  0.3755  0.3117 -0.1372
16272W        W32166   9.693  14.708   0.968 -0.2443  0.0990 -0.0772
16273W        W32167   8.254  10.789  12.437 -0.0535 -0.0766 -0.2007
16274W        W32168  10.680   3.239  13.261  0.2469 -0.0620  0.0726
16275W        W32169  12.850   9.008  14.492 -0.0560  0.2620  0.1878
16276W        W32170  18.299  13.803  15.062  0.0899 -0.0460 -0.0601
16277W        W32171  10.292   7.522   0.763 -0.0918 -0.2142 -0.0972
16278W        W32172  14.187   1.570  11.063  0.0543 -0.4606 -0.0307
16279W        W32173  16.247  12.302   5.300 -0.1957 -0.2435  0.1010
16280W        W32174  10.124   2.315   2.497 -0.2719  0.0837  0.4211
16281W        W32175   4.397   6.974   1.917 -0.2385  0.1541 -0.2071
16282W        W32176  10.128  12.614   1.242  0.0180 -0.1050  0.1805
16283W        W32177   9.246  18.484  11.458  0.2233  0.2660 -0.2146
16284W        W32178   2.228   2.070   4.783  0.1843 -0.0668 -0.1039
16285W        W32179   0.707   3.709   2.068 -0.1179  0.3771  0.4456
16286W        W32180  12.985   8.929  14.986  0.1188 -0.1315  0.3122
16287W        W32181  18.404   2.628   0.659  0.0734  0.0841 -0.1185
16288W        W32182   9.265  13.973  14.046 -0.1730  0.1736  0.1200
16289W        W32183   9.506   6.196   4.266  0.2634 -0.0942  0.2032
16290W        W32184  15.488   1.867  11.006  0.1112  0.1853  0.0574
16291W        W32185  10.955   6.083  11.783 -0.2326  0.0720  0.1343
16292W        W32186  14.702   4.715   5.313 -0.0468 -0.0126  0.2386
16293W        W32187  16.434   3.969   1.499  0.0944  0.2013 -0.1885
16294W        W32188  12.044   1.244   1.728 -0.3284 -0.2706  0.1017
16295W        W32189   7.566  14.127   1.463 -0.0555 -0.0165  0.0495
16296W        W32190  16.084   3.975  14.818 -0.3442  0.0131  0.0401
16297W        W32191  13.328  10.176   2.480 -0.1386  0.0407 -0.2650
16298W        W32192   9.552   6.469  14.468 -0.0891  0.1500 -0.0131
16299W        W32193   0.969   8.732  11.569  0.2937 -0.0089 -0.0631
16300W        W32194   6.083   4.413  11.025  0.3924 -0.1095 -0.3259
16301W        W32195   5.837   5.585   1.546  0.2502 -0.3915  0.0165
16302W        W32196  17.878  12.906  15.504  0.0353  0.0621  0.1574
16303W        W32197   0.550   5.529  14.032 -0.1325 -0.2930 -0.0990
16304W        W32198  17.965   5.084   2.453  0.3414 -0.2918 -0.1823
16305W        W32199   5.755  18.227   4.671  0.1875 -0.2992  0.0667
16306W        W32200   4.650   0.328  12.535 -0.3670  0.2225 -0.3681
16307W        W32201   7.033   5.912   4.135 -0.1066  0.2687 -0.1078
16308W        W32202  14.182   6.269  13.846 -0.0812  0.0068 -0.1424
16309W        W32203   4.900   6.074  12.823 -0.2312 -0.2675 -0.0359
16310W        W32204  14.271  15.190  13.894 -0.1345 -0.0662  0.0751
16311W        W32205  16.182  12.312   3.326 -0.1573 -0.1055 -0.2636
16312W        W32206   4.896   3.182  12.937 -0.1774 -0.0306 -0.1287
16313W        W32207   5.152  16.563   4.074  0.0459 -0.4728 -0.0698
16314W        W32208   5.588   6.132   5.246 -0.3682 -0.0092 -0.2375
16315W        W32209   8.500  12.558   0.466  0.0626  0.1066  0.1948
16316W        W32210  13.596  16.197   1.498 -0.0950 -0.1037 -0.0406
16317W        W32211   0.710   8.893  11.992  0.2424  0.1953 -0.0018
16318W        W32212  13.614  10.562   1.104  0.0129 -0.1086 -0.2973
16319W        W32213   1.849  14.892  15.103  0.0231  0.0651  0.1472
16320W        W32214   8.443   9.102  11.528  0.0160 -0.1441 -0.0850
16321W        W32215  15.944   3.746   1.687 -0.1314 -0.1000 -0.0814
16322W        W32216   7.048  10.224   5.099  0.3829  0.2795  0.0602
16323W        W32217  11.437  15.553  12.124 -0.4419  0.1513  0.3152
16324W        W32218   3.149  14.344   2.413 -0.0245  0.2743 -0.0865
16325W        W32219  11.304  16.303  13.585 -0.0480 -0.1710  0.1212
16326W        W32220  11.863  13.309   0.916  0.1373 -0.3534  0.2081
16327W        W32221   1.839  13.748  11.679  0.1147 -0.1054 -0.3089
16328W        W32222   9.152  16.091   0.028  0.2379  0.0818 -0.0066
16329W        W32223  17.813   0.290   1.103  0.2768 -0.1885  0.2107
16330W        W32224   7.782  15.568   5.154 -0.1859  0.1403 -0.0172
16331W        W32225  16.526  13.596   0.220 -0.0675 -0.1898 -0.0287
16332W        W32226  14.228  16.784  12.575  0.0378  0.2210  0.0129
16333W        W32227  16.265  17.645   0.102  0.1127 -0.1544  0.5315
16334W        W32228   0.195  15.369   0.040  0.1583  0.2792  0.1196
16335W        W32229   1.275   3.767   0.326  0.2184 -0.0086 -0.0530
16336W        W32230   9.058  16.468  14.134 -0.1019  0.1016 -0.1796
16337W        W32231  15.128  10.603   3.650 -0.1897 -0.0289  0.0130
16338W        W32232  13.907  15.592  14.466 -0.0857  0.1509  0.2243
16339W        W32233   7.771  18.498   0.712 -0.1597  0.1344 -0.0897
16340W        W32234   7.933  13.282   0.784  0.0638 -0.1047 -0.0454
16341W        W32235  13.302  10.331  15.040 -0.0312  0.2144 -0.1124
16342W        W32236  14.619   3.040  13.755  0.1778  0.0725 -0.0994
16343W        W32237   5.106  14.468  13.189 -0.3671  0.2143 -0.2841
16344W        W32238   2.108  15.841   1.141  0.1875 -0.0059  0.0550
16345W        W32239   4.301   0.716  13.450 -0.0527  0.0460 -0.1016
16346W        W32240  11.049   1.716  15.450  0.0596  0.2347 -0.0502
16347W        W32241  16.115   4.021  10.779  0.3777 -0.0901 -0.2661
16348W        W32242   1.520  15.457  12.778  0.0316  0.0060 -0.0813
16349W        W32243  13.870   3.222   4.311 -0.0788 -0.0335  0.2020
16350W        W32244  12.770   9.937   6.045 -0.0719  0.0813 -0.0654
16351W        W32245   6.529  18.711  11.160 -0.1238 -0.2621 -0.0486
16352W        W32246  17.480  16.101   1.597  0.1762  0.2596 -0.0065
16353W        W32247   5.585   9.040   0.750  0.1384  0.1148  0.1956
16354W        W32248  13.832   5.302  14.265  0.0946 -0.1162  0.3572
16355W        W32249   0.101   5.318  15.292  0.1261  0.1925 -0.2846
16356W        W32250   7.050  15.229  14.613 -0.0586 -0.1739 -0.1555
16357W        W32251  10.423  18.620  10.745  0.5956  0.4241  0.5051
16358W        W32252   6.884  12.887  14.248 -0.1887  0.3318  0.4215
16359W        W32253  13.522   2.157   3.869 -0.2688  0.0638  0.0059
16360W        W32254  10.143  11.746   0.407 -0.4317 -0.2346 -0.0460
16361W        W32255  17.497   7.923   0.031 -0.2208 -0.0219 -0.1140
16362W        W32256   3.639  13.692   4.484  0.3249  0.0625  0.0071
16363W        W32257   0.135  11.983   4.892 -0.0718 -0.2283 -0.0205
16364W        W32258   8.799   4.918  15.465  0.2424 -0.1486 -0.2641
16365W        W32259  15.650  17.619   5.256 -0.0927  0.0113 -0.3534
16366W        W32260   6.864   9.260   2.144  0.1055  0.0246  0.0616
16367W        W32261  14.246  16.961   6.082  0.0685  0.0681 -0.0997
16368W        W32262   6.097   5.761   1.095  0.1318 -0.1070 -0.0350
16369W        W32263  14.898  18.531  11.594 -0.1960  0.0176  0.0074
16370W        W32264  16.308   9.583   4.936  0.1901 -0.1804 -0.2083
16371W        W32265  15.094  11.763   0.978 -0.1989 -0.0705 -0.0806
16372W        W32266  10.184   4.596   1.194  0.0132 -0.2026 -0.2356
16373W        W32267   2.277  16.838  14.102  0.1736 -0.2596  0.4020
16374W        W32268  10.325   1.409   2.212  0.2410 -0.0214  0.3076
16375W        W32269  11.272   4.856  12.756  0.1127 -0.2459  0.5094
16376W        W32270   0.244   3.630  11.232  0.3920  0.0431  0.1530
16377W        W32271  10.948  14.007  13.632 -0.0102 -0.1489  0.0826
16378W        W32272   3.623   7.258  14.076 -0.0222  0.0751 -0.1459
16379W        W32273   9.975  11.553   1.398  0.1299  0.0528 -0.1010
16380W        W32274   4.702   6.952  10.139 -0.1086 -0.0475 -0.2344
16381W        W32275  11.736   4.623  11.746  0.1548 -0.2001  0.1233
16382W        W32276  14.490   5.395  11.265  0.0228  0.1379 -0.2580
16383W        W32277  15.116   6.530   3.614  0.2078 -0.0231 -0.2746
16384W        W32278  14.863   6.911   1.791 -0.0110 -0.2562 -0.1904
16385W        W32279   0.477   0.697   4.218 -0.3281 -0.0577  0.1781
16386W        W32280   0.866  14.641   1.906  0.1604 -0.1064 -0.1693
16387W        W32281  11.159   2.342   4.862  0.2528  0.2675  0.5023
16388W        W32282   5.195   6.195   3.606 -0.0326 -0.1052 -0.1292
16389W        W32283   4.024  14.862   0.970 -0.0815 -0.0727  0.4718
16390W        W32284  17.426  10.984   5.598  0.3182  0.3165 -0.1268
16391W        W32285   2.818   0.367   0.125  0.2336  0.1883 -0.0673
16392W        W32286   4.480  18.765  15.568 -0.0334 -0.0337 -0.0910
16393W        W32287  15.612  12.773  14.728 -0.3699  0.0660 -0.1589
16394W        W32288  16.236   0.873  10.198 -0.0625  0.0522  0.2544
16395W        W32289  12.584  14.203   1.489 -0.1043  0.0809  0.0681
16396W        W32290   9.070   2.453   4.088 -0.2918  0.0370 -0.0285
16397W        W32291  15.845  11.456   5.027  0.2391 -0.0089  0.2458
16398W        W32292  10.617  17.034   2.711  0.0258  0.0046  0.0671
16399W        W32293  13.216  15.731  13.925  0.0560 -0.1183 -0.1370
16400W        W32294  14.801  17.782   3.266 -0.0072 -0.2433  0.1812
16401W        W32295  15.240  15.243  14.533 -0.1917  0.0294 -0.1274
16402W        W32296   2.813   2.483   1.859  0.1586 -0.0464  0.0987
16403W        W32297   9.621   2.530   2.774 -0.1440 -0.0786  0.0968
16404W        W32298  12.145   1.389   2.159 -0.1042  0.0840  0.3562
16405W        W32299  18.170   8.491   1.894  0.0095  0.1840 -0.2562
16406W        W32300  17.632  14.844   3.951 -0.0406 -0.1836  0.0813
16407W        W32301   3.680  10.343   2.120  0.1714  0.0587  0.3059
16408W        W32302   1.238  14.793   9.969 -0.1529 -0.2308  0.2527
16409W        W32303   2.288  14.429  13.439 -0.4809  0.2091 -0.2823
16410W        W32304   5.705  13.019  14.137  0.0685 -0.2022 -0.1295
16411W        W32305   0.966  12.806  13.124  0.0791  0.1305 -0.2577
16412W        W32306  10.971  12.348   5.036  0.1408  0.1027  0.3330
16413W        W32307   4.075  18.584   1.677 -0.1388 -0.1266  0.0795
16414W        W32308  12.742  11.452  11.729  0.1628 -0.3580  0.0294
16415W        W32309  17.278  14.106  14.159 -0.0273  0.1269  0.2217
16416W        W32310  13.369   4.177   5.023  0.2474 -0.2794  0.2137
16417W        W32311  11.025   2.169  14.753 -0.0846  0.0381  0.2004
16418W        W32312   9.159  12.333   5.465 -0.1696  0.1668  0.1160
16419W        W32313  18.300  12.648   4.266  0.2603  0.1099  0.1348
16420W        W32314   6.919   9.475  13.825 -0.3353  0.1722  0.0706
16421W        W32315   5.604  13.466   3.983 -0.0245 -0.1101  0.0371
16422W        W32316   8.037   6.959  15.347 -0.1933  0.2079 -0.0860
16423W        W32317   6.000   7.457   1.228 -0.2615 -0.0426 -0.2429
16424W        W32318   9.630  16.739   4.741 -0.1122 -0.4324 -0.0356
16425W        W32319  17.220   6.076  15.031 -0.2225 -0.4146  0.0776
16426W        W32320   9.862   2.869  12.889  0.0657  0.0379 -0.0301
16427W        W32321   4.687  15.377  12.205  0.1432 -0.2236  0.3290
16428W        W32322  10.917  15.200   0.755  0.1076 -0.1264  0.0005
16429W        W32323  13.159   1.651  11.551 -0.1110  0.2148 -0.1343
16430W        W32324   9.509   4.947  11.573 -0.2627  0.0457 -0.1075
16431W        W32325   0.850  15.884   2.024 -0.0711  0.1125  0.1408
16432W        W32326  14.496  16.125   3.474 -0.1794  0.0273  0.1180
16433W        W32327   7.958   9.790  11.849  0.1737 -0.1423  0.2174
16434W        W32328  11.853  13.848  15.284 -0.0104 -0.1076 -0.1649
16435W        W32329   7.482   7.933   3.757  0.1247  0.1488 -0.1155
16436W        W32330   8.744  16.974  15.480 -0.1722 -0.2664 -0.1437
16437W        W32331   7.773  10.786  12.267 -0.0322 -0.3305  0.2682
16438W        W32332   3.790  14.755   4.271 -0.1300  0.0774  0.1081
16439W        W32333   7.014   6.944   0.826 -0.1108  0.2167  0.0058
16440W        W32334   2.366   0.885   3.109 -0.1599 -0.1913 -0.3361
16441W        W32335   9.723   5.990   3.889 -0.0290  0.1827  0.0630
16442W        W32336   2.264   1.928  12.865 -0.2403 -0.2762 -0.1774
16443W        W32337   6.700   5.226   0.390  0.1596 -0.2411  0.1885
16444W        W32338  18.316   4.253  10.274  0.1618  0.0280  0.0815
16445W        W32339   9.940  14.056  12.759  0.0457  0.1499 -0.0969
16446W        W32340  11.387   6.746  13.218  0.1099  0.3234  0.0795
16447W        W32341   5.386   6.183   2.204  0.2202 -0.1484  0.0499
16448W        W32342   7.920  18.207  12.946 -0.1258  0.2898  0.2449
16449W        W32343   5.819  15.485  10.633 -0.0908  0.2910  0.1275
16450W        W32344   8.718  13.064   9.815  0.1670  0.0304 -0.0978
16451W        W32345  17.119  15.624   1.240  0.0376  0.1520 -0.0202
16452W        W32346   2.630  14.622   1.222  0.0612 -0.4079  0.2565
16453W        W32347  17.031  15.804   2.927 -0.3286  0.1938 -0.2209
16454W        W32348   3.347   7.021   4.597 -0.0947  0.0146  0.0356
16455W        W32349   7.292  16.667   1.662  0.3058  0.1109  0.0248
16456W        W32350  10.288  12.233   0.015  0.3263 -0.0961  0.0389
16457W        W32351  10.635  12.694   5.132  0.1719 -0.2423 -0.1321
16458W        W32352   5.400  12.526   1.443 -0.3482  0.0869 -0.0270
16459W        W32353  18.211   4.641  11.048  0.0342  0.4199 -0.0156
16460W        W32354  10.376   2.778  14.919 -0.0039  0.1053  0.1896
16461W        W32355   4.297   2.652   2.544  0.2080  0.3374  0.2873
16462W        W32356   6.701   1.395  13.248  0.2414 -0.2882  0.0786
16463W        W32357  11.660   2.740  10.508 -0.0100  0.0952  0.0370
16464W        W32358   2.519  17.473   4.561  0.1035 -0.2597 -0.1809
16465W        W32359  11.166   3.318  13.918 -0.0451 -0.0638  0.0709
16466W        W32360   1.130   5.040   2.112  0.0800  0.1248 -0.0128
16467W        W32361   2.906  14.731   4.308 -0.0986 -0.0959 -0.0629
16468W        W32362  13.919   7.014  12.051 -0.1957  0.2633 -0.2052
16469W        W32363  15.321  15.602   0.596  0.1620 -0.2247  0.0487
16470W        W32364  12.288   7.750   3.287 -0.2501  0.2734  0.0859
16471W        W32365  14.055   5.683   4.184  0.2680 -0.1003 -0.0259
16472W        W32366   0.295  16.867   1.426 -0.1097 -0.1267  0.1687
16473W        W32367   8.320  15.648  14.274 -0.0644 -0.3039 -0.2087
16474W        W32368   4.853  10.325   1.279  0.0616  0.0372  0.1608
16475W        W32369   7.540   2.544  15.620 -0.1767 -0.1158  0.0634
16476W        W32370  17.296  10.370   4.021 -0.1312 -0.1678  0.1103
16477W        W32371   7.488   0.156   4.029  0.1716  0.1918 -0.0896
16478W        W32372   7.481  10.143   5.518  0.1800  0.0451  0.1067
16479W        W32373  13.562   3.521   3.917 -0.0682  0.0318 -0.1741
16480W        W32374  13.086  12.133   3.731  0.4450 -0.0419 -0.2249
16481W        W32375   8.735  10.357   3.598 -0.3118  0.1986 -0.2137
16482W        W32376  10.519  16.322   1.193 -0.1663  0.0582 -0.0881
16483W        W32377   7.317   1.552   0.680 -0.0094 -0.0250  0.0056
16484W        W32378  10.455  10.734  13.148 -0.0450 -0.2062  0.1961
16485W        W32379   1.195  14.142  14.439  0.0522 -0.4253 -0.0194
16486W        W32380   7.829  18.299   1.150  0.0422  0.0360  0.0239
16487W        W32381   8.460   7.697  13.729 -0.3244  0.1547  0.0161
16488W        W32382   7.244   0.342  13.413 -0.5857  0.0007  0.0417
16489W        W32383  14.817   1.987   4.641 -0.0903  0.0761  0.0183
16490W        W32384  10.482  15.655  12.433  0.0398 -0.1351  0.2984
16491W        W32385   3.296   2.170  10.983 -0.2776  0.3344  0.2076
16492W        W32386  18.088   8.073  11.784  0.1579 -0.1183 -0.2050
16493W        W32387   6.315   4.157  13.615 -0.0404  0.1624  0.2014
16494W        W32388   7.015  15.348   0.992 -0.0117 -0.0004  0.2297
16495W        W32389  16.599  12.754   3.992  0.1256  0.1453 -0.1243
16496W        W32390   4.502  18.548  11.485 -0.1426  0.3027  0.0995
16497W        W32391   5.476   4.318  13.584 -0.0603  0.2941  0.1135
16498W        W32392   7.796   2.581   4.026 -0.3496 -0.0511 -0.2532
16499W        W32393  16.745  15.752   0.934  0.0204  0.1232  0.0535
16500W        W32394  16.615   8.743  14.801  0.1326 -0.2151 -0.2517
16501W        W32395  12.457   7.382  15.288  0.0453 -0.0123  0.3946
16502W        W32396   5.294  18.514   1.441  0.3209  0.0045 -0.0876
16503W        W32397  11.229  11.888   6.103  0.0462 -0.0951 -0.1401
16504W        W32398  12.041   9.178  12.980 -0.0606  0.0836 -0.0289
16505W        W32399  15.330   7.355  12.232 -0.2549 -0.2395 -0.0360
16506W        W32400   1.426  15.707  14.625 -0.0337 -0.2611 -0.1396
16507W        W32401   6.792  17.554  12.891  0.1734  0.0243  0.1132
16508W        W32402  11.785  14.808   1.659 -0.0135 -0.0057 -0.1372
16509W        W32403   7.833  11.403   3.328  0.1259  0.2057  0.0875
16510W        W32404   8.384  18.168   1.689  0.0728  0.1046  0.1510
16511W        W32405   2.090   4.360  10.705 -0.3725  0.2615  0.0223
16512W        W32406   4.856   4.467  15.573  0.0659 -0.2259  0.0155
16513W        W32407  18.598   8.418  14.707  0.1784  0.0863  0.3167
16514W        W32408   0.050  12.617   2.985  0.0746 -0.0352 -0.1069
16515W        W32409  18.018   0.152   4.844  0.1673 -0.2127  0.1234
16516W        W32410  13.052  17.467   2.857  0.1877  0.1236  0.1771
16517W        W32411  13.768   1.328   4.946  0.1774  0.2233  0.0200
16518W        W32412   7.189   7.579  11.597  0.0599 -0.2920  0.1095
16519W        W32413  16.981   9.608   3.875 -0.0936  0.2845 -0.0492
16520W        W32414   9.613   0.207  11.017 -0.0361 -0.1384  0.3100
16521W        W32415  16.994  16.374  11.771  0.1863 -0.0910  0.1543
16522W        W32416  10.483   1.205   2.636  0.0682 -0.0923  0.1374
16523W        W32417   7.530   9.123   2.890  0.1950  0.1651 -0.0534
16524W        W32418   7.909  14.658   5.455  0.0843  0.1288 -0.0333
16525W        W32419   9.697   3.066  14.105 -0.0681  0.3656 -0.1439
16526W        W32420   3.409  17.464  14.075 -0.1471  0.2092 -0.1136
16527W        W32421   7.248   3.169  11.801 -0.4263  0.2826  0.0338
16528W        W32422   9.639   5.107   3.193  0.3664 -0.0397  0.3307
16529W        W32423  10.629   4.604   1.399 -0.4710 -0.1581 -0.0651
16530W        W32424   5.718  12.099   4.778 -0.3148  0.0558 -0.2596
16531W        W32425   8.061   2.452  15.467 -0.1301  0.2912  0.3644
16532W        W32426  16.851   0.133  11.981 -0.0774  0.0809 -0.0796
16533W        W32427  15.445   0.382  13.408 -0.0230 -0.0565 -0.0964
16534W        W32428  11.618  11.466   1.329  0.1411  0.0241  0.4211
16535W        W32429   9.441  12.309   3.266 -0.2298  0.0720 -0.0640
16536W        W32430   4.548  15.532  12.703 -0.0217 -0.0532 -0.0776
16537W        W32431   6.892   0.991  12.185  0.0574 -0.0538  0.1369
16538W        W32432  14.572   3.775   4.489  0.1542 -0.0533 -0.3637
16539W        W32433  10.095   1.710  15.385 -0.1013  0.1954 -0.3062
16540W        W32434   5.475   0.806   0.765 -0.2249 -0.2531  0.0180
16541W        W32435   3.746  14.974  13.149 -0.0238  0.2831 -0.0454
16542W        W32436   1.461   1.332  10.804  0.0560 -0.2557  0.0126
16543W        W32437  17.478   2.036   5.172 -0.4203 -0.1518 -0.1985
16544W        W32438   8.551   5.827  14.330 -0.2328  0.0977  0.2922
16545W        W32439  12.227  13.624  12.754  0.0794  0.1929  0.1241
16546W        W32440  11.485   9.377   5.266  0.1430 -0.0706 -0.0003
16547W        W32441   9.710   9.641  12.510  0.1700  0.3466  0.0084
16548W        W32442  10.389   9.469   5.154  0.1854  0.2566  0.2808
16549W        W32443  13.738  13.923  12.249  0.1593  0.3357 -0.2600
16550W        W32444  10.468  16.190   0.001 -0.2712 -0.0095  0.0232
16551W        W32445   7.950   6.993  14.826  0.1334 -0.0355 -0.1203
16552W        W32446  17.554   3.217   2.037 -0.3406  0.0498 -0.1400
16553W        W32447   5.483  18.293   0.432  0.0328 -0.0819 -0.3185
16554W        W32448  12.946  18.635   4.628 -0.0729  0.0917  0.0985
16555W        W32449   2.231  15.817   3.720  0.2330  0.1990  0.0632
16556W        W32450  10.136   9.495  11.997  0.1262  0.2474  0.4456
16557W        W32451   5.353   8.774   3.800 -0.1375  0.1664  0.1479
16558W        W32452  12.522  11.190  13.978  0.0232  0.0915  0.2685
16559W        W32453   3.111  12.994  11.790 -0.0398 -0.1678  0.0119
16560W        W32454   4.467   2.972   3.569  0.4754  0.0572  0.5033
16561W        W32455   2.265  13.868  13.931 -0.1815  0.3664 -0.1315
16562W        W32456   6.406   9.020  15.487  0.4997  0.1427  0.1417
16563W        W32457   9.032  11.056  11.075 -0.0036 -0.0038 -0.0170
16564W        W32458   7.788  12.499  14.064 -0.4149  0.0934 -0.0091
16565W        W32459   8.331  15.217   4.848 -0.1595  0.1048 -0.1219
16566W        W32460  17.728   4.344   2.944 -0.1976  0.2641  0.0264
16567W        W32461  14.130  12.896  13.849  0.0102 -0.0906  0.0745
16568W        W32462   7.596  12.974  15.223 -0.4794 -0.1325  0.0579
16569W        W32463  13.647   7.621   5.262 -0.1447 -0.0600  0.0256
16570W        W32464   1.851  11.897  12.531  0.3825 -0.0705 -0.0162
16571W        W32465   1.612   6.429  14.228  0.0962 -0.4413 -0.0984
16572W        W32466  15.735   5.107  13.638 -0.2660  0.0646 -0.0360
16573W        W32467  14.649  18.106  11.471  0.0397  0.0495  0.0172
16574W        W32468  13.289   4.165  14.076 -0.1058  0.0634 -0.1129
16575W        W32469  11.743   8.126   0.891  0.1571  0.2413  0.0975
16576W        W32470  17.343  16.152  13.680  0.0025  0.2940 -0.0273
16577W        W32471  11.858   4.375   1.088 -0.3095  0.1257  0.3331
16578W        W32472   4.060   7.633  11.447  0.4118 -0.0498 -0.0913
16579W        W32473   7.116   3.330   4.883 -0.1297  0.1433 -0.2841
16580W        W32474  16.605  15.339  14.465  0.2896 -0.0665  0.2225
16581W        W32475  10.648   6.680   3.701 -0.1147  0.1524 -0.0419
16582W        W32476   7.520  12.487   2.011  0.2573 -0.3816  0.0902
16583W        W32477   2.281  14.108  12.537 -0.0667 -0.0871  0.0244
16584W        W32478   1.225  15.896   3.511 -0.1024 -0.0043  0.0718
16585W        W32479  13.111   5.174   5.291 -0.1758  0.0716 -0.0986
16586W        W32480  13.039  18.668   3.412  0.0766 -0.0406 -0.0548
16587W        W32481  16.259  12.598  14.101 -0.1484  0.0329  0.0265
16588W        W32482   0.092  15.892   0.127 -0.0419  0.2310  0.0358
16589W        W32483  11.626   7.351  14.311 -0.3227  0.1347  0.1027
16590W        W32484  10.547  18.406   3.489 -0.0809  0.4924  0.0125
16591W        W32485  10.822   2.837  11.854  0.1259  0.0518 -0.2316
16592W        W32486   7.745   9.341  15.481  0.2062  0.1065 -0.1035
16593W        W32487   7.973  11.153   2.832 -0.0409 -0.1340  0.0009
16594W        W32488   5.331   8.959  12.157  0.0310  0.1101 -0.0679
16595W        W32489   4.003   2.430   2.196 -0.0988  0.1563  0.0525
16596W        W32490  15.112  13.671   4.867 -0.1494 -0.0084  0.0725
16597W        W32491   7.410   9.614  15.025 -0.2520  0.4116 -0.0150
16598W        W32492  11.677  11.279  11.327  0.2377 -0.1259 -0.3340
16599W        W32493  11.750   7.649   5.715 -0.3316 -0.1407  0.2142
16600W        W32494   5.385   1.925   2.461 -0.0391 -0.0802 -0.1501
16601W        W32495   7.096   1.383  12.599 -0.2487  0.2060 -0.2363
16602W        W32496  10.277   9.922  14.309  0.3933 -0.0069 -0.4516
16603W        W32497   7.954  15.506   2.492 -0.1305  0.1943 -0.0350
16604W        W32498   7.149   1.464  10.629  0.0857 -0.1122 -0.2530
16605W        W32499   3.808   8.018  10.103  0.1969 -0.0164 -0.0631
16606W        W32500   2.724   1.157   0.415  0.0233  0.2989  0.1064
16607W        W32501   2.292  16.667   1.506  0.1876  0.1163  0.1531
16608W        W32502   6.587  13.101   2.879  0.0570  0.0952 -0.0343
16609W        W32503   8.773  17.538   0.236 -0.0653  0.0230 -0.2991
16610W        W32504   4.607   8.619  14.101 -0.3813  0.0408  0.3828
16611W        W32505   2.971  11.598   5.916 -0.2338 -0.0024  0.1397
16612W        W32506   7.187  15.154   1.504  0.1603 -0.1783  0.2106
16613W        W32507   4.012  15.564  13.423  0.0409  0.1564  0.2907
16614W        W32508   8.612  14.400  11.700 -0.2054  0.0999 -0.2049
16615W        W32509  17.212  18.311  15.044  0.0272 -0.1401 -0.1532
16616W        W32510   0.362  10.875  12.077  0.1711  0.2704  0.0926
16617W        W32511   7.477  12.772  12.596  0.1996  0.0147  0.0988
16618W        W32512   7.612   4.034   3.370 -0.2277  0.1517 -0.0548
16619W        W32513  15.139   2.785  12.226  0.1206  0.2707 -0.1766
16620W        W32514   4.872   9.522   2.176  0.0702 -0.1284  0.0098
16621W        W32515  18.721  16.737   3.239 -0.3118 -0.0659 -0.3196
16622W        W32516   4.694  15.513   1.789  0.2773  0.2681 -0.0195
16623W        W32517  14.499   7.990  13.953 -0.1893  0.2528  0.0208
16624W        W32518   4.315  14.009  12.344  0.1020 -0.2216 -0.0601
16625W        W32519   5.159   7.648   0.020  0.1636 -0.1999  0.0896
16626W        W32520   4.748   1.283  13.989 -0.0168 -0.1770  0.2209
16627W        W32521   4.430   8.831  11.913  0.2365 -0.1665  0.3200
16628W        W32522   0.405  12.335  13.693 -0.2032  0.0136 -0.0128
16629W        W32523  14.015   6.462   1.605  0.1084  0.3178  0.3695
16630W        W32524   0.566  12.954   3.724  0.2713 -0.1599  0.1334
16631W        W32525  13.798   7.913   3.664  0.0213  0.0024  0.0473
16632W        W32526   4.274  14.534   5.580  0.2674 -0.0067 -0.0801
16633W        W32527   7.102   1.083  13.906 -0.1218 -0.2700 -0.0592
16634W        W32528   9.241  14.879  11.891  0.1789  0.3238 -0.1035
16635W        W32529  12.263   3.350   3.808  0.2590  0.2426  0.0844
16636W        W32530  15.686   0.144   2.992 -0.0297 -0.2782  0.0196
16637W        W32531   9.757   4.989  14.499  0.0835 -0.3206 -0.0419
16638W        W32532   5.255  16.531   1.025  0.1299 -0.1325 -0.0433
16639W        W32533   1.242  15.872   4.855  0.0191 -0.0485 -0.0858
16640W        W32534  17.110  12.021   3.965 -0.2253  0.0530 -0.0940
16641W        W32535   0.494   8.035  11.142  0.0180 -0.2283  0.0488
16642W        W32536  13.887  16.015   2.103  0.2259 -0.1565  0.0700
16643W        W32537  16.376  13.847   1.477  0.3021  0.2425 -0.1086
16644W        W32538   9.467   5.502  12.871 -0.1364 -0.0971  0.2967
16645W        W32539  13.792  13.481   4.300  0.1558 -0.1999 -0.0700
16646W        W32540  14.498   9.801   4.908 -0.0355 -0.0190 -0.1613
16647W        W32541  18.198  11.254  13.484 -0.1852 -0.0436  0.1509
16648W        W32542   4.726   8.469  14.917  0.3483 -0.0198  0.1561
16649W        W32543  13.031   2.275  12.477  0.1372  0.1457 -0.1452
16650W        W32544  16.791  11.375   4.599 -0.0004  0.1322 -0.2092
16651W        W32545  16.692  10.504   4.150  0.1856 -0.2977 -0.0947
16652W        W32546  11.409  14.866  15.554  0.0767 -0.2847 -0.3074
16653W        W32547  13.270  17.223   2.509 -0.2462 -0.7087 -0.0014
16654W        W32548  11.853   2.180  15.621 -0.0747  0.1248 -0.0197
16655W        W32549  18.192   2.226  12.439  0.3204 -0.1785 -0.1703
16656W        W32550   3.000   1.479  12.656  0.0952  0.1173 -0.0542
16657W        W32551   0.978  17.037   1.996  0.0443 -0.2495 -0.2587
16658W        W32552   7.589   7.099   1.618  0.0613  0.2100 -0.0314
16659W        W32553  10.065   2.507  11.859  0.1153 -0.1130  0.1384
16660W        W32554  18.007   8.288  14.256 -0.1751 -0.1552  0.1344
16661W        W32555   1.717   3.687  13.483 -0.0173  0.1001  0.0363
16662W        W32556   0.671  16.698  15.456 -0.1244  0.1010  0.4197
16663W        W32557  11.928  16.231   4.077  0.2249 -0.1764  0.1637
16664W        W32558   3.487  16.182  14.019 -0.0464  0.1847 -0.0008
16665W        W32559  17.241  11.912   1.502 -0.2974 -0.1954 -0.0698
16666W        W32560  13.035   2.082  13.994 -0.2407  0.1838 -0.0746
16667W        W32561   8.520  11.368   1.906  0.1900  0.0537 -0.1910
16668W        W32562  13.073  12.474   2.700  0.1252 -0.0515 -0.1864
16669W        W32563   9.748  11.899   3.117 -0.1432  0.1430 -0.0540
16670W        W32564   5.080  10.239   1.746 -0.2998  0.0730  0.1940
16671W        W32565  12.899  18.580  13.876  0.0602  0.1022  0.3415
16672W        W32566  14.046   0.278  11.497  0.0295  0.2002 -0.1761
16673W        W32567   4.285   0.942   2.789 -0.2735 -0.1487  0.0254
16674W        W32568  12.634   6.616  12.888  0.0499 -0.3820  0.0222
16675W        W32569  12.063   4.065  11.179 -0.0025 -0.0796 -0.1636
16676W        W32570   0.637  13.352   3.018  0.1954  0.3448  0.0816
16677W        W32571   4.172  13.308   1.564  0.0048 -0.3172 -0.1651
16678W        W32572  18.440   7.018  12.167 -0.0109 -0.2355 -0.1799
16679W        W32573   3.241   3.203   5.058  0.1226 -0.1874 -0.2744
16680W        W32574   9.955  15.642   0.606  0.1228 -0.0562  0.3500
16681W        W32575  15.419  13.386   2.507  0.0535  0.1563  0.0572
16682W        W32576   5.377   0.215   1.520  0.0308 -0.1556 -0.1114
16683W        W32577  10.456   6.544   0.406 -0.0224 -0.1025  0.0799
16684W        W32578  16.010   6.299  10.532 -0.1584  0.2186 -0.2343
16685W        W32579  10.839  17.448  10.498  0.2389 -0.1573  0.0132
16686W        W32580   9.938   1.403   0.125 -0.1553  0.1350 -0.0344
16687W        W32581   7.719   4.529   1.403 -0.1387 -0.0251  0.0379
16688W        W32582  12.724   2.749  12.457 -0.1858  0.1044  0.0150
16689W        W32583  14.199  17.157  12.265 -0.0331 -0.2730 -0.5074
16690W        W32584   4.531  10.962  13.649  0.1092 -0.2596 -0.1109
16691W        W32585  17.713   1.144   2.893  0.1053  0.1370  0.3154
16692W        W32586   6.511  14.455  13.758  0.0310  0.1537  0.0435
16693W        W32587  11.733   3.392  15.225  0.2365  0.1783  0.0875
16694W        W32588  15.312   5.787   1.614 -0.1796  0.1613 -0.1966
16695W        W32589   0.545   0.100   4.456 -0.4052  0.3001 -0.1966
16696W        W32590  12.117   9.596   3.828  0.0306  0.2627 -0.0262
16697W        W32591   6.811   4.097  13.235  0.3880 -0.1670  0.0692
16698W        W32592   0.181   2.865   3.602  0.0879  0.1140  0.0652
16699W        W32593   7.410  13.100   3.271  0.1157 -0.1645  0.2373
16700W        W32594  15.948   5.455  11.222 -0.1688  0.1015  0.2091
16701W        W32595  12.675  16.841   4.337 -0.1267  0.1218 -0.2806
16702W        W32596  16.978   3.046   2.917 -0.0032 -0.1105  0.1940
16703W        W32597  16.530  13.249   0.682 -0.0322  0.0443 -0.0931
16704W        W32598   6.832  16.315   1.555 -0.5627 -0.1554  0.2201
16705W        W32599  10.908  13.893   1.108 -0.0177  0.1523  0.1704
16706W        W32600  13.470  15.662   1.109 -0.0040 -0.1453 -0.2148
16707W        W32601  13.374  17.038   2.957 -0.0408  0.3526 -0.0423
16708W        W32602   3.869   0.318  13.978  0.1282  0.0206  0.0636
16709W        W32603  13.997   9.320   3.765  0.0371 -0.0050 -0.2396
16710W        W32604  15.349   5.829  15.100  0.4664  0.0567  0.1614
16711W        W32605   4.698  11.649   0.577 -0.2128 -0.1409 -0.0923
16712W        W32606  16.318   5.542  13.044 -0.0961 -0.1106 -0.0482
16713W        W32607  15.139  16.306  15.604  0.0029 -0.3548  0.0212
16714W        W32608   2.375   3.204   3.998  0.0095 -0.0394  0.1663
16715W        W32609   7.926   0.046   3.295 -0.3378  0.1384 -0.3467
16716W        W32610   1.510   4.898   2.660 -0.3456  0.0670  0.3772
16717W        W32611  16.895  18.655  12.433 -0.0158  0.1868  0.2265
16718W        W32612   7.924  10.714   0.884 -0.3062  0.2770  0.3512
16719W        W32613   1.407  14.211   2.919 -0.1512  0.1182 -0.2259
16720W        W32614   7.902  16.991  12.417 -0.1764 -0.1763  0.0163
16721W        W32615   1.920  11.590   2.436 -0.2717 -0.1766 -0.3429
16722W        W32616   7.414   1.747   3.929 -0.1432 -0.0882  0.4630
16723W        W32617  13.481  15.270   3.901  0.1598 -0.1726  0.0382
16724W        W32618   2.748  12.738  14.207 -0.1996  0.0632  0.0665
16725W        W32619  13.027   5.784   2.962  0.1082  0.2770 -0.0167
16726W        W32620   3.845   1.380   3.617  0.0063 -0.1218  0.1871
16727W        W32621  16.852  13.635   0.691  0.1851 -0.1367  0.1659
16728W        W32622  17.602  12.779  12.726  0.1046  0.0161  0.1508
16729W        W32623  12.664   4.236   5.941  0.3594 -0.1556  0.2079
16730W        W32624   9.725   4.027   4.025  0.1515  0.1637  0.2432
16731W        W32625  14.549   8.744  13.242 -0.0687 -0.1775 -0.0237
16732W        W32626   4.145  11.593  15.214  0.1569  0.0843  0.0069
16733W        W32627   3.078   8.737   3.183  0.0376  0.2306  0.0487
16734W        W32628   0.968  14.584  15.460  0.2313  0.1051 -0.3286
16735W        W32629   4.884   1.376  15.498  0.1580  0.2940  0.5391
16736W        W32630   0.081  17.208   1.708 -0.0687  0.0810 -0.2676
16737W        W32631  14.283   3.254  14.699 -0.1453 -0.1973 -0.1940
16738W        W32632  14.887  16.708   0.584  0.3225 -0.1214 -0.2026
16739W        W32633  12.571  12.933  11.552  0.1372  0.1355  0.0766
16740W        W32634   7.164   1.608  13.040  0.0758  0.0425  0.1403
16741W        W32635   7.455  12.492  11.790  0.2468 -0.0293 -0.1845
16742W        W32636   1.920   2.016  13.755  0.1743  0.0539  0.1724
16743W        W32637   0.022   3.339  13.073  0.0162 -0.0359  0.3294
16744W        W32638  18.078   4.896   0.352 -0.0560  0.1134 -0.0572
16745W        W32639   9.657   9.396   2.735  0.0261  0.1199  0.1266
16746W        W32640   3.895   2.278   4.194 -0.1113  0.3070 -0.0149
16747W        W32641  14.442  16.980   0.838  0.1197  0.0554  0.0247
16748W        W32642  17.718  13.187   0.276 -0.3626  0.0928 -0.0301
16749W        W32643  17.494  11.718   0.094  0.0842 -0.0742 -0.1168
16750W        W32644  12.918  10.722   3.566 -0.3521  0.0459  0.3252
16751W        W32645  14.058  15.568  15.296 -0.0250  0.0074 -0.0665
16752W        W32646   7.915  17.864   0.275 -0.0730  0.2258 -0.0845
16753W        W32647  13.818   4.588  12.963 -0.2032  0.0305 -0.0150
16754W        W32648   0.975   3.513  15.157  0.2670  0.1607 -0.2914
16755W        W32649  12.113   8.115  14.337 -0.2002 -0.0912 -0.2661
16756W        W32650   8.218  12.119  14.091 -0.0979 -0.1491  0.2566
16757W        W32651   8.179  14.134   2.441 -0.1210  0.3513 -0.0427
16758W        W32652   2.249   0.458  15.524  0.0028  0.0542  0.1319
16759W        W32653  16.929   3.720  14.393  0.0994  0.1548 -0.0563
16760W        W32654   1.861   9.837  13.827 -0.0296 -0.1249 -0.3659
16761W        W32655  12.100   8.900   5.620  0.1159  0.0332  0.0392
16762W        W32656   6.950   5.127   3.656  0.1230  0.1880  0.1749
16763W        W32657  18.375  11.395   4.339 -0.0801 -0.3379  0.0985
16764W        W32658  17.435  12.333  10.542 -0.1029  0.0990  0.0095
16765W        W32659   7.248   7.338  14.058  0.1173 -0.4374  0.2610
16766W        W32660   4.717  13.714  13.283 -0.0302  0.0210  0.0375
16767W        W32661   4.152   9.302  13.687 -0.2572 -0.0003 -0.1868
16768W        W32662   0.212   4.262  14.591  0.0456 -0.2845 -0.0747
16769W        W32663  13.306   9.266  13.135 -0.1175 -0.1746  0.1538
16770W        W32664  15.631  18.546   1.474 -0.1666 -0.3477 -0.0552
16771W        W32665  10.810  15.421   0.312 -0.0952  0.2112 -0.1291
16772W        W32666   4.907   7.974   5.339 -0.0167 -0.0801 -0.1152
16773W        W32667  11.287  17.579  11.778 -0.2869 -0.0530 -0.1617
16774W        W32668  13.062  10.464   1.076 -0.2889  0.3883 -0.4644
16775W        W32669  14.672   0.390   0.368 -0.3713 -0.3728  0.2082
16776W        W32670   0.600  10.789  12.515  0.2791 -0.1410  0.2981
16777W        W32671  15.779   1.156  14.743 -0.2711 -0.0532  0.1457
16778W        W32672  18.605   7.065   4.562  0.2622  0.3473  0.3121
16779W        W32673  14.864   7.145  14.717 -0.3865 -0.6063  0.0248
16780W        W32674   6.554   7.267  13.520 -0.0277  0.2097 -0.0691
16781W        W32675   2.400   8.379  14.723 -0.1768 -0.0244  0.1261
16782W        W32676   9.929   9.066   2.361 -0.1363 -0.0028  0.0425
16783W        W32677  17.382   0.170  15.609 -0.1352 -0.2220 -0.1593
16784W        W32678   5.217  15.427   3.347 -0.1697 -0.5265  0.2860
16785W        W32679   2.294   4.931  14.306 -0.0292  0.0996  0.1246
16786W        W32680   7.018  16.644   4.052  0.1410  0.2391  0.0064
16787W        W32681  12.127   4.775  12.061  0.0522 -0.2576  0.2981
16788W        W32682  10.080   3.012  14.575  0.0907  0.0418 -0.0037
16789W        W32683  13.046  17.848   1.385 -0.2196  0.0895 -0.1853
16790W        W32684   5.600   2.858   2.922  0.0910 -0.0050 -0.4137
16791W        W32685   3.463  10.518   4.443 -0.1312  0.1015 -0.1426
16792W        W32686   5.488   7.274   1.132 -0.4412 -0.1470  0.0941
16793W        W32687  12.445   9.748  13.516  0.3310 -0.0600  0.1095
16794W        W32688   4.960   9.503  11.492 -0.0376 -0.1854 -0.1031
16795W        W32689  12.793   4.681   2.965  0.1775 -0.1398  0.0170
16796W        W32690  18.725   6.823  13.582 -0.1414 -0.0690 -0.3155
16797W        W32691   2.392   3.209   9.843  0.4450  0.0978 -0.1101
16798W        W32692  15.627   9.496   3.923  0.3145  0.1964 -0.0033
16799W        W32693  12.907   8.886  15.476 -0.0158 -0.1346 -0.0960
16800W        W32694  11.264  14.909   3.145  0.0974  0.2171 -0.0955
16801W        W32695  17.975   3.334  13.357  0.1670 -0.1657 -0.2564
16802W        W32696   2.392  15.970  13.210 -0.0477 -0.3288 -0.0108
16803W        W32697  16.813   4.947   4.469 -0.2882  0.2267  0.1704
16804W        W32698   3.661   4.953  12.341 -0.1367  0.0629 -0.3829
16805W        W32699  10.854  18.459  10.453  0.2413  0.2362 -0.3510
16806W        W32700   6.128  11.631  13.449 -0.2480  0.3734  0.1787
16807W        W32701  18.592  13.058  13.828  0.0136 -0.0066 -0.3207
16808W        W32702  16.530   0.629  14.049 -0.2246  0.1743 -0.0402
16809W        W32703  15.029   0.277   5.290 -0.0955 -0.2327  0.2777
16810W        W32704  17.278   4.841  12.308 -0.0930 -0.1440 -0.0291
16811W        W32705   8.999  13.193   0.754  0.0891 -0.1121  0.1701
16812W        W32706  11.308   2.060  12.536 -0.2200  0.0584 -0.0145
16813W        W32707  11.113   9.915  14.457  0.1167 -0.0086 -0.0150
16814W        W32708   5.998   6.173  12.394  0.0708  0.2804  0.3155
16815W        W32709   8.851  14.865   1.893 -0.0630 -0.0817 -0.3175
16816W        W32710   0.348  12.603   5.511 -0.1562  0.0165  0.1571
16817W        W32711   8.434  13.752   5.105 -0.0605 -0.0741  0.4234
16818W        W32712   7.735  15.464  13.763 -0.1359 -0.1145  0.1343
16819W        W32713  17.001   8.984   4.531  0.1551  0.0258 -0.3212
16820W        W32714  14.896  11.608  12.913 -0.0851 -0.2100 -0.2841
16821W        W32715  17.008   0.380  14.911 -0.2370  0.2917 -0.0710
16822W        W32716  14.213   4.816   4.627 -0.0394 -0.3916  0.0774
16823W        W32717  10.835  18.004   1.516  0.2258  0.0099  0.0416
16824W        W32718  11.060   8.311   1.015  0.0910  0.0900 -0.0084
16825W        W32719   9.153   3.715   3.226 -0.1921 -0.0071  0.0886
16826W        W32720   4.032  15.016   2.180 -0.1097  0.0309  0.1151
16827W        W32721  18.591   8.270  11.776  0.1742 -0.0218  0.3572
16828W        W32722   1.138  15.171   0.529 -0.1961  0.2555  0.0909
16829W        W32723  14.647   1.508  11.421  0.1463  0.1094  0.2799
16830W        W32724  14.900   9.386   3.004 -0.1099 -0.1454  0.1436
16831W        W32725   5.098   2.383  10.180  0.0197 -0.2101 -0.0276
16832W        W32726   3.565   9.155  10.339 -0.2032 -0.1038  0.0356
16833W        W32727  16.474  15.560   4.524  0.0372  0.1071 -0.0229
16834W        W32728  10.863  13.010  13.622 -0.0629  0.1188  0.0549
16835W        W32729  18.698   8.329   4.870  0.2705  0.4184 -0.0160
16836W        W32730   9.069   3.122   1.066 -0.1692 -0.1432 -0.3038
16837W        W32731   6.223  18.359   4.882  0.2910 -0.0415 -0.0870
16838W        W32732  14.436  18.050   4.374 -0.1279  0.1534  0.0510
16839W        W32733  11.359  10.928   5.518  0.1665  0.2515 -0.0898
16840W        W32734   6.272  16.442   2.349 -0.1166  0.0315  0.2109
16841W        W32735  11.946   2.374   4.737  0.3177  0.1011  0.0598
16842W        W32736   3.981  17.359  13.309  0.4606 -0.0885 -0.3197
16843W        W32737   1.816  11.359  12.755 -0.0522 -0.0373 -0.2085
16844W        W32738   1.523   8.247  12.453  0.2292 -0.1773  0.0894
16845W        W32739   6.634   9.737  12.342  0.0295  0.0389 -0.2707
16846W        W32740   8.921   9.488  14.096  0.2760  0.0850 -0.0584
16847W        W32741  14.903   9.069  14.378  0.1116 -0.3177  0.0459
16848W        W32742   2.488  16.092  10.753  0.1862  0.1097  0.0819
16849W        W32743   2.389  13.897   2.636  0.1526 -0.0122  0.3535
16850W        W32744  14.976   8.924   5.273  0.3491 -0.3461 -0.2292
16851W        W32745  11.908   9.349   4.270 -0.0530  0.0401 -0.2747
16852W        W32746   3.413   8.640   4.517 -0.2460  0.1938  0.2904
16853W        W32747  13.212   5.543   1.198 -0.3355 -0.3600 -0.2720
16854W        W32748   0.459  16.393  13.574  0.1360  0.2380  0.3688
16855W        W32749   8.269  11.744  12.160  0.0775 -0.1594  0.1419
16856W        W32750   6.039  15.521   2.608  0.1951 -0.1865 -0.2588
16857W        W32751  15.689   2.634  13.137 -0.1430  0.3088 -0.2001
16858W        W32752   4.691  11.310   4.626  0.1520 -0.1128 -0.2264
16859W        W32753  16.205  11.466  15.346  0.1176  0.0975 -0.2025
16860W        W32754  17.120   1.805  11.005  0.0918 -0.1500  0.3128
16861W        W32755  13.369  11.461  14.069  0.0382 -0.0510 -0.0887
16862W        W32756   1.895   8.940  13.117 -0.0152  0.0788 -0.0204
16863W        W32757   6.803  10.302  15.280 -0.1639  0.0107  0.1748
16864W        W32758  17.447   8.338  12.273 -0.2015 -0.0361  0.2284
16865W        W32759   6.740   6.934   1.294  0.4341  0.3593  0.3617
16866W        W32760  10.004   9.187   5.014  0.2153  0.2427 -0.0327
16867W        W32761   3.234  13.505   2.659 -0.0230  0.3754  0.0298
16868W        W32762   6.433   7.480   3.677  0.0500  0.0235  0.1021
16869W        W32763  15.403   4.350  12.679  0.2464 -0.1704 -0.1025
16870W        W32764  15.929  15.353   2.080 -0.2348  0.0503 -0.1579
16871W        W32765  18.025   7.612  15.075  0.1329  0.0707 -0.0700
16872W        W32766   2.046  11.634  15.133  0.3269 -0.4519  0.3107
16873W        W32767   3.063   7.539   3.172  0.0141 -0.0973 -0.1424
16874W        W32768  10.698   6.935  10.540  0.1551 -0.0451 -0.1082
16875W        W32769  17.961  17.227  11.696 -0.3278 -0.2245 -0.2582
16876W        W32770   1.672   3.123   0.557  0.0763  0.3091 -0.3700
16877W        W32771   0.861   3.740   0.773  0.2042  0.0569  0.3379
16878W        W32772  14.382   7.424  14.040  0.2159  0.1923  0.0204
16879W        W32773   3.865   4.217   0.220 -0.0292 -0.0315  0.0824
16880W        W32774   2.507   0.796   4.810 -0.4149  0.2002 -0.0144
16881W        W32775   2.131  12.933   0.018  0.1241  0.0929  0.0767
16882W        W32776   1.966  11.298   3.401 -0.0704 -0.0244  0.2118
16883W        W32777   5.054   0.743   4.179 -0.3123  0.1951 -0.2655
16884W        W32778  16.306   9.634  12.278  0.2332 -0.0682  0.0572
16885W        W32779  17.184   1.973   0.844 -0.0554 -0.2432 -0.0179
16886W        W32780  18.414   2.561   2.615 -0.0612  0.0241 -0.0426
16887W        W32781  11.493  12.793   4.228 -0.4107 -0.0145 -0.1450
16888W        W32782   8.578   3.264  13.199  0.2526  0.1391 -0.4047
16889W        W32783  10.931  17.792   4.957 -0.1637 -0.0781 -0.0967
16890W        W32784   0.795   2.363  12.868  0.1086  0.0107 -0.1227
16891W        W32785  12.714   4.811   3.972  0.1243 -0.0357 -0.0653
16892W        W32786   7.516  17.166  14.072  0.3055  0.0981 -0.1426
16893W        W32787  12.106  12.311   1.210  0.0034  0.1340 -0.1329
16894W        W32788  12.278  17.836   4.729 -0.0800 -0.2257 -0.2845
16895W        W32789   1.171   7.543  12.369 -0.0404  0.4333  0.1005
16896W        W32790   2.638  11.719   2.700 -0.1611 -0.0222 -0.1217
16897W        W32791   3.586   6.312  12.611  0.0828  0.0375 -0.0484
16898W        W32792  16.721  18.213   2.903 -0.1653  0.1037 -0.0832
16899W        W32793  16.721  16.650  12.240 -0.0946  0.2100  0.1257
16900W        W32794  11.171  10.384  14.750  0.2908  0.1430 -0.1744
16901W        W32795   6.104  10.867   4.030 -0.0864 -0.0758 -0.0602
16902W        W32796   5.299  10.443  13.451 -0.2102  0.1059 -0.3886
16903W        W32797   0.618   6.443  14.808  0.1365 -0.0446  0.1501
16904W        W32798  17.705   8.865   3.708 -0.1758 -0.2990 -0.0865
16905W        W32799  13.594  11.567   4.463  0.0851  0.2556  0.1802
16906W        W32800  11.954   7.418   5.357  0.0282  0.2120  0.0353
16907W        W32801  13.935   0.750  13.797 -0.1315 -0.0053  0.0301
16908W        W32802   2.754   7.713  12.517 -0.2576  0.1027  0.2919
16909W        W32803  17.717   2.067   3.617 -0.0183 -0.2085  0.2163
16910W        W32804   2.257   6.569   4.938 -0.0286  0.3465 -0.0248
16911W        W32805   3.244   2.674   3.903 -0.0892 -0.3523 -0.0026
16912W        W32806  18.603   6.708  14.315 -0.2072  0.0115 -0.0423
16913W        W32807   2.384   9.754  11.454  0.1480 -0.2260  0.0108
16914W        W32808  18.666   2.288  13.415  0.0979 -0.1852  0.0264
16915W        W32809  16.571   2.223   4.824  0.0829 -0.1924  0.0091
16916W        W32810  13.171  18.016   5.180 -0.0509 -0.1253  0.1797
16917W        W32811  15.043  16.133   3.668  0.2480  0.0434  0.1143
16918W        W32812   0.146   0.609  14.889  0.0074 -0.0754  0.2196
16919W        W32813   7.675  10.272   5.075 -0.2625 -0.1168  0.0672
16920W        W32814   9.124  15.591   3.064 -0.0589  0.0877 -0.2403
16921W        W32815  15.382   6.889   4.829  0.0261 -0.2167 -0.2816
16922W        W32816   2.026   3.286  13.907  0.2001 -0.2076 -0.1133
16923W        W32817  14.755  18.732   2.818 -0.0359  0.0712 -0.1325
16924W        W32818   6.261  18.673  13.662 -0.3241 -0.4229 -0.2629
16925W        W32819   7.829   1.601  14.036 -0.0128  0.5110 -0.2007
16926W        W32820  17.093   7.159   0.374  0.2690  0.2317 -0.1123
16927W        W32821   3.668  14.241  15.390 -0.1988 -0.0069  0.2018
16928W        W32822   5.163  17.628   1.464  0.2136 -0.1180 -0.0351
16929W        W32823  13.355   3.069   2.067  0.0281  0.3349 -0.1085
16930W        W32824   2.276   0.938  15.280 -0.0478  0.0509 -0.1816
16931W        W32825   8.867   0.581  14.923 -0.0189  0.0042 -0.1417
16932W        W32826  14.540   6.687   4.566 -0.3398 -0.1250 -0.1523
16933W        W32827  18.116  10.218  12.382 -0.3385  0.1445  0.0880
16934W        W32828   4.649  12.566   0.452  0.0018  0.0847  0.0896
16935W        W32829   6.113  15.457   1.335  0.2986  0.1575  0.0625
16936W        W32830  16.425   9.107   5.014  0.0648  0.0775 -0.5233
16937W        W32831  11.802   8.274  14.681  0.0473  0.3110  0.0143
16938W        W32832  11.862   2.656   2.988  0.2975 -0.0269 -0.2980
16939W        W32833  16.799   1.143   3.611 -0.0554  0.0799 -0.0872
16940W        W32834  12.108   4.673  14.746 -0.1088 -0.1047 -0.2175
16941W        W32835   1.604  13.203   2.216  0.2359 -0.1249 -0.1956
16942W        W32836  11.851  18.220   4.467  0.1737  0.0882 -0.2241
16943W        W32837  18.505   8.697  11.306 -0.1252 -0.0130  0.3039
16944W        W32838   8.429  15.564   3.275  0.2309  0.0556 -0.2950
16945W        W32839   8.977   1.762   4.705  0.0262 -0.1516  0.4275
16946W        W32840  11.143  10.016  12.749 -0.2111 -0.1254  0.3544
16947W        W32841  13.822  14.309   0.063  0.1983 -0.0225 -0.0989
16948W        W32842   2.636   4.955   1.006 -0.3278  0.2305  0.2090
16949W        W32843  16.111   5.177   3.226 -0.1119  0.2955  0.0896
16950W        W32844  12.180  13.730   3.951 -0.4258 -0.2277 -0.1938
16951W        W32845   5.911   5.348   2.136 -0.0103  0.0705 -0.0124
16952W        W32846   3.956   7.793   3.125 -0.0548 -0.0482  0.0355
16953W        W32847  17.855  18.663  13.071 -0.0888  0.1541  0.0162
16954W        W32848  12.325   6.169  14.656  0.1762 -0.3068  0.1163
16955W        W32849  18.379  18.565   2.471  0.0491 -0.1425 -0.0271
16956W        W32850   5.188   2.456   3.707 -0.0058  0.4631  0.2197
16957W        W32851  11.219   1.526   3.202 -0.1111 -0.4597 -0.3695
16958W        W32852   1.829  11.154  11.438  0.1272 -0.2674  0.1855
16959W        W32853   2.622   4.667  13.080 -0.5356 -0.0252 -0.3029
16960W        W32854  18.315   9.968   2.250 -0.2082 -0.0692 -0.1107
16961W        W32855   4.072  13.985  11.821  0.1476 -0.0626  0.1898
16962W        W32856  14.468   5.368  12.819 -0.3500 -0.2524 -0.2509
16963W        W32857  12.478   0.402   2.313  0.0533 -0.1883  0.1176
16964W        W32858   4.822  18.476   2.184  0.1396 -0.0588 -0.1687
16965W        W32859  12.715   6.124  12.766  0.0773 -0.0364 -0.1939
16966W        W32860  15.417  11.227  14.586  0.4018 -0.2978 -0.1880
16967W        W32861  11.246   9.235   4.883 -0.2709 -0.0117 -0.1003
16968W        W32862  15.060   7.727   0.911  0.0156 -0.0908 -0.1045
16969W        W32863  16.265  14.398  10.348  0.0106  0.1250  0.0783
16970W        W32864  18.305  13.911  13.833 -0.1234  0.1264 -0.0120
16971W        W32865   8.573  11.107   2.721  0.0021  0.0076  0.1084
16972W        W32866  12.642  14.343  11.406  0.0586  0.0060 -0.0615
16973W        W32867  14.020  10.214  11.881  0.0494 -0.2867 -0.1295
16974W        W32868   5.747  14.296  12.405  0.0210 -0.0945 -0.0745
16975W        W32869  14.263  10.051  13.696  0.3062 -0.0210  0.0557
16976W        W32870  16.502   0.993   5.840  0.3168  0.0957  0.1867
16977W        W32871   4.297   7.232  10.247 -0.0899 -0.0624  0.0828
16978W        W32872  15.881  14.908  15.307 -0.2018  0.2612  0.3191
16979W        W32873   4.887  16.877   1.951  0.0166  0.3440 -0.3088
16980W        W32874  16.857  16.878  11.000 -0.0413  0.0909 -0.0699
16981W        W32875   1.954   8.732   4.319  0.1645 -0.3047 -0.0694
16982W        W32876   3.633   9.032  10.852 -0.1439  0.0675 -0.1439
16983W        W32877  14.028   9.557   4.217  0.0917  0.4393 -0.3142
16984W        W32878  13.145  10.897   0.953 -0.1459  0.2384 -0.1689
16985W        W32879   3.433   9.145  15.493  0.3237  0.2869 -0.0727
16986W        W32880  16.406   7.102  11.382  0.0417  0.1391 -0.1577
16987W        W32881  17.145  17.632  12.842  0.1693 -0.0071  0.0113
16988W        W32882  11.708  17.536   0.014 -0.0706  0.2348  0.0339
16989W        W32883   1.139  18.483  11.869  0.2441  0.0791  0.1044
16990W        W32884  12.276  14.546   1.793 -0.1003 -0.1019 -0.0456
16991W        W32885  11.819   3.525  10.974  0.0745 -0.0802 -0.1865
16992W        W32886  15.584   7.708   2.948  0.3345  0.2177 -0.2023
16993W        W32887  14.299   3.983   2.052 -0.0213 -0.1475 -0.0398
16994W        W32888   9.725   6.269   4.728 -0.1022  0.2117 -0.1532
16995W        W32889   2.419   0.555  14.203 -0.1604  0.0387 -0.0022
16996W        W32890  16.886   0.186  15.471  0.1923 -0.2123  0.0853
16997W        W32891  11.025   7.174   2.947  0.1482 -0.0941  0.0097
16998W        W32892   7.781  14.959  13.111 -0.1141  0.1816 -0.1389
16999W        W32893   8.723  14.479   2.470 -0.1870  0.1303 -0.1547
17000W        W32894   4.315  16.033  13.628 -0.4333  0.2208  0.2223
17001W        W32895  16.292  11.518   3.009 -0.2120  0.0359 -0.1685
17002W        W32896   4.081  10.990   2.859  0.1840 -0.1095  0.3303
17003W        W32897   3.705  18.358   3.226  0.0489 -0.0098 -0.0890
17004W        W32898  13.792  12.524  13.660  0.1353 -0.2154  0.0567
17005W        W32899   3.796   9.919   1.192 -0.1722  0.0270 -0.0649
17006W        W32900   1.894   9.225   0.352 -0.0019  0.0920  0.1218
17007W        W32901   0.244  12.597  15.306  0.3370  0.0363  0.3310
17008W        W32902  14.780  12.859  13.272  0.3969  0.0035  0.1372
17009W        W32903   2.434  10.442  14.405 -0.2807 -0.2553  0.0808
17010W        W32904  14.958  10.923  13.770 -0.1966  0.0451 -0.0725
17011W        W32905   7.660   5.009   2.065 -0.0932 -0.3315 -0.2801
17012W        W32906  14.056  16.513  11.479  0.0828 -0.0006 -0.0477
17013W        W32907   3.521   4.493   4.265 -0.0531  0.0521  0.0252
17014W        W32908   3.071  14.466  11.606  0.0342  0.1196 -0.2572
17015W        W32909   5.094  14.617  14.581 -0.2315 -0.1477  0.0562
17016W        W32910   4.737  15.466   3.449 -0.0613 -0.1420  0.1980
17017W        W32911   9.323   2.810  11.252 -0.3486 -0.1253 -0.5289
17018W        W32912   1.042   0.154  14.975  0.1319  0.0285 -0.1201
17019W        W32913   0.919  16.061  14.932  0.1117 -0.0874  0.1240
17020W        W32914  16.851   3.879  13.028 -0.2046 -0.0296 -0.1388
17021W        W32915   9.415   2.668   4.471 -0.3161  0.1456 -0.0220
17022W        W32916   3.907  15.065  14.250  0.0271  0.1454 -0.2775
17023W        W32917   7.445  15.700  10.937  0.0282 -0.0491  0.2670
17024W        W32918  13.529   3.056   3.924  0.0755 -0.0344  0.0231
17025W        W32919  17.450   6.621  15.197 -0.1048  0.0764 -0.3864
17026W        W32920   3.889   8.116  11.922 -0.0636 -0.1200  0.0974
17027W        W32921   2.201  12.564   1.011  0.1129 -0.1331  0.3738
17028W        W32922   0.477   3.322  10.125 -0.3054 -0.0898 -0.1346
17029W        W32923  11.086  12.554  11.268 -0.0591  0.2488 -0.0012
17030W        W32924  16.673   3.468   0.580  0.4310 -0.2323 -0.2824
17031W        W32925  15.189  13.736   3.478  0.2694 -0.1867  0.0345
17032W        W32926   5.476   4.211  14.100  0.1147 -0.1669  0.0258
17033W        W32927  18.009   5.872  12.356 -0.1569 -0.1037 -0.0243
17034W        W32928   4.621   7.908   1.958  0.2640 -0.2370 -0.0723
17035W        W32929   4.740  14.065  14.909  0.2553 -0.2797  0.1237
17036W        W32930  17.946   4.912   3.923 -0.2468  0.1049  0.2687
17037W        W32931   9.878   3.795  12.027  0.1344 -0.0070  0.3517
17038W        W32932  12.696   1.832  12.582  0.0519  0.1030 -0.1328
17039W        W32933  15.368   3.086   1.017 -0.1606 -0.0296 -0.1313
17040W        W32934   8.533  16.332  15.247  0.1259 -0.5393 -0.0304
17041W        W32935   3.672   3.422   1.818 -0.2010 -0.1092  0.0163
17042W        W32936   0.466  14.307  11.315 -0.1331 -0.1660 -0.1293
17043W        W32937   8.358  12.012  13.644  0.2128  0.0046  0.1837
17044W        W32938   5.091  11.120  11.219 -0.4196  0.0328  0.2855
17045W        W32939  12.164  15.504   4.050 -0.2913  0.2821  0.2107
17046W        W32940   3.193   3.525   4.017 -0.0874 -0.1783  0.0038
17047W        W32941   8.249  10.513  11.133  0.2431 -0.1009 -0.3748
17048W        W32942  15.771   2.986   0.767 -0.3440 -0.2692 -0.3107
17049W        W32943  17.492  11.893   4.281 -0.1549 -0.0096 -0.0519
17050W        W32944   5.699  13.639   0.662  0.1914 -0.1183 -0.2510
17051W        W32945   8.116  10.945  11.524  0.0978  0.0122 -0.0576
17052W        W32946  15.557   5.153   4.392  0.2018 -0.0850  0.1948
17053W        W32947  12.994   7.956   2.496  0.2457  0.1372 -0.0985
17054W        W32948  12.677   5.076   1.602 -0.0668  0.0992  0.0526
17055W        W32949  12.701  18.237   4.185  0.1920  0.0380  0.1727
17056W        W32950  10.824   4.932  13.468 -0.0488  0.0107 -0.4303
17057W        W32951  11.939  11.131  13.835 -0.1752 -0.0756 -0.0515
17058W        W32952   0.058   2.901  11.772  0.0841  0.0815 -0.0176
17059W        W32953   2.307   6.955   0.443  0.2059  0.0745  0.0651
17060W        W32954  12.532   2.155  14.861 -0.0370 -0.2187  0.2393
17061W        W32955   1.116   1.331   4.046  0.0270  0.1228  0.0150
17062W        W32956   0.624  10.394  13.736 -0.0466 -0.2145  0.1889
17063W        W32957  17.237  17.908  14.183  0.1599 -0.0835 -0.0859
17064W        W32958  13.920  13.360   2.161  0.1537  0.0950  0.0798
17065W        W32959  17.357  14.351   4.148 -0.2178 -0.0462  0.1388
17066W        W32960   7.816   7.549   0.881  0.0729  0.2021 -0.2131
17067W        W32961   2.844   3.165   4.159 -0.0523 -0.1149 -0.0946
17068W        W32962   4.729   7.949  14.920 -0.2012 -0.0871 -0.0591
17069W        W32963  16.845   3.611  13.476 -0.0243  0.5276  0.0166
17070W        W32964   7.268   4.944  11.799 -0.1267 -0.0468 -0.0399
17071W        W32965   9.561   3.499   1.172  0.1771  0.4568  0.1394
17072W        W32966  10.930   7.923  11.501  0.1955 -0.1791  0.2711
17073W        W32967   1.421  12.600   1.482 -0.3145 -0.2232 -0.1171
17074W        W32968  17.885  18.591   2.450  0.3610  0.0254 -0.2028
17075W        W32969  16.725   4.298  12.929  0.5416 -0.2554 -0.0181
17076W        W32970   2.328   8.257   3.989  0.2087  0.1273  0.0637
17077W        W32971  11.223  16.237  15.046 -0.1303  0.1392 -0.2241
17078W        W32972  10.634   7.818   3.068 -0.1127 -0.1864  0.0562
17079W        W32973  11.489  12.858  11.706 -0.0652  0.0148  0.0970
17080W        W32974   7.727   5.781  11.952  0.1499 -0.1239 -0.0029
17081W        W32975   3.883   7.666   3.602 -0.0490  0.0951 -0.0427
17082W        W32976   1.721  14.219   1.658  0.1077  0.1680  0.0703
17083W        W32977  10.350  16.692  15.459 -0.2125 -0.0785  0.0244
17084W        W32978   6.919   4.500  10.808 -0.0138 -0.0275 -0.0566
17085W        W32979   7.044   8.482   2.953 -0.0796  0.2522  0.3318
17086W        W32980  18.650  16.294  13.301 -0.0486 -0.0640 -0.0266
17087W        W32981  10.872   9.970   5.530 -0.1911 -0.1120  0.0655
17088W        W32982   4.548   0.355   1.849  0.0761 -0.0588 -0.0382
17089W        W32983  10.647   3.713   2.749 -0.0945  0.0125  0.2411
17090W        W32984  18.227   7.754   0.327  0.1920 -0.2048  0.2284
17091W        W32985  12.950  13.423  12.555  0.4693 -0.0437 -0.0992
17092W        W32986   3.164  11.985  14.007 -0.0715 -0.4174  0.1918
17093W        W32987   5.663   5.020   3.074  0.0111  0.1476  0.1241
17094W        W32988  11.960   3.825  13.865  0.2368  0.3163  0.1927
17095W        W32989  12.196  17.979   0.889 -0.1618  0.4217 -0.1853
17096W        W32990   5.650   5.791   1.978 -0.3176 -0.1826  0.0116
17097W        W32991   1.412  10.506   3.484 -0.1741  0.0190 -0.1756
17098W        W32992   6.233   8.662   3.127 -0.2052 -0.2301  0.0332
17099W        W32993  10.032  11.464   3.726  0.1059  0.3105 -0.0106
17100W        W32994  17.681  15.017   2.912 -0.0534  0.2028  0.2138
17101W        W32995   1.094  14.372  13.349 -0.2756 -0.0002  0.1167
17102W        W32996  16.157  16.764   1.774 -0.0331 -0.0387 -0.0899
17103W        W32997   4.239   9.045   0.402 -0.1548 -0.2998  0.0419
17104W        W32998  14.651  11.743  14.116 -0.1540 -0.3391 -0.1770
17105W        W32999   1.333   9.733   4.576  0.2952 -0.1115 -0.0733
17106W        W33000   7.502   8.130  11.252 -0.0827  0.5373 -0.0068
17107W        W33001  18.669   9.005   0.570 -0.3321 -0.0250  0.2109
17108W        W33002   0.866   4.046  14.980  0.0932  0.0024  0.2689
17109W        W33003   4.416   2.067  14.372  0.0319 -0.2798 -0.1932
17110W        W33004  11.992  18.035  15.286 -0.0015 -0.0169 -0.3470
17111W        W33005   6.749   5.419  14.660  0.0310  0.2679  0.1188
17112W        W33006  15.575  12.942   1.111  0.2610  0.0530 -0.2874
17113W        W33007  10.796   5.740   0.763  0.1907 -0.0633  0.0345
17114W        W33008   9.719   5.176   1.617 -0.4268  0.0844  0.1068
17115W        W33009   0.149   4.059   2.079  0.0448 -0.0100  0.2980
17116W        W33010  16.818  16.447   3.817  0.2630  0.1637 -0.1154
17117W        W33011   1.367  11.775  13.861 -0.3441 -0.3497  0.0380
17118W        W33012   8.246  18.576   0.696  0.1398  0.5665  0.2461
17119W        W33013   0.509  16.789   4.444 -0.1646  0.2338  0.4403
17120W        W33014  17.548  12.453   1.407 -0.1998 -0.0048 -0.2006
17121W        W33015  15.614  15.797   3.554  0.1099  0.0263  0.5835
17122W        W33016   3.869   3.371  12.358 -0.1476 -0.2344 -0.3848
17123W        W33017   7.833  16.821  11.912 -0.0111 -0.0053  0.1037
17124W        W33018   2.886  13.974   0.107  0.0512 -0.1335  0.1908
17125W        W33019  15.678   2.751   1.189 -0.1377  0.1562  0.1595
17126W        W33020   9.341   4.318  13.843 -0.0130  0.0441 -0.1003
17127W        W33021   7.143   0.859  14.377 -0.1916  0.0854 -0.1438
17128W        W33022  15.979  12.871   4.210  0.0848 -0.0537 -0.1385
17129W        W33023  15.760  14.843   2.334 -0.1811 -0.2523 -0.0468
17130W        W33024   1.171  13.812  10.454 -0.0095  0.0497 -0.1438
17131W        W33025  17.303  14.187  14.795 -0.0803  0.1395  0.4313
17132W        W33026   9.908   9.583   5.294 -0.1413  0.1115 -0.0242
17133W        W33027   9.399  10.208  12.863 -0.2348 -0.3026  0.0670
17134W        W33028   6.142   6.308  12.900  0.0321  0.3562  0.0634
17135W        W33029  17.426  10.412  15.048 -0.1076  0.1096  0.2203
17136W        W33030  17.143  17.509  10.056  0.0858 -0.1038 -0.0436
17137W        W33031   9.637   4.703   5.358  0.2387  0.2524 -0.0421
17138W        W33032  11.202  15.734  15.412  0.1983 -0.1983  0.2268
17139W        W33033   6.588  10.056   3.302 -0.1284  0.1238  0.0451
17140W        W33034   3.431  15.655  12.169  0.0041  0.0595  0.1364
17141W        W33035   7.546   1.098   3.466  0.3602  0.1440 -0.0570
17142W        W33036   2.221  15.751  15.610 -0.2192 -0.2783  0.1318
17143W        W33037   1.034   2.753   4.013 -0.0126 -0.0745 -0.0254
17144W        W33038   9.450  15.956  11.045 -0.3568  0.2420 -0.0515
17145W        W33039  11.626  14.913  12.032 -0.3813  0.1338 -0.2493
17146W        W33040   7.873   8.448   4.763 -0.0777  0.2279 -0.1816
17147W        W33041  16.282   2.168   3.160 -0.0130  0.2277  0.1797
17148W        W33042  10.171  11.758   3.345 -0.2632 -0.1546 -0.0191
17149W        W33043  18.053   2.807  12.487  0.3116 -0.1548 -0.1460
17150W        W33044   0.082  17.198  13.143  0.1713 -0.2641 -0.1895
17151W        W33045   8.273   2.476   4.206 -0.1675 -0.0218  0.3513
17152W        W33046   4.069   5.000  14.121 -0.0446  0.2401 -0.1806
17153W        W33047   7.470  17.987  14.997 -0.0807 -0.0710  0.2267
17154W        W33048  10.670   7.366  15.500 -0.1047  0.0007 -0.3730
17155W        W33049  18.760   1.673   2.927 -0.1574  0.1081 -0.1768
17156W        W33050   8.432   0.064   0.292  0.1522  0.2452  0.0621
17157W        W33051  13.040  11.817  15.414  0.0161 -0.0700 -0.5167
17158W        W33052   8.838  17.076   2.180 -0.1451  0.1696  0.0482
17159W        W33053   2.934  11.615  10.706 -0.0489 -0.5108  0.0176
17160W        W33054  12.349  10.741  13.797 -0.0339  0.2547  0.0060
17161W        W33055   7.712   7.072   0.991  0.0013  0.1673 -0.2470
17162W        W33056  12.047   1.747  15.303 -0.0962  0.0977 -0.2723
17163W        W33057   2.019   8.092  14.567  0.0917  0.0307 -0.0629
17164W        W33058  12.886   2.691  11.092 -0.0060  0.0625  0.1082
17165W        W33059   3.755   8.057   4.969  0.1260 -0.0188 -0.3081
17166W        W33060  16.873  18.627   3.126  0.0115  0.1670  0.0986
17167W        W33061  12.401   6.994   1.975  0.0820 -0.2095  0.1423
17168W        W33062   0.117   7.230   5.088  0.0039 -0.2188 -0.0501
17169W        W33063   0.838   5.554   4.268 -0.0766 -0.0139 -0.0610
17170W        W33064   3.714   4.437  12.384 -0.0815  0.1874 -0.2507
17171W        W33065  13.101   5.434   0.185  0.1243 -0.1834 -0.1187
17172W        W33066  17.794  11.430  14.245  0.0982 -0.0128 -0.0010
17173W        W33067   9.248   6.819   3.662  0.0062  0.1462 -0.0151
17174W        W33068  12.580  15.406  11.216 -0.0951 -0.0430 -0.0052
17175W        W33069  12.379  14.058   4.345  0.3738 -0.4178 -0.3321
17176W        W33070   7.134  15.692  10.128  0.0232  0.1214 -0.3039
17177W        W33071  16.604   8.286   3.994  0.1559 -0.1982  0.0803
17178W        W33072  10.223  14.012   5.158  0.2933 -0.0119 -0.2726
17179W        W33073   0.324   9.274  13.287  0.2025  0.2424  0.0436
17180W        W33074   1.419  16.966  15.009  0.0528 -0.1366  0.1241
17181W        W33075  16.986  10.135  12.066 -0.2237  0.3343 -0.0244
17182W        W33076  14.292  13.267   2.452 -0.0042  0.1794 -0.0362
17183W        W33077   3.016  10.848  12.855 -0.0311 -0.0124 -0.0332
17184W        W33078   5.412   4.265   2.936 -0.1345  0.0117  0.0717
17185W        W33079  16.738   7.072  14.611 -0.0347 -0.1650  0.2618
17186W        W33080  16.397  11.735  13.512 -0.1621 -0.2499 -0.1655
17187W        W33081   5.199   0.438  11.792 -0.0498  0.1068 -0.0627
17188W        W33082   6.116  14.483   1.512 -0.1485 -0.1041 -0.2069
17189W        W33083  10.034  10.421  14.136  0.0317  0.1405 -0.0779
17190W        W33084   9.464   7.775  11.555 -0.1666 -0.3089  0.1375
17191W        W33085   4.487   8.254   2.457 -0.0402 -0.0963 -0.1132
17192W        W33086   5.263  11.342   2.189 -0.1357  0.0848  0.0157
17193W        W33087  10.992   8.779  15.361 -0.0311  0.1058 -0.1180
17194W        W33088   6.554   3.445   3.188  0.2045 -0.0193 -0.1004
17195W        W33089  17.759   9.549  11.386 -0.5322 -0.5517  0.2594
17196W        W33090  17.962  17.767  11.465  0.0380  0.3118  0.1257
17197W        W33091   2.358  11.109   0.715 -0.0366 -0.1367  0.4007
17198W        W33092   6.113   5.924   0.530 -0.2290  0.3738  0.1295
17199W        W33093  14.349   6.728   1.987  0.3858  0.0823  0.0795
17200W        W33094   4.351  13.148   2.856 -0.1649 -0.0408 -0.2297
17201W        W33095   0.866  11.180   3.888  0.0848 -0.4503  0.0256
17202W        W33096   6.690  18.461  13.486 -0.1581 -0.0062 -0.1951
17203W        W33097   5.857   2.218   5.218 -0.1895 -0.0300 -0.0931
17204W        W33098  12.715  10.077   1.196  0.2296  0.2453 -0.0247
17205W        W33099  10.282   7.316  15.159 -0.1371  0.1428 -0.0410
17206W        W33100  18.201  11.438  10.669 -0.1938 -0.1642  0.0958
17207W        W33101  14.339  14.980   2.573 -0.0271  0.5675 -0.1341
17208W        W33102  10.561  13.060  12.078  0.0262  0.2023 -0.1321
17209W        W33103  12.992   0.577  14.830  0.0637  0.0934 -0.2088
17210W        W33104  14.848   5.018  12.138 -0.1658  0.0531 -0.0892
17211W        W33105  13.426  10.594  13.416 -0.0534  0.1404 -0.2316
17212W        W33106   5.702  10.138  14.473  0.1142  0.1053 -0.2151
17213W        W33107   7.667   1.839   1.646 -0.2238 -0.3096  0.1926
17214W        W33108  14.381   8.975  15.461 -0.0741  0.0762  0.0198
17215W        W33109  16.350  11.061   2.713  0.0532  0.2318  0.1519
17216W        W33110  18.402   7.876  14.151 -0.1857 -0.1476 -0.0097
17217W        W33111   5.289   1.308  13.611  0.2958 -0.0389 -0.1242
17218W        W33112  11.963   5.693  11.273 -0.2747  0.0246 -0.0198
17219W        W33113   6.505   9.353  10.083 -0.0161  0.1808  0.0728
17220W        W33114   2.875   4.415  11.878  0.1925  0.3946  0.2269
17221W        W33115   9.337  10.455   0.733  0.1703  0.1003  0.0136
17222W        W33116  15.460  14.904   4.761 -0.2562 -0.0342 -0.0391
17223W        W33117   4.317   4.711   1.429  0.2921 -0.4163 -0.1037
17224W        W33118  12.210   0.647  14.123  0.3181  0.0587 -0.0389
17225W        W33119   1.679   9.049   3.033 -0.3182 -0.0052  0.3272
17226W        W33120   6.758  14.420   2.328 -0.1017 -0.1548 -0.2870
17227W        W33121   7.779  17.830  11.647 -0.1705 -0.2987  0.0091
17228W        W33122  11.262  17.387  14.099  0.0010  0.2186  0.1362
17229W        W33123   1.531   2.432   4.583  0.0065 -0.0209  0.0597
17230W        W33124  14.155   2.743  13.980 -0.2204 -0.0732 -0.0965
17231W        W33125   7.536  15.781  10.469 -0.5383  0.1906  0.0481
17232W        W33126   9.658   4.947   4.883  0.0826  0.1216 -0.0466
17233W        W33127  14.793   8.567  14.443 -0.2952  0.0882 -0.1843
17234W        W33128   2.266   0.973   1.088 -0.3203 -0.0301 -0.0737
17235W        W33129   1.879  17.536   2.997 -0.1664 -0.2628 -0.4868
17236W        W33130  14.305  16.973   3.333 -0.0585 -0.1488 -0.0214
17237W        W33131   0.608   6.799   1.982 -0.0142 -0.4110  0.1828
17238W        W33132   5.408  12.958  15.607  0.0327 -0.0822 -0.1319
17239W        W33133   7.998  14.946   1.933 -0.1342 -0.0374 -0.2782
17240W        W33134   0.529  18.374   2.346 -0.1031  0.0117  0.2902
17241W        W33135  13.255  11.842   2.862  0.1268 -0.3440 -0.0636
17242W        W33136  14.780  18.677  12.129  0.1748  0.2251 -0.1853
17243W        W33137   1.877   8.036  13.741  0.0839  0.1293 -0.1745
17244W        W33138  12.441  14.476  12.596  0.0300 -0.0225 -0.1400
17245W        W33139   5.606  13.028   1.319 -0.3836 -0.0579  0.1126
17246W        W33140   9.686   9.696   4.430 -0.1995  0.2701 -0.0201
17247W        W33141   3.237  12.744   1.368  0.0533 -0.1043 -0.1248
17248W        W33142   5.875  14.020   1.391  0.1340 -0.1841  0.0493
17249W        W33143  14.806  11.503  11.505  0.0976  0.0667 -0.0447
17250W        W33144   7.643  12.819   1.611  0.0138 -0.0208  0.3030
17251W        W33145  17.579  11.257   2.236 -0.0138  0.1179 -0.4470
17252W        W33146   5.801  13.988   3.930  0.2256  0.0339  0.1430
17253W        W33147   2.171  16.539  10.491  0.2523 -0.2191  0.2381
17254W        W33148   5.214  10.161  14.251  0.2402  0.2320  0.2283
17255W        W33149  14.863  10.433  14.723 -0.4700 -0.0664 -0.0331
17256W        W33150   3.417  16.660   0.136 -0.1397 -0.2519  0.1557
17257W        W33151  10.275   2.826   5.724 -0.0088  0.1228 -0.1015
17258W        W33152   6.401   5.834   3.529  0.1989  0.0613 -0.1996
17259W        W33153   2.291  14.894  12.837  0.1379 -0.4114 -0.0536
17260W        W33154   9.578   8.676   3.490 -0.0811 -0.5751 -0.1331
17261W        W33155  18.370  18.073  14.815  0.2100  0.3652  0.1760
17262W        W33156   5.230  16.879  12.981  0.0140 -0.0658  0.1415
17263W        W33157   2.659   6.356   4.226  0.1382  0.1590 -0.0336
17264W        W33158  12.184   8.514  11.332  0.2020  0.1561  0.1878
17265W        W33159  15.824   5.859  14.905  0.2136  0.1460  0.3995
17266W        W33160  11.061  14.372  11.521 -0.0162  0.0879  0.1705
17267W        W33161   7.272  17.652   0.816  0.2452 -0.0172 -0.1479
17268W        W33162  18.212  13.739   1.674 -0.2356 -0.1402 -0.0847
17269W        W33163  15.434   0.652  11.728 -0.0432 -0.4642  0.1137
17270W        W33164  11.889  14.601   5.069  0.2369 -0.0408 -0.0420
17271W        W33165  14.614   2.847   4.413 -0.0218 -0.0153 -0.1073
17272W        W33166   4.667  11.460  12.403  0.2335 -0.0568 -0.2250
17273W        W33167  15.976   0.314  12.157 -0.3960  0.2068 -0.2299
17274W        W33168  17.749  14.339   5.723 -0.0479 -0.1647  0.0331
17275W        W33169  14.145  18.711  10.728  0.0638 -0.1569 -0.0014
17276W        W33170   6.478   5.322   3.446  0.0182  0.2718 -0.1772
17277W        W33171  17.967   6.270   3.778 -0.0151  0.2712  0.1132
17278W        W33172  11.864  16.090   0.154 -0.1924  0.3549  0.0096
17279W        W33173  12.255  13.505   1.422  0.1628 -0.1638  0.1706
17280W        W33174   8.530  17.033  10.816  0.2470  0.1790 -0.0819
17281W        W33175  14.018   2.617   2.708 -0.0826 -0.3694  0.1523
17282W        W33176   2.522   2.246  15.527 -0.1699  0.0211 -0.0632
17283W        W33177  16.908  17.179  13.782  0.2137  0.1493 -0.0468
17284W        W33178   4.414  13.130  11.321 -0.1537  0.0589  0.0033
17285W        W33179   5.633  10.101   3.710 -0.1918 -0.0584 -0.0188
17286W        W33180  17.048   0.220   1.697  0.1744  0.2664  0.1009
17287W        W33181  13.895  15.110  10.927 -0.1875  0.2562 -0.0591
17288W        W33182   2.639   9.501  12.838  0.0575  0.3244  0.2181
17289W        W33183  17.791   7.178   3.367  0.0787  0.0286 -0.2617
17290W        W33184   4.087   6.202   0.528  0.1206 -0.0451 -0.2320
17291W        W33185  16.396  16.430  14.200  0.1832 -0.3312  0.0689
17292W        W33186   3.536  16.474  10.683  0.4131 -0.3316 -0.2815
17293W        W33187  13.757  14.998  13.268 -0.1842  0.0657  0.1639
17294W        W33188  13.002   6.852   6.082  0.1307  0.0569  0.2363
17295W        W33189  17.452  17.618   3.052  0.1679 -0.0187 -0.3705
17296W        W33190  12.089   6.928   4.410 -0.0153 -0.0283  0.0505
17297W        W33191  15.649  10.295  13.586  0.5106 -0.3149  0.1262
17298W        W33192   5.568  15.067  10.585  0.3571  0.2075 -0.1680
17299W        W33193   3.137  17.978  12.925 -0.2992  0.0878  0.1387
17300W        W33194  11.353   8.309   1.801  0.0360  0.0517  0.0344
17301W        W33195  11.719   1.413  13.834 -0.1818 -0.3355  0.1256
17302W        W33196   1.879   0.105  10.953  0.1047 -0.1029  0.1784
17303W        W33197   8.638   2.357   1.317  0.0842  0.1736  0.2723
17304W        W33198   4.558   4.325   1.707 -0.1881 -0.0577  0.3392
17305W        W33199  12.797  16.990  11.957 -0.1873 -0.0308 -0.1497
17306W        W33200  15.005  17.082  12.359  0.1100  0.1381  0.0313
17307W        W33201   9.582  10.976  10.885 -0.1498  0.2072  0.0186
17308W        W33202   8.985   9.515  10.631 -0.0856 -0.1735  0.0427
17309W        W33203   8.377  18.758  10.962  0.0781  0.1356 -0.1441
17310W        W33204  11.115   6.443  12.817 -0.0170  0.4301 -0.0306
17311W        W33205   3.992  10.572   4.134 -0.0899 -0.0848  0.0907
17312W        W33206  18.533   1.478   4.256  0.0806  0.0144 -0.0578
17313W        W33207  11.841  14.069  13.405  0.0988 -0.1202  0.1908
17314W        W33208  13.515   8.546  11.923 -0.0498  0.1099 -0.0574
17315W        W33209   5.489   9.106   3.501 -0.1146 -0.0265 -0.1515
17316W        W33210   3.964  12.341   3.717  0.1323  0.1487 -0.0378
17317W        W33211   6.322   3.152  11.529 -0.1188  0.3843 -0.0137
17318W        W33212   6.251   2.003   1.416  0.1449 -0.0717 -0.3098
17319W        W33213   1.468   9.290  12.537  0.4181 -0.1624 -0.1913
17320W        W33214  16.363   1.692   0.912 -0.1504 -0.0537  0.3376
17321W        W33215  11.888   4.918   3.254  0.0198  0.1264 -0.1623
17322W        W33216  15.003  12.838  11.735  0.2974  0.0492 -0.6669
17323W        W33217   2.498   6.982   4.712  0.1018  0.0368 -0.0256
17324W        W33218   6.228   0.741  15.245 -0.3209  0.0091 -0.1459
17325W        W33219   6.010   7.140   3.781 -0.0914  0.3373 -0.1098
17326W        W33220  14.026  13.090  13.320 -0.1341  0.3431  0.0586
17327W        W33221   8.319  15.784   4.260  0.2537  0.4106  0.3903
17328W        W33222  13.182   6.102   0.498 -0.0833  0.1178  0.2147
17329W        W33223   6.618   6.130  12.909  0.1413  0.1400 -0.1298
17330W        W33224  14.929  18.338  12.933  0.1428 -0.0696  0.1542
17331W        W33225  15.909  10.204  13.090 -0.0638  0.0954  0.1429
17332W        W33226  11.592   8.756   3.871  0.1617  0.0471  0.0049
17333W        W33227   5.409  14.226  12.016  0.0594 -0.0893 -0.1164
17334W        W33228  11.156   1.604   1.972 -0.0778 -0.1397 -0.0853
17335W        W33229   6.463   0.058   2.877 -0.0324 -0.0172  0.0436
17336W        W33230   2.491  16.731  15.383 -0.0096  0.1927  0.2648
17337W        W33231  18.737  17.183  13.924  0.0816  0.0098  0.0384
17338W        W33232  10.529   3.375   4.101  0.3084  0.1306 -0.3566
17339W        W33233  17.826   9.752   2.093 -0.2432  0.0178 -0.0700
17340W        W33234  10.867   8.278  15.345 -0.1132 -0.1368 -0.0502
17341W        W33235   3.343   6.137   5.900 -0.0063  0.0488 -0.1143
17342W        W33236  10.213   9.828  13.193 -0.3667 -0.0496  0.2893
17343W        W33237   3.158   3.741  15.382  0.0017  0.0630  0.2699
17344W        W33238  13.336   9.056   0.387  0.1692 -0.0051  0.3262
17345W        W33239  15.442  13.626   0.157 -0.0596 -0.1789 -0.1522
17346W        W33240   3.678  16.540  10.053  0.1316 -0.2092  0.0020
17347W        W33241   2.746  10.344  12.347  0.1989 -0.1233 -0.0116
17348W        W33242  10.765   6.180   2.932  0.3027  0.2605  0.0746
17349W        W33243   6.665  17.171  15.070 -0.0220  0.0321 -0.2400
17350W        W33244   2.421  17.129  14.568  0.2070  0.1084 -0.0022
17351W        W33245   0.632  12.657  12.221 -0.0936  0.1233  0.0989
17352W        W33246   6.331   7.542  13.178  0.0536 -0.0216 -0.1969
17353W        W33247   3.003   1.352   1.250  0.0349 -0.2412 -0.0147
17354W        W33248  11.065  15.416   3.291 -0.1399 -0.4210  0.0509
17355W        W33249  17.246   0.635   1.739  0.0350  0.1909 -0.2014
17356W        W33250   2.260  18.379  15.328 -0.0919 -0.1934  0.1222
17357W        W33251   2.604  10.597   4.874 -0.1560 -0.0231 -0.0531
17358W        W33252   4.877   0.322  13.000  0.1931 -0.0493 -0.1358
17359W        W33253   7.837  10.361  11.421 -0.0865  0.1812  0.4081
17360W        W33254   4.923  18.741  11.297 -0.1242 -0.1770 -0.0615
17361W        W33255   4.467  18.027  11.399  0.0313  0.0085 -0.1141
17362W        W33256   6.201  10.410  10.703 -0.0365  0.0084  0.1284
17363W        W33257   0.476   5.969  14.930  0.3453  0.0637  0.0349
17364W        W33258   8.815  14.000   2.419 -0.0542 -0.2761 -0.0467
17365W        W33259  15.054  16.268   4.537 -0.0067 -0.1073  0.2569
17366W        W33260  12.035   1.987  14.782  0.0009  0.0039  0.1500
17367W        W33261   9.495  17.575   1.862 -0.3705  0.1525  0.1055
17368W        W33262  13.068  16.390   4.447 -0.2133 -0.1125  0.1944
17369W        W33263  13.080   8.208   3.824 -0.0612  0.1499 -0.1057
17370W        W33264  11.388  18.743   4.027  0.0945 -0.1063 -0.1047
17371W        W33265   9.973   8.695   3.174  0.2072  0.0249 -0.3035
17372W        W33266   2.416   6.501  13.604 -0.1907 -0.1482  0.2568
17373W        W33267  18.462   2.986  12.773  0.0458  0.0575 -0.1782
17374W        W33268   2.794   9.311   5.456 -0.0935 -0.2748 -0.0547
17375W        W33269  16.755  17.749   0.099 -0.3550 -0.4414  0.2890
17376W        W33270  12.835   1.314  11.871 -0.6190 -0.2480 -0.0710
17377W        W33271   1.576  17.048   4.851  0.1049  0.1401  0.0310
17378W        W33272   4.513   2.258   1.647 -0.0262  0.1941 -0.1800
17379W        W33273  16.776   3.490  12.342 -0.0819  0.2933 -0.1272
17380W        W33274  10.894   2.261  15.317  0.0988  0.2034  0.0647
17381W        W33275   3.133  11.102  14.863  0.1560 -0.0600  0.1793
17382W        W33276   6.968  10.434   4.222  0.1524  0.1783 -0.1017
17383W        W33277   7.252  12.839  15.623 -0.2134 -0.0548 -0.0843
17384W        W33278   9.766   2.652   1.274 -0.1585 -0.2069  0.3558
17385W        W33279  14.788  11.110   2.909 -0.4153 -0.0938  0.0688
17386W        W33280  17.853  12.993  14.135  0.1221  0.0936 -0.2163
17387W        W33281   5.679   2.537   3.689  0.0257 -0.1751 -0.0739
17388W        W33282   1.328  16.819   0.535  0.0543 -0.2044  0.1242
17389W        W33283   7.457   3.776   1.157 -0.0133  0.2232 -0.0196
17390W        W33284   9.787  11.186   5.084 -0.0864 -0.0968  0.0708
17391W        W33285   3.395   1.698   4.366 -0.1020 -0.0011  0.1275
17392W        W33286  17.575  10.124   1.033 -0.0692  0.1224  0.2351
17393W        W33287  17.336   1.838  15.518 -0.1962 -0.1087  0.4082
17394W        W33288   7.268   9.526  14.171  0.1664  0.0964  0.0330
17395W        W33289  18.580   7.443   2.596 -0.0744  0.1909 -0.0733
17396W        W33290  14.576  11.129   3.392 -0.0729 -0.1582 -0.3014
17397W        W33291   3.403  12.008  12.295 -0.2447 -0.0292  0.4003
17398W        W33292  16.378   8.230  13.488  0.2137 -0.0126 -0.2938
17399W        W33293  11.035   2.061   1.047 -0.0417 -0.1136 -0.0739
17400W        W33294  16.879   9.011  15.212 -0.0591 -0.2143 -0.1080
17401W        W33295   0.308   2.437   2.705  0.0616 -0.1905 -0.3640
17402W        W33296  16.544   6.152   4.638 -0.3176  0.0518 -0.2202
17403W        W33297   3.296  12.165   4.366  0.1101 -0.0991 -0.2056
17404W        W33298   1.515   2.363  15.477 -0.1225  0.7299 -0.1385
17405W        W33299  15.921  15.264   4.774 -0.0260  0.0477  0.1067
17406W        W33300   6.575  13.924   0.563  0.2456 -0.0781 -0.0444
17407W        W33301   5.780  17.648  15.336 -0.2661  0.1786  0.1059
17408W        W33302  14.379   0.068   0.632  0.1030  0.0288  0.1769
17409W        W33303  11.311   2.490  14.980 -0.1511  0.1803  0.0818
17410W        W33304   2.144  11.939   3.949  0.2728  0.3100  0.0321
17411W        W33305  10.193   7.856  12.062 -0.1150  0.2164  0.0920
17412W        W33306   7.945  11.102  14.847 -0.0586 -0.0738  0.0793
17413W        W33307  11.117   4.690  10.391  0.3016 -0.3475  0.1103
17414W        W33308  17.143   1.628  13.360 -0.0461  0.0373  0.3833
17415W        W33309  17.291  14.179  12.676 -0.1752  0.0094 -0.1829
17416W        W33310   0.428  12.443  14.213  0.0048  0.0060 -0.2554
17417W        W33311   4.163  12.409  10.978 -0.2905 -0.0432  0.2937
17418W        W33312   4.469  18.649   3.659 -0.2549  0.1041  0.2921
17419W        W33313   5.034   1.358  11.792 -0.0903  0.3593 -0.1094
17420W        W33314  17.935   0.980  11.372  0.1794  0.0603 -0.0478
17421W        W33315   9.492  12.779  15.354 -0.0713 -0.4041 -0.0198
17422W        W33316   7.688  15.452  12.880  0.1559 -0.0286  0.1936
17423W        W33317  13.176  16.610   0.089 -0.1480  0.1134 -0.1686
17424W        W33318  10.911   4.378   5.174 -0.3277 -0.0753  0.1277
17425W        W33319   1.349   4.656  15.416 -0.2732 -0.4145 -0.0526
17426W        W33320   0.119  18.722   2.318 -0.1986  0.2732  0.2294
17427W        W33321   3.118  15.829  14.001 -0.1846  0.0213 -0.0157
17428W        W33322  18.152   6.374  12.474 -0.2396  0.3260  0.2514
17429W        W33323   1.965  12.103  11.390  0.0859  0.2663 -0.2478
17430W        W33324  14.094  15.219  10.453 -0.3666  0.2933  0.0896
17431W        W33325  13.603  13.799  13.763  0.0583  0.2412  0.0960
17432W        W33326  12.719  11.212  15.552  0.3607  0.6797 -0.0150
17433W        W33327   7.761  15.916   1.092 -0.0611  0.4180  0.0788
17434W        W33328   7.868   1.910   1.104  0.1535  0.4543 -0.2533
17435W        W33329   2.427   8.513   4.380  0.1883  0.0032 -0.0970
17436W        W33330  10.805  18.133   0.452  0.0168 -0.0879  0.0600
17437W        W33331  13.659   2.102   3.347  0.3972  0.1212  0.0903
17438W        W33332  18.473  11.791  15.115  0.0320 -0.2191  0.2061
17439W        W33333   5.854   6.881  11.168  0.1759  0.1371 -0.4552
17440W        W33334  13.045   4.554   5.260 -0.0423  0.0759  0.1261
17441W        W33335  12.247  14.714   2.945 -0.1627  0.1004  0.0361
17442W        W33336   1.762   2.990   4.980  0.1979  0.2252 -0.4245
17443W        W33337  11.752  10.750   5.076  0.0108  0.2411  0.1852
17444W        W33338  17.117   0.487   5.307 -0.0401  0.2640 -0.0768
17445W        W33339   2.449   9.193  15.098  0.0819 -0.1841 -0.1935
17446W        W33340   5.119   7.192   4.150 -0.1338  0.1647 -0.0273
17447W        W33341  18.481   4.537  13.660 -0.1015  0.0878 -0.1466
17448W        W33342  15.549   1.027   1.327  0.4452  0.2332 -0.0983
17449W        W33343   1.610  17.114  13.431 -0.2248  0.0087  0.1276
17450W        W33344   1.284  15.303   1.046 -0.0787  0.0762  0.0935
17451W        W33345  17.651  18.176  11.323  0.1081 -0.0490  0.1454
17452W        W33346  15.624   7.065  12.937 -0.0357 -0.3683 -0.0279
17453W        W33347  13.403   5.022  13.905 -0.0058 -0.0735  0.3927
17454W        W33348   1.542   2.153  12.077 -0.1247 -0.1174 -0.0354
17455W        W33349   5.187  13.412   0.974  0.1575  0.1721  0.1549
17456W        W33350   9.037   0.207   4.032 -0.1109 -0.0450 -0.0671
17457W        W33351   7.826   4.845  11.645 -0.2206  0.0161 -0.2380
17458W        W33352   6.939  17.490   3.606 -0.2074  0.0312 -0.0552
17459W        W33353   7.133   1.015   4.407 -0.1766 -0.0273 -0.1416
17460W        W33354  17.976  16.827   1.343  0.0544  0.1127  0.1257
17461W        W33355  10.975  15.007  14.705  0.2557 -0.5019 -0.0865
17462W        W33356  16.702   8.470  13.940  0.0003 -0.0936  0.1429
17463W        W33357  10.619   2.177   5.112 -0.2829  0.1285  0.0032
17464W        W33358   5.634   3.135   0.266 -0.2812 -0.0468 -0.0420
17465W        W33359   4.945  11.172   0.705 -0.1362 -0.1233 -0.1087
17466W        W33360  10.498   3.096  11.490 -0.0685 -0.1097 -0.1808
17467W        W33361  10.407  15.169   4.020  0.0304 -0.0063 -0.0354
17468W        W33362  12.282   2.243  15.287  0.0412 -0.1630  0.4054
17469W        W33363   8.115  12.850  14.085 -0.0513 -0.0027  0.0776
17470W        W33364   8.242  11.223  12.095 -0.0832 -0.1970  0.1366
17471W        W33365  15.007  15.536   4.274 -0.1645 -0.2073  0.1515
17472W        W33366   1.127   2.426  13.629  0.0559 -0.3471  0.0178
17473W        W33367   9.980   2.154   3.940  0.0108 -0.0117  0.0912
17474W        W33368   4.764  10.377   2.237  0.0313 -0.0747  0.2722
17475W        W33369  11.685  17.055  15.351 -0.3592 -0.1163 -0.1745
17476W        W33370  13.578  12.939   4.126  0.1406 -0.0594 -0.0998
17477W        W33371   1.272   1.588   1.752  0.1562 -0.1307 -0.2315
17478W        W33372   5.808  11.124  11.146 -0.2859  0.2326 -0.0786
17479W        W33373  15.554   6.543   2.141  0.4174  0.0992 -0.4317
17480W        W33374   3.705  13.521   3.451  0.0916  0.0058  0.1244
17481W        W33375  15.249   9.495  13.480  0.0498  0.0279 -0.2883
17482W        W33376  15.337   3.268  12.192 -0.1067 -0.2934  0.2427
17483W        W33377  10.549   7.024  12.010  0.1803 -0.0832  0.3453
17484W        W33378   0.275   8.060   3.390 -0.1456  0.0487 -0.1132
17485W        W33379   3.956   8.333  12.462 -0.0894  0.1247 -0.4009
17486W        W33380  11.899   6.915  14.350 -0.1079 -0.0487  0.0411
17487W        W33381  13.801   2.450  14.227  0.1246  0.2197 -0.0617
17488W        W33382  11.510  15.336   3.096 -0.1712 -0.0715 -0.2222
17489W        W33383   8.589   9.772   4.785  0.0422 -0.0278  0.0865
17490W        W33384   7.408  16.243   1.393  0.1265  0.1253  0.1574
17491W        W33385   0.624   5.792  10.712 -0.2223 -0.3450 -0.0162
17492W        W33386   9.863  13.389  11.130  0.0200  0.0360 -0.1043
17493W        W33387  18.198   1.460   0.783 -0.0356  0.0667  0.1638
17494W        W33388  16.030   1.713   3.313 -0.0181 -0.2880  0.0736
17495W        W33389  16.324  17.317   0.453 -0.2162 -0.1831 -0.2238
17496W        W33390  16.691  17.474   4.642 -0.1327 -0.0351  0.0598
17497W        W33391  18.514  16.304  13.796 -0.1502  0.4461  0.0623
17498W        W33392   3.887  15.078  10.145 -0.2113  0.1751 -0.0632
17499W        W33393   8.022   1.294   3.152 -0.2468 -0.0172  0.2925
17500W        W33394  15.493  12.030   4.480  0.0008  0.0300  0.0512
17501W        W33395  16.046  14.671  10.913  0.0171 -0.2231 -0.0254
17502W        W33396  12.248  16.626   4.124 -0.0092  0.2230 -0.0812
17503W        W33397   5.736   9.864   2.215  0.5157 -0.3387 -0.1665
17504W        W33398   6.003  10.769   1.301 -0.0875  0.1182 -0.4407
17505W        W33399  16.346   4.357  11.946 -0.0874 -0.1514 -0.1528
17506W        W33400  16.683   9.634  14.515 -0.0660  0.0324  0.0981
17507W        W33401  15.474   0.696  14.800  0.2023 -0.2976 -0.2120
17508W        W33402   6.597  17.880  14.292 -0.0424 -0.1271  0.3701
17509W        W33403  13.347   2.656  13.216  0.0477 -0.0372  0.0388
17510W        W33404  17.531   4.603   1.712  0.4010  0.0183 -0.1061
17511W        W33405  17.075   7.727   1.224  0.0748  0.1215  0.1677
17512W        W33406   9.025   5.700  12.650 -0.1035  0.1692  0.2524
17513W        W33407   8.584  11.763   4.334  0.3647  0.1766  0.0356
17514W        W33408  10.669   9.718   4.070 -0.2652  0.0001 -0.0177
17515W        W33409  17.201  15.791  12.445 -0.0811  0.1675 -0.1212
17516W        W33410   4.907   3.193  10.931 -0.1915  0.5105  0.0888
17517W        W33411   0.482  18.656   4.010 -0.1500  0.0668 -0.1921
17518W        W33412   8.226  14.619   2.508 -0.1557 -0.2696  0.0990
17519W        W33413   7.145  17.267  11.385  0.0135 -0.1289 -0.1760
17520W        W33414   1.761  10.776   3.739 -0.2479 -0.2554 -0.1682
17521W        W33415  12.779   4.450   0.455  0.0349  0.0305 -0.1015
17522W        W33416  10.711  18.553  15.286 -0.2883 -0.1539 -0.2265
17523W        W33417  16.744   3.941   2.681  0.1458  0.0890 -0.0528
17524W        W33418   7.712   0.256   2.315 -0.5536 -0.1232 -0.1122
17525W        W33419  14.709  14.076   1.259  0.2593 -0.0378  0.0281
17526W        W33420   5.005  13.715  14.622 -0.0397 -0.0173  0.2807
17527W        W33421   0.658  16.216  12.003  0.0589 -0.0858  0.0417
17528W        W33422  11.069  11.317   5.314 -0.1606 -0.0085 -0.0599
17529W        W33423  10.597   2.528   3.476  0.0071 -0.3567 -0.1875
17530W        W33424  16.367   0.802   2.887  0.4581  0.3287  0.1798
17531W        W33425   8.632   5.497   9.653 -0.0311  0.2241  0.2100
17532W        W33426   3.443   1.894  15.576 -0.0634  0.0209 -0.0991
17533W        W33427   7.094   9.388  12.025  0.2100 -0.1907  0.0332
17534W        W33428  16.144  18.534   4.272 -0.2077  0.0355 -0.2205
17535W        W33429  12.534  11.279   0.942  0.1224  0.0073  0.0521
17536W        W33430   6.943   1.957   0.552  0.0512  0.0671  0.0935
17537W        W33431  16.724  13.930   1.107 -0.1332  0.1886 -0.1799
17538W        W33432  16.117  13.276   0.350  0.3003  0.0932  0.1670
17539W        W33433  15.779  16.083   5.124  0.2318 -0.2248  0.2375
17540W        W33434   7.655   4.180  11.348  0.0002  0.1256  0.1647
17541W        W33435  15.117   0.895   5.453 -0.0495 -0.2895 -0.0215
17542W        W33436   4.937   5.388  12.192 -0.1333  0.2133 -0.1694
17543W        W33437   8.042  12.244   2.864 -0.1077 -0.0405  0.1330
17544W        W33438  15.402  16.648   4.399 -0.1228  0.0228 -0.0131
17545W        W33439   7.539   8.425   5.498 -0.0724  0.0356  0.1345
17546W        W33440  16.619   7.214  11.942 -0.3545 -0.4911  0.1561
17547W        W33441  11.655   2.800   1.212 -0.3246 -0.1731  0.0907
17548W        W33442   5.728  13.430   9.953  0.2420 -0.1072 -0.1038
17549W        W33443   0.959   2.822  13.945 -0.1307 -0.0868 -0.0831
17550W        W33444  12.116   9.916  11.503  0.0035  0.0128  0.1080
17551W        W33445  13.381  14.796   3.707 -0.0011 -0.1381  0.2293
17552W        W33446   2.282  17.941  14.973  0.0988  0.1548  0.1822
17553W        W33447   2.735   4.277   4.105 -0.0454  0.0454 -0.1274
17554W        W33448  16.761  11.507  13.185  0.0114 -0.1174 -0.0407
17555W        W33449   0.557   0.103  15.285 -0.1357  0.0376  0.0126
17556W        W33450   7.480   7.851  12.286  0.0808 -0.1306  0.3620
17557W        W33451   9.687   0.495  10.611  0.0766 -0.0105  0.0782
17558W        W33452  17.037   1.493  12.009 -0.2618  0.2183  0.2650
17559W        W33453  10.582  12.598  11.248 -0.2165  0.1252  0.2733
17560W        W33454  13.066  14.197   4.687  0.1639  0.1399  0.0692
17561W        W33455   0.907   7.992   1.785  0.0425 -0.0129  0.1552
17562W        W33456  13.695   3.959   4.699  0.1742  0.3304 -0.0739
17563W        W33457   0.843  16.659   4.933  0.0768  0.0174 -0.1133
17564W        W33458   5.566   4.010   2.535  0.0763  0.1691  0.0135
17565W        W33459   1.041   5.548   4.704 -0.2239  0.0526 -0.2016
17566W        W33460  11.455   3.236  11.289 -0.3010  0.2353 -0.4906
17567W        W33461  10.624   9.790   0.842  0.1530 -0.0075  0.1494
17568W        W33462   9.525  12.723   2.945  0.1796  0.0447 -0.0467
17569W        W33463  13.398   6.390  12.190  0.1261 -0.1026  0.3335
17570W        W33464  13.972  18.645   2.738  0.0735  0.0026 -0.1399
17571W        W33465   5.569  17.238  14.283  0.1093 -0.1079 -0.0458
17572W        W33466   9.820  15.386   5.491 -0.1331  0.0404 -0.1554
17573W        W33467  10.671   9.222  11.007  0.1731 -0.0675  0.2744
17574W        W33468   1.133   4.689   4.651 -0.1346  0.0507 -0.2146
17575W        W33469   2.143   5.138  11.533  0.4171  0.2104  0.2184
17576W        W33470   3.143   3.245   1.616  0.1972  0.0348  0.3405
17577W        W33471   7.361   3.146   9.798 -0.2664  0.3037  0.0640
17578W        W33472   5.066   4.412   1.745 -0.2163 -0.4444  0.3767
17579W        W33473   1.223  18.016   3.689 -0.1852 -0.1094  0.1723
17580W        W33474  18.304   0.890   2.233 -0.0215 -0.0210  0.0690
17581W        W33475  10.137   8.672   3.619 -0.0070  0.0481 -0.1507
17582W        W33476  12.313   5.506   0.061  0.3747  0.2860  0.0599
17583W        W33477   9.496  15.123   1.203  0.0338  0.2905 -0.3249
17584W        W33478  15.608   7.778  10.428 -0.4345 -0.1737 -0.2931
17585W        W33479  14.843   6.692  15.524  0.2129 -0.1619  0.3883
17586W        W33480   5.415  15.860  12.723  0.2885  0.1316 -0.1087
17587W        W33481  18.046  12.239   3.045  0.0132  0.2172 -0.0885
17588W        W33482  10.085  18.030  12.270 -0.0412  0.1513  0.2455
17589W        W33483   7.672  12.246   5.463 -0.0996  0.1962 -0.1817
17590W        W33484  12.614  16.312  12.482  0.0676 -0.2113 -0.2133
17591W        W33485  18.271   0.602   0.494  0.0046  0.1383 -0.0748
17592W        W33486  17.858  13.663  13.895  0.0148 -0.0873  0.1258
17593W        W33487   6.569  16.628  11.674  0.3914 -0.0973 -0.2054
17594W        W33488  11.901  13.821   0.697 -0.1873 -0.2100 -0.3019
17595W        W33489  14.362   9.457  15.398 -0.2286 -0.0364  0.0515
17596W        W33490   1.311   5.763  12.970 -0.1669  0.1099  0.1766
17597W        W33491   6.988   6.549  12.961 -0.1318 -0.1057  0.1353
17598W        W33492   2.543   1.597   0.299  0.1103 -0.0834 -0.0112
17599W        W33493   1.074  11.967   5.791 -0.2043  0.0247  0.1192
17600W        W33494   1.178  13.984   3.406  0.0562  0.1373 -0.2753
17601W        W33495  17.855  12.200   4.361  0.0880 -0.0333 -0.3679
17602W        W33496   4.204   0.521  10.508 -0.0623  0.0364  0.2330
17603W        W33497  14.808  10.858  15.146  0.0003  0.3454 -0.0482
17604W        W33498  10.864   0.914   1.502  0.0451 -0.0633  0.1238
17605W        W33499   0.583   1.034   3.467 -0.1710 -0.0519  0.0308
17606W        W33500   1.556   1.225  12.042  0.0920  0.1995 -0.0071
17607W        W33501   6.027   1.273  14.419  0.1396 -0.3043  0.2874
17608W        W33502   3.069  11.293   1.397  0.1355  0.1652 -0.0026
17609W        W33503  10.850  10.679  11.684 -0.3547  0.0503 -0.2500
17610W        W33504  15.973   4.103   4.697 -0.0419 -0.1488  0.0114
17611W        W33505   2.435   1.811  10.792 -0.0447  0.1491 -0.1443
17612W        W33506  13.675   4.525  11.300 -0.0377  0.0059 -0.0343
17613W        W33507   3.332  16.188  13.543 -0.0144 -0.0007 -0.3572
17614W        W33508   9.391  16.625  13.329  0.1579 -0.1774  0.0974
17615W        W33509  18.410  10.464   2.824  0.0652  0.0173  0.2750
17616W        W33510  16.319  12.050   1.386  0.1038 -0.3616  0.1949
17617W        W33511   0.608  16.120   0.482 -0.1947 -0.0239 -0.2012
17618W        W33512   0.684  15.065   4.407 -0.1574  0.2736  0.4238
17619W        W33513   0.417   1.026  15.572  0.0351 -0.2480 -0.1797
17620W        W33514  10.552  17.321  11.042 -0.2576  0.0745  0.2631
17621W        W33515   3.887  10.060   3.227  0.2505 -0.1304  0.1230
17622W        W33516  13.021  16.534   2.646 -0.1350  0.1951 -0.0483
17623W        W33517  14.051   2.078  15.071  0.0769  0.3399 -0.0951
17624W        W33518  14.269  13.077  15.465 -0.1949 -0.2805  0.1228
17625W        W33519   9.429   9.025   2.471 -0.1121  0.2714  0.2345
17626W        W33520  16.745  15.672  12.272 -0.0300  0.2762  0.2832
17627W        W33521  17.432   8.009   1.893 -0.0171 -0.2336 -0.1420
17628W        W33522  12.645   3.580   1.638  0.2138 -0.4069  0.1982
17629W        W33523   7.952   7.436   4.004 -0.0922 -0.0373  0.2446
17630W        W33524   9.302  11.155   3.783 -0.0798 -0.2007 -0.0429
17631W        W33525  11.869   0.989   3.937 -0.0814  0.2215  0.0309
17632W        W33526   2.397  11.958   3.054 -0.0365 -0.0350  0.2133
17633W        W33527   2.148  15.888  14.198  0.1402  0.3089  0.2889
17634W        W33528  13.526   6.667  11.306 -0.0788 -0.1098 -0.1063
17635W        W33529  14.941   6.128   5.234  0.1534  0.0267 -0.1047
17636W        W33530  11.588   9.818  12.476  0.1113  0.3319  0.1002
17637W        W33531  15.443  11.670   5.250 -0.1981 -0.2824 -0.0984
17638W        W33532  17.140   0.080   0.886 -0.0725  0.2356  0.2736
17639W        W33533  12.709   2.100  11.076 -0.0086 -0.2217  0.1404
17640W        W33534   0.088  12.034   1.039  0.2188  0.0033 -0.1488
17641W        W33535   2.987   6.706  13.647  0.2164  0.1246 -0.1022
17642W        W33536  15.810   5.290   9.578  0.0973 -0.1554 -0.3692
17643W        W33537   6.675  13.140   4.294 -0.1188  0.0905  0.0408
17644W        W33538   2.967  15.363  10.510  0.2015  0.3865  0.0594
17645W        W33539   6.856  15.729   0.062  0.2252 -0.1801 -0.2456
17646W        W33540   9.228   2.006   2.699  0.2267 -0.1314 -0.1865
17647W        W33541   3.713   4.024   1.874 -0.0160  0.1763  0.0878
17648W        W33542   5.801  11.219   1.214  0.4166 -0.4055  0.0832
17649W        W33543  17.997  11.655  11.971 -0.0670  0.0069  0.0509
17650W        W33544  11.700   3.168  13.275 -0.1172  0.1433  0.2781
17651W        W33545  15.057   7.174   3.391 -0.1723 -0.0524  0.2204
17652W        W33546  16.383   4.260  13.339 -0.0726  0.0402  0.0511
17653W        W33547   6.520  10.337  11.047  0.2733 -0.0203  0.2740
17654W        W33548   8.117   5.916   4.708 -0.1094 -0.1542 -0.2458
17655W        W33549  10.937   5.247  13.089  0.2587 -0.2065  0.3228
17656W        W33550   0.170   2.144   5.725 -0.0062 -0.2363 -0.1492
17657W        W33551   0.490  12.394   0.137  0.4006 -0.0137 -0.3082
17658W        W33552   8.875  11.957  12.297  0.0609 -0.4211 -0.0319
17659W        W33553   7.840   8.000   5.669  0.2608 -0.0538  0.1585
17660W        W33554   6.093   8.648   4.630 -0.0001  0.3634  0.0553
17661W        W33555   1.689   1.409   3.578  0.1086 -0.0709  0.1809
17662W        W33556  15.938   0.330  13.590  0.1233 -0.1201  0.1218
17663W        W33557   2.710   0.880  11.141  0.2125 -0.1715 -0.1002
17664W        W33558   1.772  10.109   0.525 -0.2575 -0.3942  0.0228
17665W        W33559   9.481   5.418  14.208  0.1730 -0.0060 -0.3815
17666W        W33560  12.429  15.949   3.307  0.1671 -0.2706 -0.0765
17667W        W33561   6.562  11.949   3.713  0.1889 -0.3160  0.3972
17668W        W33562  11.317   0.841   0.578 -0.0061 -0.0671 -0.1369
17669W        W33563   1.499   2.038   1.407  0.2917  0.0456  0.1480
17670W        W33564  18.659   4.332  14.152 -0.1533  0.2728 -0.3832
17671W        W33565   8.069  14.126   2.972 -0.0755  0.1103  0.2254
17672W        W33566   9.291  11.533  15.332  0.0885 -0.0176 -0.0753
17673W        W33567   8.690  12.522  10.601 -0.0638 -0.4115 -0.0950
17674W        W33568  15.482  12.150  13.102  0.0402 -0.3494  0.1495
17675W        W33569  16.912  17.885   4.568 -0.2526 -0.0912  0.1012
17676W        W33570  11.228   9.195  13.401 -0.0325 -0.1104  0.1361
17677W        W33571   3.285   4.713   3.365 -0.0628  0.1116 -0.0146
17678W        W33572   5.963   6.264   2.102  0.2423 -0.1401 -0.0445
17679W        W33573   4.568   5.708  12.106  0.1393 -0.0646 -0.0906
17680W        W33574  11.607  11.120  10.725 -0.0318  0.1893 -0.0028
17681W        W33575   5.601   2.189  10.202  0.0499 -0.1146 -0.2238
17682W        W33576   2.725  11.230  12.381  0.2036  0.2592  0.0480
17683W        W33577  14.246  15.273   0.061 -0.1115  0.4095  0.0727
17684W        W33578   8.518  10.891   0.182 -0.1177  0.0923  0.1110
17685W        W33579  10.372   0.846   2.267 -0.0802 -0.1614 -0.2130
17686W        W33580  12.913  10.777  13.575 -0.0136  0.2176 -0.0346
17687W        W33581   6.627   8.538  14.848  0.2187 -0.1310 -0.0362
17688W        W33582   5.713   3.981  15.627  0.1009  0.0636  0.1186
17689W        W33583   8.012  14.763   3.620  0.1735 -0.0654 -0.0130
17690W        W33584   6.395   4.519   0.145 -0.2130  0.1370  0.3495
17691W        W33585  14.672  17.828  14.855 -0.1431 -0.0620  0.1900
17692W        W33586  18.766  17.203   2.691 -0.2026 -0.0914  0.3309
17693W        W33587   2.193  16.311   3.614 -0.0540  0.1528 -0.3021
17694W        W33588  11.099   8.961  14.399  0.1692 -0.2038  0.0157
17695W        W33589  14.867   0.840   2.964  0.2061  0.1400 -0.2301
17696W        W33590   2.382   5.950  12.163  0.1991 -0.0874  0.3162
17697W        W33591   5.013   4.674   2.184  0.0512 -0.0504  0.2411
17698W        W33592  11.087   5.336   3.297 -0.0709  0.2684  0.4292
17699W        W33593   2.080  15.352   1.462 -0.2891  0.1519 -0.1162
17700W        W33594   8.424  14.689   2.079 -0.3982  0.0631  0.1807
17701W        W33595  14.004  11.695   4.239 -0.1793  0.1076  0.0691
17702W        W33596   2.047   7.921  11.903  0.0329  0.0651  0.1472
17703W        W33597   4.545   6.425  11.335 -0.1977  0.0580 -0.0896
17704W        W33598   3.988   9.668  12.353  0.0003 -0.2606  0.4148
17705W        W33599   0.090   7.899   2.966 -0.4643 -0.1459 -0.2257
17706W        W33600  14.640   1.242   0.377  0.0928  0.0396 -0.1681
17707W        W33601  15.295  13.107  14.499 -0.0889  0.1628  0.0742
17708W        W33602   4.480  15.102   1.488 -0.1266  0.0884  0.1085
17709W        W33603   7.713   4.968  12.106  0.1765 -0.1989 -0.0865
17710W        W33604   7.399   6.199   0.961 -0.0080 -0.0022 -0.1883
17711W        W33605   4.641   9.381  15.061  0.1364 -0.0945  0.0128
17712W        W33606  13.328   9.852  14.922  0.0337  0.0914  0.0756
17713W        W33607   6.081   7.491  10.592  0.2394 -0.2342  0.1422
17714W        W33608  16.672  14.369   5.781 -0.0954  0.2117  0.1099
17715W        W33609   1.593  11.732  10.490 -0.0611 -0.1729 -0.1306
17716W        W33610  14.763  15.773  14.404 -0.2295 -0.1771 -0.1905
17717W        W33611   5.285   0.306   3.340  0.0726 -0.0153  0.2623
17718W        W33612  12.068   8.697   5.098 -0.0828 -0.1679 -0.0256
17719W        W33613   8.939  12.237  11.873 -0.0582 -0.0886  0.2138
17720W        W33614  18.222  18.208  10.204  0.2541 -0.1511 -0.1177
17721W        W33615  17.636   4.252  13.223  0.0308  0.3959  0.1238
17722W        W33616   9.258  16.963  12.393 -0.1159  0.2582  0.0493
17723W        W33617   6.192   3.953   0.349  0.0210 -0.1255 -0.0572
17724W        W33618   6.760   3.811  14.806 -0.1836  0.2386 -0.2078
17725W        W33619   2.352   7.625  12.878  0.1155  0.1394 -0.0067
17726W        W33620   9.142   0.572   2.125 -0.0836  0.2427 -0.5614
17727W        W33621   2.601   2.484  10.493 -0.0316  0.0753  0.2873
17728W        W33622   4.038  15.467  12.548  0.2107  0.3730  0.0518
17729W        W33623   1.551  17.018  13.984  0.0474  0.0687  0.3580
17730W        W33624  10.068   4.290   3.176  0.1885  0.1612 -0.0435
17731W        W33625  13.253   7.565   2.621  0.1602  0.1611  0.3180
17732W        W33626   3.612   6.419   0.706  0.1346 -0.0517 -0.1146
17733W        W33627  12.963   7.723   3.866 -0.1656 -0.0049  0.0077
17734W        W33628   2.265   0.831   2.561  0.1321 -0.0493  0.3999
17735W        W33629  18.762  14.735   3.136  0.2188  0.1576  0.0981
17736W        W33630   1.217  14.523  15.031  0.2400 -0.2569  0.1072
17737W        W33631   9.061   2.828  14.452  0.0858 -0.2312  0.0920
17738W        W33632  14.155   1.666   2.850  0.4220 -0.0562  0.0560
17739W        W33633  10.857  14.394  13.267 -0.1581  0.1177 -0.1158
17740W        W33634   5.335  12.704  14.370 -0.0071  0.1118  0.0583
17741W        W33635  10.996  12.928   4.275  0.1877  0.1569 -0.1810
17742W        W33636   9.258   1.876  11.192 -0.1203 -0.0876 -0.0365
17743W        W33637  14.883   0.791   2.070  0.0469  0.0708 -0.1433
17744W        W33638  11.797   9.685   1.329  0.0481 -0.0595  0.1905
17745W        W33639   5.348   9.318  10.508 -0.2188 -0.1972  0.0269
17746W        W33640   3.150   6.015  12.646  0.3181  0.1066 -0.1660
17747W        W33641  16.533  11.199   4.220 -0.2197  0.0737 -0.0823
17748W        W33642   5.047   4.149  14.364 -0.3188 -0.2141  0.2325
17749W        W33643  15.511  10.122  14.013  0.0208 -0.3924 -0.0415
17750W        W33644   6.214  18.681   5.347  0.1027  0.0886 -0.0615
17751W        W33645   8.141   0.815  12.283 -0.0179 -0.0842 -0.0888
17752W        W33646   5.290  13.070   2.162 -0.3060  0.2520  0.0632
17753W        W33647   1.404   9.442  15.264 -0.1511  0.0358 -0.1412
17754W        W33648   6.951  10.784  14.367 -0.2813  0.0103  0.4211
17755W        W33649  18.470  11.020  14.712  0.0260 -0.2470  0.0767
17756W        W33650   0.024  17.685   4.636 -0.0373 -0.1594  0.4039
17757W        W33651  11.753  10.693  13.935 -0.2398 -0.0473 -0.1866
17758W        W33652   7.881   7.932   0.535  0.0493  0.3500  0.2356
17759W        W33653   8.246  15.479  11.540 -0.2027  0.1173 -0.2297
17760W        W33654  13.162   8.392  13.128  0.2664 -0.1029 -0.1058
17761W        W33655  13.176  18.524   2.456  0.0162 -0.2122  0.3027
17762W        W33656   5.265  17.986   3.405  0.0743  0.0898  0.2514
17763W        W33657   2.495  15.350  12.838 -0.0523 -0.0081  0.0060
17764W        W33658   8.676   7.669  11.730  0.0745 -0.0550 -0.0242
17765W        W33659   4.893   3.233  14.156  0.2949  0.2012 -0.0512
17766W        W33660   1.794   9.234  10.865 -0.0286 -0.1375  0.0701
17767W        W33661   8.826  13.280   2.300  0.0552 -0.0817 -0.1130
17768W        W33662  12.404   7.556   1.035  0.0692 -0.1871  0.0176
17769W        W33663   2.496  12.039  12.341  0.1383  0.0645  0.3244
17770W        W33664   4.593   6.989  14.475 -0.0389 -0.1315 -0.1317
17771W        W33665  16.965   1.102  13.517 -0.1782 -0.0094 -0.2136
17772W        W33666   6.905  13.797   3.655  0.1564 -0.1572  0.0498
17773W        W33667   0.323   7.673  14.855 -0.0016  0.3221 -0.0341
17774W        W33668   0.282   4.830  15.145  0.2400 -0.1630 -0.2366
17775W        W33669  10.173   0.699  14.343 -0.2555  0.2569  0.1980
17776W        W33670   4.238   4.156  13.817 -0.2720 -0.1991  0.2801
17777W        W33671   0.140  17.398  10.699  0.0329 -0.1900 -0.1945
17778W        W33672  17.443  17.878   1.243 -0.0812  0.0858  0.0908
17779W        W33673   3.756  15.561  10.651  0.2654 -0.2003  0.1855
17780W        W33674   1.981   8.943   1.283  0.0934 -0.5865  0.2782
17781W        W33675  15.840   5.529   4.155  0.2057 -0.2849 -0.4418
17782W        W33676  16.988  15.551   0.176 -0.1213 -0.4155  0.1080
17783W        W33677  10.493  11.288   2.047  0.1659  0.1355 -0.1430
17784W        W33678  17.485   6.193   1.653  0.0187 -0.1818  0.1198
17785W        W33679  12.236   6.817  12.238  0.0840 -0.1963  0.0581
17786W        W33680  15.668  17.011   3.499  0.1487  0.1035 -0.3656
17787W        W33681   4.582   0.578  11.578  0.2253  0.1603 -0.0515
17788W        W33682   1.362  11.668  12.950 -0.2453 -0.0949  0.4307
17789W        W33683  10.868  13.336  12.472  0.0550  0.3444  0.2371
17790W        W33684  16.700  14.199   1.689 -0.4053 -0.1577 -0.0596
17791W        W33685   9.529   9.239   4.121 -0.1440 -0.0835  0.1184
17792W        W33686   5.137   3.019   0.243 -0.3427 -0.0508  0.1648
17793W        W33687  13.134   4.951   1.943 -0.2841 -0.1411  0.1664
17794W        W33688  13.622   5.502  11.618  0.2365  0.0293  0.0524
17795W        W33689  15.120  18.667   1.755  0.1194 -0.1657 -0.1464
17796W        W33690   6.029   8.779  14.136  0.0989 -0.0816 -0.3434
17797W        W33691   2.822   5.191  13.172  0.0286 -0.1513 -0.3378
17798W        W33692   4.614   0.886  10.660 -0.0382 -0.0119 -0.0331
17799W        W33693   9.784  15.575   2.512  0.0818 -0.0328  0.2398
17800W        W33694  11.471  11.200  14.104 -0.0587  0.2128  0.4058
17801W        W33695   7.088   6.881   0.350 -0.0991 -0.0569  0.0452
17802W        W33696  18.567  15.598   0.437  0.1948  0.1897 -0.0154
17803W        W33697  11.664   1.577   4.399  0.1344  0.3617 -0.1533
17804W        W33698   1.606   6.759  14.605  0.0161 -0.1344 -0.1251
17805W        W33699   7.666  12.408   4.893  0.2303 -0.2896  0.1241
17806W        W33700   3.744   2.514   1.337  0.2278 -0.0349 -0.1032
17807W        W33701  11.109   9.799   0.629  0.1051  0.1489  0.2270
17808W        W33702  11.860   8.602   0.636 -0.0450 -0.1966 -0.0724
17809W        W33703   8.265   0.168   4.369  0.2472 -0.0323 -0.0362
17810W        W33704   5.091   0.710  10.815  0.1131 -0.1036 -0.0413
17811W        W33705   5.685   9.653   0.047  0.4334 -0.2204  0.0646
17812W        W33706   2.397   8.414   5.297  0.0110 -0.2628 -0.0568
17813W        W33707   6.897   0.731  13.517 -0.1541  0.2841 -0.0297
17814W        W33708  14.019   6.163  14.723 -0.1608 -0.0315 -0.0314
17815W        W33709   4.347   4.215   1.189  0.1526  0.3101 -0.3766
17816W        W33710   3.026   2.625   3.196  0.1059  0.3074 -0.0292
17817W        W33711   0.124  10.579   2.229  0.0248  0.1292  0.3298
17818W        W33712  11.028  11.362  12.184 -0.2324 -0.0142  0.1782
17819W        W33713   3.954  10.219   1.650 -0.1625 -0.0487  0.1293
17820W        W33714  12.886  13.001  12.792  0.1885 -0.0570  0.0754
17821W        W33715   4.420   3.109  15.037 -0.0029 -0.0188 -0.3567
17822W        W33716   1.662  18.490   3.812  0.1990  0.1766  0.1717
17823W        W33717   7.502  18.217  12.197  0.0895  0.1133 -0.1317
17824W        W33718   1.285   4.459  13.207 -0.1709 -0.3448 -0.0822
17825W        W33719   1.915  10.613   4.421 -0.0988  0.0155  0.0620
17826W        W33720   1.073   3.870   3.598 -0.1501 -0.1125  0.4010
17827W        W33721  14.009   4.403   1.823 -0.0561 -0.2087 -0.2179
17828W        W33722   6.907  11.118  13.200 -0.2230 -0.2864  0.0884
17829W        W33723   9.433   3.320   2.285 -0.0803  0.1675  0.0872
17830W        W33724   6.390   1.129  12.944  0.0734  0.2709 -0.2656
17831W        W33725   9.551  10.447   1.212 -0.1435  0.0374  0.3423
17832W        W33726   1.217   0.024  13.453  0.1168 -0.1674 -0.1349
17833W        W33727   7.697  16.223   2.782  0.0556  0.1140 -0.0113
17834W        W33728   1.006  14.851  14.640  0.1014 -0.2095 -0.1244
17835W        W33729   9.739   5.682   5.400  0.0943 -0.3702 -0.0809
17836W        W33730  11.964   4.245   0.653  0.2257 -0.2878  0.0837
17837W        W33731   4.658   7.056  13.935 -0.3225  0.0289  0.0181
17838W        W33732  11.276  14.748  13.823  0.0543 -0.0250 -0.3165
17839W        W33733   3.995   5.456  10.885 -0.0101  0.2006 -0.1225
17840W        W33734   9.410   7.214   5.435  0.0249  0.0641  0.0551
17841W        W33735  15.574  16.133   1.335  0.1017  0.4313  0.2845
17842W        W33736   6.120   3.287  12.550  0.2575  0.1326 -0.3313
17843W        W33737  17.561  11.782   1.920  0.2679  0.5965 -0.1488
17844W        W33738  15.256   4.632  11.249  0.4411  0.1264 -0.0508
17845W        W33739   6.052  12.126   4.377 -0.1740 -0.0260 -0.2612
17846W        W33740   3.933   0.305   1.814  0.0469 -0.1394 -0.0369
17847W        W33741   2.046   7.504   2.215  0.3151  0.1653 -0.0936
17848W        W33742  17.341   4.424   3.385 -0.2009 -0.0667 -0.0661
17849W        W33743   8.576  15.204   0.737  0.3499  0.1669  0.2098
17850W        W33744   7.622   5.110  13.975  0.0800 -0.1209  0.1188
17851W        W33745  17.793   1.930  11.448 -0.2626 -0.2893  0.2052
17852W        W33746  13.406   2.493  11.198  0.1268 -0.0505 -0.1328
17853W        W33747   8.489  12.886   2.418  0.1951 -0.2152  0.0610
17854W        W33748  18.510   6.752  15.005  0.0010  0.0478 -0.1302
17855W        W33749  14.718  11.539   0.675  0.0825  0.1208 -0.0409
17856W        W33750   3.215  16.659   9.989  0.1951 -0.0148 -0.0784
17857W        W33751   4.899   2.314  11.304  0.2970  0.0352 -0.0875
17858W        W33752   2.521  13.476   5.239 -0.1870 -0.2752 -0.0187
17859W        W33753  18.760   9.749   3.286 -0.0611  0.0407 -0.1203
17860W        W33754   7.619   7.623   4.922  0.2031 -0.4683  0.2885
17861W        W33755   2.378   4.372   5.350  0.2940 -0.0538  0.2229
17862W        W33756   5.628   4.883  15.349 -0.2555  0.1949 -0.0592
17863W        W33757   0.733  14.035   3.789 -0.1049  0.1280 -0.1031
17864W        W33758  13.126   0.208  14.096 -0.0376  0.2834  0.1044
17865W        W33759   3.467   9.835  12.213 -0.0371 -0.2179  0.4030
17866W        W33760  14.188  13.721  14.788  0.2524  0.2453  0.2344
17867W        W33761  18.414  17.546  15.425 -0.0931  0.1645  0.0820
17868W        W33762  17.491   6.498   2.221 -0.2737  0.0090  0.0967
17869W        W33763  15.915  18.074  15.211 -0.0311 -0.0582 -0.0987
17870W        W33764   3.310   0.053   0.289 -0.2210 -0.0804 -0.1527
17871W        W33765  13.970   3.337  13.391 -0.1277 -0.1084  0.1155
17872W        W33766  13.240  13.637  11.681 -0.0385  0.3136 -0.1748
17873W        W33767   7.641   1.769  15.317 -0.0764  0.0783  0.2825
17874W        W33768  18.444  16.603   0.608  0.1851 -0.0822 -0.2225
17875W        W33769  13.171  12.155   2.276 -0.0916  0.0228  0.0735
17876W        W33770   5.186   3.906   0.606 -0.2154 -0.3389  0.0996
17877W        W33771   0.782   6.385   1.156  0.0722  0.0307 -0.0619
17878W        W33772   1.672   7.271   2.480  0.1130 -0.2111 -0.1908
17879W        W33773   4.649   9.894  12.398 -0.0986  0.0474  0.0297
17880W        W33774   9.914  18.744  13.686  0.0578  0.2618 -0.1489
17881W        W33775   3.103  10.471   0.972  0.0422  0.1297  0.0740
17882W        W33776  12.120  14.438   4.673 -0.2635 -0.0820  0.0185
17883W        W33777  14.766   3.013   0.366  0.1916  0.0985 -0.2609
17884W        W33778  13.144   5.611   3.614 -0.1270 -0.0829 -0.2349
17885W        W33779   9.618  16.828   5.814  0.0552  0.1940 -0.2319
17886W        W33780   9.327   3.629  11.358 -0.2707 -0.1061  0.4117
17887W        W33781  11.321  16.814  12.794 -0.2213  0.1812  0.0793
17888W        W33782   9.180   9.924  15.154 -0.4747  0.1849 -0.1077
17889W        W33783   3.779  13.279   1.010  0.3430  0.1153  0.1587
17890W        W33784   5.165  13.831  11.048  0.0239  0.0879 -0.0055
17891W        W33785  16.078  17.759   0.608  0.1376 -0.1856 -0.2686
17892W        W33786  10.183  18.139  13.697 -0.5549  0.0814 -0.0812
17893W        W33787  14.103  15.972   4.456  0.0562 -0.1274  0.1119
17894W        W33788   2.447   5.433   0.429 -0.1496  0.0183 -0.0268
17895W        W33789   0.541  16.409  12.788  0.2569 -0.1549 -0.1571
17896W        W33790   0.793   1.485   0.815  0.2098 -0.2753  0.2872
17897W        W33791  14.059   1.843   2.044  0.1578 -0.2866  0.0738
17898W        W33792   6.425   1.561  15.041  0.0697  0.1033  0.0540
17899W        W33793   9.880   9.209   4.502 -0.0468  0.1986 -0.0442
17900W        W33794  15.554   5.366   6.059  0.1196  0.0001  0.2193
17901W        W33795   3.546  11.506   3.369  0.0661 -0.0264  0.1634
17902W        W33796  14.189  13.337  14.081 -0.2422 -0.2948 -0.0153
17903W        W33797   0.724   7.408   0.261 -0.3066  0.2876  0.0825
17904W        W33798   6.647  15.919   2.100 -0.2893  0.1632  0.0254
17905W        W33799   7.790   6.556   3.646  0.3291 -0.1914 -0.0352
17906W        W33800   5.310   6.201   1.731 -0.5162 -0.1673 -0.0816
17907W        W33801  17.254  17.932  11.909 -0.0276 -0.1736  0.1417
17908W        W33802  11.207  17.306   5.199 -0.2691 -0.1711  0.0782
17909W        W33803  16.377   1.390   1.815  0.4444  0.1349  0.0150
17910W        W33804  14.999   1.948   9.541  0.1306 -0.1406 -0.1135
17911W        W33805  12.406  16.986  14.773 -0.0288  0.1340 -0.1422
17912W        W33806  11.923  12.400   3.143  0.1212  0.2426  0.1721
17913W        W33807  17.300   4.570   2.696 -0.1821 -0.0805  0.1296
17914W        W33808  12.550   4.079   1.484  0.0084  0.1673  0.0047
17915W        W33809   8.492   4.865   0.929  0.0610  0.1817 -0.1272
17916W        W33810  16.038   4.361   1.395  0.1986  0.2982  0.1634
17917W        W33811   3.200  10.095  11.083  0.3589 -0.0086 -0.0683
17918W        W33812   5.852  14.583  10.295  0.0992  0.0879 -0.0793
17919W        W33813   1.028  15.763  15.429  0.3026 -0.0949 -0.1097
17920W        W33814  13.233   1.267   0.134  0.1385  0.1063  0.0277
17921W        W33815   6.821  10.483  13.763 -0.0113 -0.1756 -0.2442
17922W        W33816  17.038  17.473   2.116 -0.0304 -0.3447  0.0142
17923W        W33817  15.088  13.447  14.205 -0.2440 -0.3137  0.2586
17924W        W33818   1.215   9.207   1.668 -0.2072  0.1370  0.1052
17925W        W33819   5.017   2.098  15.052  0.0476  0.1323  0.1595
17926W        W33820  11.194  15.791  13.123  0.1685 -0.1457  0.0606
17927W        W33821   1.980   9.602  13.416  0.0544 -0.0952  0.4759
17928W        W33822   3.623  17.068  11.916 -0.2093 -0.0606  0.2627
17929W        W33823   1.634   0.330  10.538  0.1447  0.1960  0.0920
17930W        W33824  10.286   1.729   0.752  0.2777 -0.1794  0.2105
17931W        W33825   6.760   2.112  14.605  0.1190 -0.0480  0.1592
17932W        W33826   0.657  10.172   4.900 -0.0316  0.0224  0.2234
17933W        W33827  18.686  15.819  13.210  0.1017 -0.1608  0.0443
17934W        W33828  14.048   7.744  11.510  0.1734 -0.0862 -0.4412
17935W        W33829   4.427   0.024  10.794 -0.2036  0.0113 -0.1235
17936W        W33830   9.733   9.413  14.078 -0.0901 -0.1208 -0.1552
17937W        W33831   5.397   6.845   1.472 -0.2262 -0.1642 -0.0917
17938W        W33832  10.914   3.808   2.277  0.1560  0.0737 -0.0453
17939W        W33833  15.452  14.423  11.683  0.0803  0.1688  0.2131
17940W        W33834   9.188  17.752   9.367 -0.2101  0.1232  0.1416
17941W        W33835  12.981   6.129  12.116  0.0413  0.0956 -0.3476
17942W        W33836  17.981  13.928  13.476 -0.0519 -0.0779 -0.1697
17943W        W33837   2.815  13.963  15.165  0.0216 -0.1217  0.1217
17944W        W33838  10.960  14.401   3.292  0.3984 -0.0292  0.3769
17945W        W33839   2.809   4.699   2.133 -0.2380 -0.0762 -0.0934
17946W        W33840  16.385  10.081  14.594  0.2887 -0.0904 -0.2295
17947W        W33841   1.716  16.601   2.885  0.3310 -0.0617  0.1929
17948W        W33842   5.482   6.717  15.060 -0.1682 -0.2541 -0.1148
17949W        W33843   2.088   3.064   1.521 -0.0943  0.0159  0.1929
17950W        W33844  18.343   2.002  11.319  0.0446  0.0829 -0.0430
17951W        W33845   0.423   2.984  13.153 -0.3239 -0.0876  0.3783
17952W        W33846   9.932   3.255   1.389 -0.0820  0.3031 -0.1038
17953W        W33847   4.557   2.412  12.244 -0.0631 -0.2051  0.1154
17954W        W33848  16.161  11.805  12.049  0.0923 -0.0483  0.0794
17955W        W33849   7.310  16.848   0.026  0.2094  0.1481  0.3015
17956W        W33850   6.576   0.827   2.070  0.1316 -0.4012 -0.2008
17957W        W33851   9.053  18.365   3.887  0.1996  0.4203 -0.0346
17958W        W33852   4.217   7.671  13.466 -0.1042  0.3889 -0.3260
17959W        W33853  15.501   1.581  12.925 -0.2365  0.1400 -0.0858
17960W        W33854   7.225  10.342  14.415  0.0115 -0.4975 -0.2110
17961W        W33855   9.579   7.450   4.411 -0.1160  0.1405 -0.2433
17962W        W33856  11.293  12.436   0.508  0.1364 -0.1504  0.1054
17963W        W33857  15.554  12.814  15.621  0.0393 -0.1961  0.1240
17964W        W33858   0.983   6.675  13.442 -0.1177  0.1626  0.0850
17965W        W33859  17.599   7.542  15.343  0.2682  0.2873 -0.1645
17966W        W33860   6.660   6.809   5.618 -0.2519 -0.0202  0.1942
17967W        W33861  12.248   4.813   1.780 -0.0658  0.0966 -0.0873
17968W        W33862  17.383   2.366   1.590  0.1331 -0.1765  0.0540
17969W        W33863  12.070   7.574  14.326  0.1300 -0.2568 -0.0488
17970W        W33864  18.142   0.105  11.607  0.2275  0.0997  0.3682
17971W        W33865   0.831   7.490  14.919  0.0002  0.0838  0.0347
17972W        W33866  14.164   6.681   3.736  0.0809 -0.0215 -0.0327
17973W        W33867  11.953  12.497  14.082  0.1521  0.1827  0.0008
17974W        W33868  17.270  18.033  13.629 -0.0641  0.0694 -0.1683
17975W        W33869  15.013   5.146   5.390  0.1775 -0.1495 -0.3112
17976W        W33870  14.071   5.555  13.947 -0.1004 -0.0747 -0.1112
17977W        W33871   7.254   1.714  14.391 -0.0702  0.3852  0.0427
17978W        W33872   9.030   9.434   4.013  0.1321  0.1822  0.0547
17979W        W33873   3.208   5.824  14.508 -0.0301  0.1159 -0.1797
17980W        W33874  16.247  18.488  13.774 -0.2509 -0.1165  0.2059
17981W        W33875  11.650   1.177   5.386  0.3431 -0.1369 -0.0004
17982W        W33876   0.613  16.347   1.093  0.1668 -0.0925 -0.1536
17983W        W33877   3.514  18.431  14.566 -0.1994 -0.2832 -0.1771
17984W        W33878   1.264  11.177   0.072  0.1390  0.2342 -0.0146
17985W        W33879  13.233  11.003   2.018  0.0747  0.1430 -0.1274
17986W        W33880  12.149  15.442  13.175 -0.3223 -0.0691  0.2401
17987W        W33881   8.861  13.342  12.947 -0.1661  0.2097  0.1349
17988W        W33882  12.700  13.546   0.214  0.0870 -0.1221  0.0972
17989W        W33883  13.814  13.484  13.126 -0.0653  0.1123 -0.2073
17990W        W33884  15.840   6.141   1.857  0.1979  0.0146 -0.0212
17991W        W33885   6.953   8.695  10.878 -0.2561 -0.2957 -0.1528
17992W        W33886   6.012   3.676   2.568 -0.0149 -0.1676  0.0565
17993W        W33887   2.082   3.083   0.286 -0.2306  0.1023 -0.3974
17994W        W33888   7.829  12.058   0.670  0.0751  0.3367  0.0901
17995W        W33889   1.951   8.592  13.815 -0.1386  0.2573  0.0856
17996W        W33890   0.242   1.466   0.922 -0.2163 -0.0610  0.0610
17997W        W33891  10.414   2.828  13.543 -0.1780  0.2274 -0.2252
17998W        W33892  16.865   9.509   4.886 -0.1648 -0.2192  0.0576
17999W        W33893   6.235   3.353   0.285  0.3833 -0.0274 -0.0661
18000W        W33894  14.271   3.369  13.806 -0.0905 -0.1059 -0.2054
18001W        W33895   0.662  10.342   1.459 -0.1413 -0.0346  0.2010
18002W        W33896  12.003   3.825   0.261 -0.0657 -0.2084 -0.1884
18003W        W33897  18.298   3.338  11.319 -0.0402  0.0701 -0.1840
18004W        W33898   8.727   9.646   4.309  0.1864  0.1147 -0.0598
18005W        W33899   9.002   5.486  12.213 -0.1626 -0.5290 -0.0303
18006W        W33900   8.663  13.007   1.942  0.0682 -0.0244  0.0019
18007W        W33901  11.551   2.549   5.033  0.0001  0.0162 -0.0963
18008W        W33902   4.513   9.038   2.570 -0.0039 -0.2159  0.2591
18009W        W33903  12.562  17.109   5.005 -0.1683  0.0994  0.0917
18010W        W33904   0.566  16.704  14.354  0.1700 -0.0043 -0.2733
18011W        W33905  12.730  16.896   1.259 -0.2261 -0.0919 -0.2208
18012W        W33906   6.018   6.966  10.715  0.0347 -0.2760  0.1932
18013W        W33907   4.121   0.356   3.835  0.0808 -0.1267  0.3228
18014W        W33908   1.441   5.297  10.539  0.1325 -0.0486 -0.3012
18015W        W33909  10.821   8.162   3.960 -0.1470 -0.2786 -0.1200
18016W        W33910   5.984   0.165   3.000  0.3851  0.4002  0.1608
18017W        W33911   5.162   1.178   4.003 -0.0906 -0.1109 -0.0109
18018W        W33912  10.605  14.670   4.407 -0.1465 -0.2272  0.0735
18019W        W33913   9.627   8.768   0.354 -0.2893  0.0920 -0.3144
18020W        W33914   0.950  14.744  11.905 -0.5194 -0.0153 -0.0981
18021W        W33915  12.075   7.961  13.830  0.1547  0.2924  0.1577
18022W        W33916   6.842  15.718  11.074  0.0367  0.0055 -0.4157
18023W        W33917   6.243   1.766  11.318  0.0985  0.2022  0.1309
18024W        W33918   8.132   7.900   1.627 -0.1511  0.0321 -0.1574
18025W        W33919   7.322  13.972   2.275  0.0268  0.0596  0.1940
18026W        W33920  13.981   4.250   3.197 -0.1024  0.3201 -0.0395
18027W        W33921   2.800  10.228   2.351  0.3769  0.1608 -0.2373
18028W        W33922  18.473   8.706   4.104 -0.3127  0.2943  0.3971
18029W        W33923  14.253  10.025   2.829 -0.1485  0.0994  0.1887
18030W        W33924   3.485  16.012   3.200  0.0990 -0.3363  0.2254
18031W        W33925   2.056  11.567  13.098  0.3581  0.0410 -0.1100
18032W        W33926  12.407  18.119  11.049  0.1409 -0.2173 -0.2150
18033W        W33927  12.949   9.520   3.985 -0.2381 -0.1617  0.0451
18034W        W33928   5.487   8.110   1.575  0.0052 -0.0446  0.0554
18035W        W33929  13.991  14.125   5.153  0.1939  0.0918 -0.1464
18036W        W33930  15.022   0.508  14.674 -0.3959 -0.1817  0.0721
18037W        W33931   7.397   1.256   1.471  0.1461 -0.0173 -0.0559
18038W        W33932   1.901  14.531  12.575  0.0252 -0.0803 -0.0772
18039W        W33933   0.076   5.066   0.072  0.0440 -0.0901 -0.1782
18040W        W33934  16.261   3.721  15.211  0.2440 -0.1857  0.3077
18041W        W33935   0.051   4.284   2.913  0.0660  0.2234  0.1070
18042W        W33936  17.402  11.836  11.247  0.0275 -0.1744 -0.4432
18043W        W33937  13.578   9.366  13.987 -0.2891  0.2319  0.2611
18044W        W33938  13.516  17.738   1.387 -0.0744 -0.2220  0.0453
18045W        W33939  10.738  18.667   1.222  0.3665 -0.0578  0.2033
18046W        W33940   2.572  13.889   4.938 -0.0848  0.1115 -0.1510
18047W        W33941  14.607  15.449   5.723 -0.0754 -0.2063  0.2891
18048W        W33942  13.792  10.095  14.156 -0.1669  0.0619 -0.0177
18049W        W33943  10.391   8.012   1.673  0.1662  0.1665 -0.3664
18050W        W33944   3.126  12.470  13.831 -0.1294  0.1043 -0.0865
18051W        W33945  14.745   5.477   2.794 -0.0305  0.0186 -0.3845
18052W        W33946  10.676  17.142   0.995 -0.1201  0.0163  0.1301
18053W        W33947  14.297   8.736   3.264  0.3755  0.1860  0.0682
18054W        W33948   8.639   4.607   0.210 -0.1355 -0.1435 -0.1359
18055W        W33949  12.877  15.932   4.085  0.0515 -0.0463  0.0125
18056W        W33950   1.142   9.173  11.367 -0.0625 -0.2882 -0.1426
18057W        W33951  18.600   9.751   2.759 -0.0443  0.0658 -0.0840
18058W        W33952   8.524   5.017   2.413 -0.0763  0.1593  0.0231
18059W        W33953  18.376   1.694  12.994  0.4084 -0.2239  0.0854
18060W        W33954  17.108  14.228  13.522  0.1548  0.2359  0.0560
18061W        W33955   3.679   8.723  14.315 -0.0561 -0.0388  0.1592
18062W        W33956   3.940   3.767  11.202 -0.4299 -0.1340 -0.2465
18063W        W33957  10.197   0.547  13.081  0.1686  0.2074  0.2913
18064W        W33958   3.013   2.195   0.821 -0.2460 -0.0858 -0.3566
18065W        W33959  12.835   9.510  12.096  0.3827 -0.1307  0.0149
18066W        W33960  17.446   3.131   4.643  0.1681  0.1127  0.3027
18067W        W33961  13.757   3.637  12.502  0.1790 -0.1059  0.0328
18068W        W33962   3.142   0.343   9.639  0.0198  0.0126  0.1307
18069W        W33963  16.372  13.573   1.034 -0.0338  0.1577  0.0365
18070W        W33964  14.413  18.196  12.924 -0.3957 -0.3105 -0.0405
18071W        W33965  16.574  12.626   1.765  0.5623  0.2135  0.2236
18072W        W33966   5.809  12.435   0.042  0.0485 -0.3129  0.1352
18073W        W33967  17.483   9.825   2.456  0.0007 -0.0341 -0.4218
18074W        W33968  13.006  16.411  15.305 -0.2991 -0.0873 -0.1111
18075W        W33969  15.120  17.729  14.651  0.2429 -0.1163 -0.2808
18076W        W33970   0.017   5.924   1.698  0.0443 -0.0879 -0.1080
18077W        W33971  12.593  13.197   4.428 -0.1724 -0.0754 -0.0884
18078W        W33972  14.812   3.603   3.219  0.0385  0.0308  0.0466
18079W        W33973   7.503   9.758   3.430 -0.0442 -0.2430 -0.0768
18080W        W33974  12.521  14.673  15.114 -0.1688 -0.1902 -0.0679
18081W        W33975   4.258  11.034  15.332 -0.1887  0.1136  0.0110
18082W        W33976   6.667  11.903   1.165  0.1361  0.2042  0.0405
18083W        W33977   9.699  17.264  12.014  0.0372  0.1571  0.2265
18084W        W33978   6.891   2.808   0.360 -0.1074 -0.4654  0.1729
18085W        W33979   5.147  11.258  14.428  0.1653 -0.1951 -0.0649
18086W        W33980  17.219   2.988  15.528  0.3739 -0.1299 -0.2487
18087W        W33981  18.489   1.389  15.190 -0.2580  0.2079  0.3084
18088W        W33982   9.182  18.470  12.788 -0.1470 -0.1728 -0.1305
18089W        W33983  13.088   9.346  10.796 -0.1539  0.1313  0.1309
18090W        W33984  11.800  12.321   4.545  0.1297  0.0662  0.0980
18091W        W33985  11.850   8.721   2.496 -0.1568 -0.0843 -0.0047
18092W        W33986   9.527  12.349  13.297 -0.1173 -0.2543  0.0085
18093W        W33987   3.455  11.021   4.439  0.1543 -0.1683  0.2904
18094W        W33988   6.485  15.828   0.531 -0.2028  0.3353 -0.1126
18095W        W33989   3.026   1.502   0.187  0.2937 -0.0070  0.1406
18096W        W33990   2.874   9.590  11.205  0.3218 -0.0571  0.1622
18097W        W33991   1.466  13.732  10.030 -0.1011 -0.2056  0.1034
18098W        W33992   2.380  11.042   2.069  0.2578 -0.1852  0.2826
18099W        W33993  14.222   0.793  12.614 -0.2993  0.0051  0.1994
18100W        W33994   2.371   9.673   0.885  0.0540  0.0325  0.2316
18101W        W33995  16.526   6.599  11.344 -0.3717  0.4460 -0.2505
18102W        W33996   1.045  14.433   3.218  0.2428 -0.3043 -0.1013
18103W        W33997   2.295  13.847   1.081  0.0122  0.1848 -0.1291
18104W        W33998   1.042   4.422  13.629  0.1335  0.0503  0.2168
18105W        W33999  10.651   5.882   4.285  0.1118 -0.0822  0.2595
18106W        W34000  15.133  12.952   4.192 -0.1296 -0.3137 -0.2915
18107W        W34001   5.604  10.609   3.220  0.0808  0.3160 -0.1478
18108W        W34002   9.360   9.187   1.514  0.1914 -0.0273 -0.0111
18109W        W34003  17.149  12.387  12.563  0.0173  0.3663  0.2517
18110W        W34004   3.288  17.052  12.315 -0.2035  0.1000  0.0718
18111W        W34005   3.391   8.228   3.114 -0.1080  0.0502  0.0427
18112W        W34006   5.258  17.353   3.231 -0.1193  0.2316 -0.2023
18113W        W34007   0.020  13.702   5.134  0.1248 -0.0172  0.0037
18114W        W34008   6.379   6.783   5.162 -0.0042 -0.4135 -0.2613
18115W        W34009  12.225  11.562  13.912  0.0271 -0.2326 -0.1068
18116W        W34010   9.451  12.330   1.655  0.1512 -0.1566 -0.3028
18117W        W34011  17.725   5.679  13.372  0.0627 -0.0919  0.0720
18118W        W34012  12.691   3.092   3.980 -0.3748  0.1079 -0.2046
18119W        W34013   3.829   7.949  13.411 -0.0405  0.1840  0.0833
18120W        W34014   0.751  16.851   0.342  0.1137 -0.2485 -0.0509
18121W        W34015   0.524  13.496  12.583  0.2393 -0.0491 -0.1524
18122W        W34016   7.437   3.335  13.606 -0.1048 -0.0595  0.4086
18123W        W34017   3.051  12.620   0.837 -0.2946  0.1514 -0.2832
18124W        W34018  17.815   8.885  11.328  0.1207 -0.2352  0.0045
18125W        W34019   3.666   5.114  11.280 -0.2081  0.0344 -0.2330
18126W        W34020   0.855  10.278   2.278 -0.0029  0.0472 -0.1235
18127W        W34021  11.121  15.920   3.357 -0.0586 -0.2772  0.3740
18128W        W34022   3.914  14.961  12.493 -0.1949 -0.2295 -0.1951
18129W        W34023   6.878   3.768  11.097 -0.0084  0.1722 -0.2275
18130W        W34024  14.550  12.086   3.417  0.0899 -0.3092 -0.0534
18131W        W34025   2.791   9.522   0.660 -0.1466  0.1372  0.0782
18132W        W34026   6.666  17.928   4.134 -0.0128 -0.0883 -0.0423
18133W        W34027  16.345   2.703   4.471  0.2245 -0.0349 -0.0402
18134W        W34028   4.458   3.197  15.562  0.1193 -0.1111 -0.1143
18135W        W34029   3.404   8.506  13.973  0.1344  0.0280 -0.2123
18136W        W34030  11.469  13.129  14.464 -0.0071  0.3954 -0.2568
18137W        W34031   4.306  13.940   0.586 -0.3451 -0.1040  0.6982
18138W        W34032   1.950  15.741   3.235 -0.3274 -0.2538  0.0410
18139W        W34033  13.293   8.739  14.620  0.2044 -0.0166  0.1104
18140W        W34034  11.164  13.288   0.167 -0.1908  0.1089  0.0090
18141W        W34035  17.805   3.324   2.528  0.0157 -0.0766  0.1556
18142W        W34036   8.950  13.643   5.204  0.0523 -0.0778  0.1756
18143W        W34037  12.829   3.070   0.895  0.1063 -0.0915 -0.0933
18144W        W34038   8.403   6.209   3.403  0.1692  0.0135  0.1212
18145W        W34039  11.495  16.572   0.320  0.1317  0.1236  0.1682
18146W        W34040   8.134   8.140  13.027 -0.0234  0.0227  0.5228
18147W        W34041   9.691   0.300   3.445  0.2424  0.1018 -0.1625
18148W        W34042   5.629  14.462   1.662  0.0251 -0.0314 -0.2239
18149W        W34043  12.781   3.667  11.677 -0.0443  0.0619  0.0499
18150W        W34044   7.892  11.577  11.778 -0.1927  0.4040 -0.2288
18151W        W34045  17.247   6.309  11.282 -0.0064  0.0864 -0.3155
18152W        W34046   5.405   2.947   3.372 -0.4443 -0.0778  0.3025
18153W        W34047  16.357   3.198  10.962  0.1069 -0.3636 -0.3383
18154W        W34048   7.030  10.042  13.892  0.3126 -0.4863 -0.0303
18155W        W34049  12.308   1.885   3.736 -0.1619 -0.2080  0.0189
18156W        W34050  17.714  18.706  11.335 -0.0232 -0.4798  0.0931
18157W        W34051   7.349  11.519  11.178 -0.1960  0.0569  0.1813
18158W        W34052  14.437   0.488   1.555  0.0594 -0.0331  0.1785
18159W        W34053   3.760   0.498   2.245 -0.0393 -0.2206 -0.0306
18160W        W34054   8.930  17.452   1.815  0.2250  0.1172  0.0097
18161W        W34055   9.087  11.124  15.593 -0.2678 -0.1368 -0.0952
18162W        W34056  11.117   4.288   3.180 -0.0420 -0.1029  0.0922
18163W        W34057  14.304   4.970   2.047  0.0479  0.1982  0.2101
18164W        W34058  12.486  13.342  13.533 -0.3977 -0.0284  0.1437
18165W        W34059  11.695  16.265  11.859 -0.1269  0.1537  0.0191
18166W        W34060  13.932   6.036   2.424  0.2699 -0.1839  0.4185
18167W        W34061   6.435  16.783   0.142 -0.2289  0.0520  0.0368
18168W        W34062  16.518   7.232  12.631  0.0769 -0.1813  0.2559
18169W        W34063   9.480  15.689  13.456 -0.0942  0.0279 -0.1747
18170W        W34064   3.087   4.007   5.688 -0.0508 -0.1616  0.0105
18171W        W34065  16.222   8.935   4.560 -0.0026  0.0266  0.0621
18172W        W34066  17.194   3.276   0.421 -0.0369  0.0666  0.1952
18173W        W34067  18.330   4.714   9.886  0.0004  0.0170  0.3285
18174W        W34068   8.958   0.791  13.881 -0.0469 -0.1216  0.3618
18175W        W34069   8.125  11.949  11.140  0.3596  0.0793  0.0066
18176W        W34070   0.543  11.512   1.198 -0.0324 -0.2718 -0.0931
18177W        W34071   1.415   4.131  15.289 -0.5223  0.0223  0.0664
18178W        W34072   7.299   5.461   2.970  0.2132  0.1912  0.1065
18179W        W34073   6.427   8.233   2.862 -0.1102  0.0077 -0.0351
18180W        W34074   5.052   5.187  14.300  0.0799 -0.0531  0.1062
18181W        W34075  10.217   3.258  14.093 -0.0106 -0.0246 -0.1382
18182W        W34076  14.778  14.034  15.471  0.0931  0.2210 -0.0439
18183W        W34077  13.897   5.683  12.002 -0.0155  0.0518 -0.1105
18184W        W34078   9.181  12.416   0.043 -0.1002  0.0912  0.2167
18185W        W34079   9.572   9.551  11.982 -0.1983 -0.0621  0.0211
18186W        W34080   9.588   9.955   5.479 -0.2164  0.0435  0.1632
18187W        W34081  11.516  13.743  11.627 -0.0268  0.0506 -0.2578
18188W        W34082   2.084  10.106   1.852  0.1930  0.2995 -0.0073
18189W        W34083  11.796   6.941   2.340 -0.1225  0.1088  0.0786
18190W        W34084   5.316  14.981  13.227  0.1656 -0.1382  0.0083
18191W        W34085  13.632  17.456  11.645  0.0787  0.1015 -0.2877
18192W        W34086   1.485  10.701  12.790  0.1188 -0.1699 -0.2355
18193W        W34087  15.346   0.473  10.843  0.0767 -0.0089  0.0185
18194W        W34088  18.559   3.765   4.787  0.2922 -0.0208 -0.0681
18195W        W34089   7.045  11.629  14.608 -0.1585 -0.3008 -0.0131
18196W        W34090   6.636  10.208  14.769 -0.2724 -0.1994  0.1514
18197W        W34091  16.533  16.565   2.020  0.0672 -0.0597 -0.1415
18198W        W34092   4.679  13.190  15.016 -0.2652 -0.3484 -0.0910
18199W        W34093  10.876   4.501  11.238 -0.1444  0.1862 -0.0967
18200W        W34094   7.225   6.038  12.627  0.2685 -0.0855  0.0665
18201W        W34095  12.233  18.489   3.872 -0.0561  0.3304  0.1207
18202W        W34096  12.815   6.876  11.759  0.0109 -0.1165 -0.1106
18203W        W34097   9.421   3.955  11.903 -0.0676  0.0678  0.2168
18204W        W34098   1.039  12.788  10.685 -0.0871 -0.1155 -0.1395
18205W        W34099  14.365  14.141  11.127  0.0907  0.1234  0.1025
18206W        W34100  12.833  13.452   1.928  0.0486  0.4397 -0.0228
18207W        W34101   5.847  15.471   1.810  0.2718  0.2796 -0.1526
18208W        W34102   5.352  13.837  12.331 -0.0469  0.1788  0.1783
18209W        W34103  16.974   8.284   5.228  0.1020 -0.0561  0.3630
18210W        W34104   1.352   4.522  11.760  0.0779  0.1672  0.0657
18211W        W34105  15.238  12.539  11.453 -0.1740  0.1565  0.1941
18212W        W34106   8.592   5.333   5.356  0.3015 -0.0304 -0.1021
18213W        W34107   4.284   7.462   1.847 -0.0018 -0.0107  0.5214
18214W        W34108   8.669   3.015   0.598  0.0792 -0.0382  0.2619
18215W        W34109   9.423   5.187  13.457 -0.0255  0.1221 -0.1393
18216W        W34110  14.233  12.298   1.933  0.3531  0.0275  0.0855
18217W        W34111  10.356   7.135  12.427 -0.2098  0.1457  0.0127
18218W        W34112  16.401  16.162   1.168  0.0656  0.0491  0.1363
18219W        W34113   2.928  13.339  12.965 -0.2566  0.1183  0.3997
18220W        W34114   1.591   9.535  14.461 -0.1962  0.0645  0.0675
18221W        W34115  14.313   1.116   4.983 -0.1901 -0.1001  0.1235
18222W        W34116  11.387   9.856  14.031 -0.2309  0.0276 -0.1022
18223W        W34117   5.780   4.441  11.427 -0.0596  0.0992  0.0510
18224W        W34118   3.779  18.071   5.569  0.0415 -0.1999 -0.0561
18225W        W34119   9.547  12.868  13.449 -0.1419 -0.0103  0.0937
18226W        W34120   5.478   4.543  13.122  0.0959  0.2254 -0.0645
18227W        W34121   4.528   6.051   2.736  0.0743  0.1771 -0.1273
18228W        W34122  11.905  10.852   4.270 -0.1387  0.0111  0.2421
18229W        W34123  16.577  17.879  10.182 -0.0785 -0.0271 -0.3708
18230W        W34124  15.718   8.721   5.639 -0.0948  0.1059  0.2553
18231W        W34125   2.592   8.648  15.161  0.0724 -0.0130  0.2834
18232W        W34126  16.140   4.538   4.829  0.0098 -0.0674  0.1558
18233W        W34127   4.513  14.981  12.699  0.2756 -0.1679 -0.1620
18234W        W34128  17.628   1.288   4.178  0.0206  0.1851 -0.0185
18235W        W34129  12.780   5.080   4.399 -0.0538 -0.0587  0.0965
18236W        W34130   3.584   5.202  14.230 -0.7088  0.0518  0.0030
18237W        W34131   2.931  16.277   3.977 -0.0555  0.2455  0.0319
18238W        W34132  14.221   5.174   5.446 -0.2278  0.0508  0.2296
18239W        W34133  12.480   2.797  12.025  0.1343  0.1505  0.1909
18240W        W34134  16.612   4.469   0.798  0.0380 -0.0248  0.0149
18241W        W34135   7.333   0.068   2.088  0.0115  0.3851 -0.1004
18242W        W34136  11.234  15.938   1.615  0.6413  0.0738 -0.0851
18243W        W34137  11.846  18.191  10.967  0.0467 -0.2562  0.0631
18244W        W34138   6.422  12.511  11.924  0.0801 -0.0083  0.0523
18245W        W34139   7.400   1.408   5.161 -0.3319  0.0232  0.0672
18246W        W34140   9.726  12.741  12.987 -0.0490 -0.1798  0.1487
18247W        W34141  10.133  16.875   2.157 -0.2846  0.2009 -0.1321
18248W        W34142   0.139  10.337   4.878  0.0223 -0.1830  0.1583
18249W        W34143  15.357   2.992   3.723  0.1148 -0.2272  0.1458
18250W        W34144  18.073  18.545   0.208 -0.1131 -0.1033 -0.3272
18251W        W34145  10.935  13.417   3.374 -0.0621 -0.2693  0.3691
18252W        W34146  14.686   3.056   2.821 -0.0279 -0.0354  0.2768
18253W        W34147   7.123  15.852   9.379 -0.3855 -0.2323  0.2574
18254W        W34148   9.684   6.521   3.777 -0.0956  0.0947  0.0515
18255W        W34149   9.517   0.670   1.296  0.3537  0.0485  0.1114
18256W        W34150   9.106   7.345  10.487  0.0443 -0.3502 -0.4149
18257W        W34151   9.587  13.901  13.561 -0.1324 -0.0559 -0.4086
18258W        W34152   5.581  13.149  14.663 -0.0106  0.0434 -0.0675
18259W        W34153   9.383  18.525   4.759 -0.0017 -0.1542  0.2729
18260W        W34154   1.271   6.146   3.591 -0.2548 -0.1501 -0.0392
18261W        W34155  17.201   4.010  15.415 -0.0759  0.1047 -0.2237
18262W        W34156   6.090   2.795  11.150  0.0013 -0.1262  0.0008
18263W        W34157  18.510   0.705   0.046 -0.0452  0.2931 -0.2914
18264W        W34158   5.765   8.620  13.028  0.5038 -0.1022  0.3082
18265W        W34159   1.658  18.360  12.678  0.0252  0.1618  0.2558
18266W        W34160   2.794  13.578  10.496 -0.0939  0.0875  0.2784
18267W        W34161   7.387  16.224   4.313 -0.1392  0.2674 -0.0454
18268W        W34162   6.280   8.711  11.539 -0.0732 -0.4870  0.1016
18269W        W34163   5.406   6.802  13.311 -0.0594  0.0003 -0.0273
18270W        W34164   2.566   5.521  12.903 -0.0309  0.0372 -0.2310
18271W        W34165   6.770  13.919   4.879 -0.0751  0.1081 -0.2945
18272W        W34166   4.356   0.407  13.008 -0.0008 -0.0305  0.0864
18273W        W34167  18.588   0.129  15.295  0.0560  0.2130  0.0914
18274W        W34168  13.162   2.254   0.605  0.1798  0.2424 -0.1636
18275W        W34169   2.439  18.508  14.305 -0.2907  0.0478 -0.0046
18276W        W34170   5.120  18.053   2.689 -0.2819  0.0004 -0.0243
18277W        W34171  16.818  16.018   0.379 -0.0918  0.0240 -0.0024
18278W        W34172  10.776  10.943   5.292  0.0550 -0.1876 -0.0301
18279W        W34173   4.995  10.646  12.954 -0.0757 -0.2536 -0.0039
18280W        W34174  15.798   7.711   1.457  0.0735 -0.1665 -0.0418
18281W        W34175  16.834   8.929   5.196 -0.2126 -0.1665 -0.0396
18282W        W34176  16.315   4.951   4.564 -0.0237 -0.0300  0.3534
18283W        W34177  12.435  17.272   4.595  0.3230  0.3962 -0.2773
18284W        W34178   5.707  16.073  10.959  0.0981  0.1731 -0.3942
18285W        W34179   9.617   7.441  11.202  0.1676  0.1198 -0.1282
18286W        W34180   5.456  17.906  11.220  0.1884  0.1138 -0.0213
18287W        W34181   9.128  17.743  11.449  0.3350 -0.0825 -0.2931
18288W        W34182  11.033  10.486  12.444  0.2038  0.1769 -0.0257
18289W        W34183  17.284   7.778  14.937 -0.0600  0.1812 -0.0077
18290W        W34184  11.568   0.799   4.916  0.0395 -0.0257 -0.2176
18291W        W34185   5.173  10.326   4.744  0.1803 -0.2690  0.2019
18292W        W34186  16.511   8.032   2.789 -0.3262 -0.3255  0.0671
18293W        W34187   6.194   3.352  11.033 -0.0616 -0.0823 -0.2373
18294W        W34188  11.435  14.197   3.107 -0.2109 -0.2422  0.0448
18295W        W34189  10.147   6.752   4.573 -0.0217 -0.3625  0.1654
18296W        W34190   1.645   3.670   0.711 -0.0638 -0.0741  0.1352
18297W        W34191  15.664  10.680  15.047 -0.0066 -0.1802 -0.1791
18298W        W34192  18.113  16.684   2.428 -0.1161 -0.0868 -0.2454
18299W        W34193   7.831   9.284   0.653  0.1073 -0.2451 -0.1292
18300W        W34194   4.071   4.671   3.497 -0.1891  0.1118 -0.1455
18301W        W34195   7.660   1.985   2.496 -0.3211 -0.0344  0.0954
18302W        W34196   5.730   2.750  10.760  0.0341 -0.1306 -0.2166
18303W        W34197   1.349   2.724   5.007  0.3612  0.1679 -0.0149
18304W        W34198   0.465  13.308   1.693  0.0443  0.0576 -0.3760
18305W        W34199   4.545   4.383  14.187  0.3057  0.2095  0.0244
18306W        W34200  13.893   6.224   0.680  0.0026 -0.0483 -0.1477
18307W        W34201   6.170  11.282  14.589  0.0431  0.2534  0.2842
18308W        W34202   7.490   3.922   4.325 -0.3502  0.1600 -0.2900
18309W        W34203   6.824  17.343   0.920 -0.1830  0.0285  0.0104
18310W        W34204  17.522  15.464  15.490 -0.1458 -0.0703  0.1503
18311W        W34205  15.792   7.723   2.531 -0.2212  0.0603  0.0770
18312W        W34206  10.333  17.658  14.143 -0.0721 -0.0880  0.3106
18313W        W34207  17.667  12.650   2.307 -0.0452  0.3837  0.2139
18314W        W34208  14.526   8.769   5.631  0.0226  0.1444  0.1357
18315W        W34209   3.412   7.571  12.751  0.3246 -0.0189  0.0755
18316W        W34210   9.761   9.148  14.529 -0.0555 -0.1047 -0.0486
18317W        W34211   0.819   1.826   2.079 -0.2014 -0.1689 -0.0825
18318W        W34212  18.576  13.176   4.253 -0.1639  0.3369 -0.2509
18319W        W34213   7.538   9.460   2.421 -0.2286 -0.2224  0.0057
18320W        W34214   0.660  12.713   2.284 -0.0038  0.1304  0.0283
18321W        W34215   1.403  13.916  10.958 -0.3343 -0.0296 -0.0267
18322W        W34216   4.679   6.342  15.031  0.0472 -0.0477 -0.2026
18323W        W34217   7.536   0.154  10.687 -0.0144 -0.0897  0.1383
18324W        W34218   3.230   8.472   1.470 -0.0711  0.1431 -0.1788
18325W        W34219   6.630   6.414  10.308  0.0435 -0.1631 -0.1883
18326W        W34220  14.347   1.575  15.201  0.2604 -0.1666 -0.4163
18327W        W34221   0.480  18.554   1.129 -0.1013 -0.1131  0.0782
18328W        W34222   3.917   8.363   1.274 -0.2678 -0.3608 -0.3928
18329W        W34223  15.634   4.353   2.193  0.0587  0.1730  0.0312
18330W        W34224  17.170   6.663   5.747 -0.2204 -0.2798 -0.1115
18331W        W34225   2.349   7.788   1.880 -0.0675 -0.0395  0.0259
18332W        W34226   2.118   9.367  12.897 -0.0116  0.2301 -0.1695
18333W        W34227  12.153   9.859  15.358 -0.3094  0.0601 -0.2428
18334W        W34228  11.585   3.613   0.907 -0.1392  0.2356 -0.0270
18335W        W34229  14.967  13.282   3.231 -0.0571 -0.1697  0.0915
18336W        W34230  15.075   8.421   3.818  0.2982  0.0707 -0.1214
18337W        W34231  18.178  16.314   5.132  0.2187 -0.0224 -0.1638
18338W        W34232  15.680  12.356   6.281 -0.1441 -0.3366 -0.0145
18339W        W34233  10.247  14.954   3.570  0.1516 -0.0688  0.0226
18340W        W34234  14.212   7.542   3.734 -0.2473 -0.1635 -0.1538
18341W        W34235   5.966   6.411   4.234  0.2054  0.0697 -0.2103
18342W        W34236   6.110  12.741  14.719 -0.0630  0.0729  0.0276
18343W        W34237   7.376   4.555  15.565 -0.0327 -0.1283  0.1974
18344W        W34238   1.734   6.848   1.285  0.1903 -0.4319  0.1358
18345W        W34239   1.085  14.882  13.251  0.0272  0.0046 -0.2291
18346W        W34240   5.619   5.188   0.436 -0.1649  0.1463 -0.0136
18347W        W34241  12.696  15.138  15.284  0.0276 -0.0980 -0.1791
18348W        W34242  18.033   2.239   2.170  0.1265  0.0094 -0.2817
18349W        W34243  15.812  18.567  15.139 -0.0466  0.1296 -0.1890
18350W        W34244   5.377  10.353  12.905 -0.2925  0.2996  0.2769
18351W        W34245  14.602   4.541   1.900 -0.0895 -0.1433  0.1926
18352W        W34246   8.432  10.406   2.172 -0.1504 -0.2036  0.1268
18353W        W34247  16.227   0.817   1.475 -0.0397  0.1048 -0.1576
18354W        W34248  12.562  17.507   0.727  0.1067 -0.0339  0.1105
18355W        W34249   1.594   6.270  12.398  0.2570  0.0774 -0.0092
18356W        W34250  13.721   7.403   1.677  0.2407 -0.1014 -0.0668
18357W        W34251   6.807  14.086   3.202 -0.0769 -0.0465 -0.0948
18358W        W34252  12.074   1.929   2.288 -0.1363  0.1186 -0.1949
18359W        W34253   0.968  10.081  13.932 -0.1735 -0.0583  0.0993
18360W        W34254   2.818   5.427   1.644 -0.1732  0.2718  0.1684
18361W        W34255   9.374   3.982   2.554 -0.1382  0.1219 -0.1628
18362W        W34256  15.322   0.722   5.930 -0.1432  0.3212 -0.3076
18363W        W34257   3.526   9.296  15.025  0.0145  0.4406  0.0340
18364W        W34258   2.915   7.007  14.648 -0.0042 -0.0846 -0.1739
18365W        W34259  10.598   5.456  11.185 -0.1565  0.1112 -0.0180
18366W        W34260  17.066   0.762  14.494  0.1447  0.0408  0.1200
18367W        W34261  10.877   3.119  12.743 -0.0575 -0.0059 -0.1292
18368W        W34262  10.892  11.437  12.639  0.0120  0.2176 -0.0084
18369W        W34263  16.989   1.610   3.370 -0.0070  0.5133 -0.0439
18370W        W34264  15.521   8.376  10.982  0.3425  0.2055 -0.0100
18371W        W34265   1.981  10.187  15.382 -0.0903 -0.4275 -0.4637
18372W        W34266  17.714  18.623   0.876 -0.3425 -0.1564  0.0405
18373W        W34267   6.791  17.875  13.734 -0.2625 -0.0695 -0.3416
18374W        W34268  16.498   9.266  14.861  0.1474 -0.0483 -0.4883
18375W        W34269  17.260  11.386  11.463 -0.1409  0.1807  0.1050
18376W        W34270  14.046  15.731   3.531 -0.2829 -0.0626  0.1028
18377W        W34271  11.102   4.514  14.688  0.3710 -0.1440 -0.0888
18378W        W34272  16.537  13.149   4.802 -0.0981 -0.0716 -0.1004
18379W        W34273  11.615   0.095   1.203  0.2054 -0.2871 -0.3367
18380W        W34274   5.744   0.100   3.421 -0.1456  0.0663  0.0278
18381W        W34275   4.038  17.722  13.712  0.0465 -0.3029  0.0953
18382W        W34276  11.246   3.328   5.431  0.1139  0.0342 -0.1153
18383W        W34277  11.388  13.030   2.279  0.0013  0.2487  0.1231
18384W        W34278  17.985  14.530   3.733  0.0672 -0.0994  0.2344
18385W        W34279   4.204   1.732  12.537 -0.1289 -0.0883  0.1059
18386W        W34280  13.723   1.658  10.760 -0.0016  0.0125  0.2835
18387W        W34281   5.478   3.286   4.207 -0.1331  0.0415  0.1858
18388W        W34282   6.179  18.288   3.197  0.1540 -0.1386 -0.0389
18389W        W34283   6.522   6.362   3.814  0.1685  0.2158  0.1496
18390W        W34284  16.538  17.128  15.071 -0.1117  0.0794 -0.3908
18391W        W34285  13.791  11.765   4.986  0.1750  0.0266  0.0185
18392W        W34286  10.300  13.223  15.522 -0.1869  0.1220  0.0206
18393W        W34287   6.914  10.511  12.852  0.1541  0.0948  0.1103
18394W        W34288   2.745   8.421  14.216  0.1599 -0.0219  0.2030
18395W        W34289   8.455   6.242  11.817  0.2860 -0.2450 -0.1251
18396W        W34290   4.337   2.755  15.338  0.0793  0.0222  0.0730
18397W        W34291  14.273  18.336  13.419  0.0598  0.1194  0.2992
18398W        W34292   3.558  16.471   1.070 -0.2120 -0.0142 -0.0083
18399W        W34293   0.315   6.290   4.048 -0.0817 -0.0788  0.0017
18400W        W34294  12.949   0.507   0.976 -0.0501  0.1250 -0.1924
18401W        W34295   5.827   2.110  11.982  0.2162  0.0474  0.1760
18402W        W34296   3.029   3.929   0.297 -0.0016  0.0119 -0.1390
18403W        W34297  14.213   3.460  15.623  0.2222  0.1901  0.1628
18404W        W34298   6.688   7.347  12.292  0.1644 -0.1742  0.3598
18405W        W34299   8.156  10.501   1.759  0.0615  0.2491  0.1844
18406W        W34300   2.459  12.088  11.283 -0.1532  0.0811 -0.4760
18407W        W34301   8.103  15.362  15.321  0.3471  0.0435  0.1575
18408W        W34302  12.321   7.450   0.504  0.1423 -0.0759 -0.1048
18409W        W34303   1.280  15.891  12.939 -0.1567  0.2483  0.1356
18410W        W34304  17.873   2.854   4.626  0.0948  0.1397  0.1143
18411W        W34305   2.976   9.280   3.264  0.1201 -0.2047 -0.1394
18412W        W34306   5.606   8.499  11.459  0.0060  0.0821 -0.1444
18413W        W34307   8.529   8.983   0.449 -0.0079  0.0088  0.2608
18414W        W34308  10.027  10.702   0.813 -0.2724  0.1784  0.0242
18415W        W34309  15.708  15.144   1.496 -0.1732  0.2142 -0.4226
18416W        W34310   7.366   1.117  12.973  0.2724  0.1765  0.0072
18417W        W34311   8.436  18.557  12.563 -0.0474  0.1793  0.1515
18418W        W34312   4.626  18.113   0.438 -0.0552 -0.2133 -0.2211
18419W        W34313  13.487  13.285  11.351  0.0430 -0.0468 -0.0317
18420W        W34314   7.795  13.609   3.905 -0.0147 -0.0636  0.0476
18421W        W34315   2.334   1.258  10.326  0.2625 -0.2379 -0.3283
18422W        W34316   5.801   2.513  12.303  0.1641  0.2484  0.1940
18423W        W34317  16.387  10.713   4.937 -0.2143  0.0692 -0.0255
18424W        W34318   2.853   7.464  14.357 -0.0849  0.1595  0.2146
18425W        W34319  14.051   9.803   5.272  0.0043 -0.3666 -0.4331
18426W        W34320   0.449   5.877   4.470  0.1100  0.0607 -0.1232
18427W        W34321  10.534  15.212  14.781 -0.0951  0.0596 -0.2530
18428W        W34322   2.423  13.862   3.583 -0.1353  0.1471 -0.1486
18429W        W34323  13.208   3.534   0.826  0.1243 -0.2442  0.1697
18430W        W34324  13.004   0.500  13.114  0.2834  0.2069 -0.0794
18431W        W34325  16.877  15.225   3.768 -0.2778  0.1345  0.0925
18432W        W34326   1.748  15.525   3.664  0.2414 -0.4992  0.2517
18433W        W34327   3.613  15.780  12.671 -0.0420  0.2009  0.0443
18434W        W34328  11.213  15.635  10.953 -0.2470  0.0227 -0.1438
18435W        W34329   6.780   3.434  15.159  0.1227  0.2070  0.0334
18436W        W34330  15.131   2.823   4.686  0.0705 -0.1793 -0.1007
18437W        W34331   1.546   5.564  14.490 -0.3157  0.1172  0.3105
18438W        W34332   8.728  14.727   1.093 -0.0987  0.3521 -0.2546
18439W        W34333  14.255   0.914   0.203  0.0439 -0.1629 -0.1014
18440W        W34334   7.597   5.959   1.426 -0.1351  0.0860 -0.0474
18441W        W34335  15.576  17.922  14.807  0.0822 -0.0012 -0.1268
18442W        W34336  17.850  16.277  12.955 -0.0572 -0.1809 -0.0661
18443W        W34337   9.355   2.841  12.781 -0.3530 -0.1144 -0.0832
18444W        W34338   6.854  13.934  13.127 -0.5699 -0.0708  0.0840
18445W        W34339   6.666  13.960  12.197 -0.1031  0.1125  0.1858
18446W        W34340   4.918   6.085   2.467 -0.0066  0.1203 -0.1901
18447W        W34341  11.746   1.502   2.514  0.0344  0.0694  0.1932
18448W        W34342  15.482  16.542  12.455  0.0185  0.0808 -0.2084
18449W        W34343   6.903  16.835   0.769 -0.1241  0.5029 -0.2361
18450W        W34344   4.239  14.176  15.108 -0.0269 -0.0832  0.1720
18451W        W34345   3.618   2.727  14.367  0.3096 -0.1158  0.4917
18452W        W34346  18.145   5.160  14.439  0.3324  0.1195 -0.1976
18453W        W34347   8.649  18.371   0.494 -0.1550 -0.1625 -0.1094
18454W        W34348  10.816   9.427  13.139 -0.1017  0.1076 -0.1618
18455W        W34349  15.136   5.419   3.116  0.0759  0.1272  0.1457
18456W        W34350  12.542   4.471  14.219  0.2322  0.0941 -0.1040
18457W        W34351   0.767   3.184   0.711  0.1109  0.1104  0.0796
18458W        W34352  10.182   2.202  11.430  0.3345 -0.0232 -0.3002
18459W        W34353  11.557  11.950   0.016 -0.0001 -0.3386 -0.0860
18460W        W34354   0.928   3.209  11.009  0.0669 -0.0513  0.0075
18461W        W34355   5.436   5.469   2.374  0.2322 -0.2760 -0.0043
18462W        W34356   7.332  17.850  10.536 -0.0073 -0.1964  0.0912
18463W        W34357   8.597   7.949   2.474 -0.1444 -0.1365 -0.0938
18464W        W34358   7.336  17.864   3.251 -0.2841  0.2447 -0.0550
18465W        W34359   7.403  17.206   1.593  0.3210  0.3850 -0.1749
18466W        W34360  17.230  11.337   1.862  0.0438  0.0936  0.0933
18467W        W34361   3.969  17.839  10.683  0.0976 -0.1357  0.1554
18468W        W34362   5.561   3.810   3.977 -0.0705  0.0230 -0.2791
18469W        W34363   5.698  11.358  15.095  0.0696  0.2687  0.0343
18470W        W34364   5.021  18.460   3.051  0.1825  0.1368 -0.1262
18471W        W34365  13.403   3.343  14.054  0.1283  0.1275 -0.2044
18472W        W34366  16.804   6.579   2.810 -0.1792  0.0665 -0.2472
18473W        W34367  17.395  15.175  11.136 -0.2830 -0.0482  0.0701
18474W        W34368  10.119   5.774  11.554 -0.0560 -0.2521  0.0585
18475W        W34369  15.849   4.232  11.776 -0.0140  0.0210  0.0527
18476W        W34370  17.536   8.895   1.286 -0.5962  0.3092 -0.0844
18477W        W34371  10.046   0.967   4.454  0.1350  0.1890  0.0627
18478W        W34372   9.456   5.945  12.681  0.0318  0.0085 -0.0171
18479W        W34373  13.194   9.729   2.356 -0.0067 -0.1783  0.1162
18480W        W34374   3.540  13.743   5.096 -0.1337 -0.0299 -0.2437
18481W        W34375  15.587  11.098  11.701  0.2529 -0.0176  0.1748
18482W        W34376   9.440   3.757   3.663  0.4837 -0.2481  0.1215
18483W        W34377  14.660  12.802   4.351 -0.2620 -0.0071  0.0163
18484W        W34378   4.880  18.200  12.909 -0.4508  0.1443 -0.0559
18485W        W34379   3.528   1.179  12.948 -0.2302 -0.0719  0.0390
18486W        W34380   8.999  11.425  12.607 -0.3303 -0.1140  0.0480
18487W        W34381  14.670   4.748  10.246 -0.0255  0.2160 -0.2519
18488W        W34382  10.223   3.458   1.749 -0.1668  0.3360  0.0555
18489W        W34383  13.826   3.642  13.795 -0.1660  0.2491 -0.0960
18490W        W34384  10.912   0.592   0.770 -0.0234 -0.0494 -0.1437
18491W        W34385   4.953   8.193   2.718 -0.3024  0.3335  0.2039
18492W        W34386  16.418  17.490  11.724 -0.0078  0.4288  0.1412
18493W        W34387   4.598   1.532   0.321  0.3347  0.1902  0.0477
18494W        W34388  12.809  14.590  15.596 -0.4594  0.0311 -0.0379
18495W        W34389   5.767   0.554  12.070  0.1693 -0.0178 -0.0383
18496W        W34390   9.411   7.704   5.472 -0.2180  0.0954 -0.0282
18497W        W34391   6.470   3.882   4.005 -0.0030  0.3371  0.3413
18498W        W34392   8.440   7.231   3.746 -0.3886 -0.0359  0.0856
18499W        W34393   5.605  14.346   2.467  0.1104 -0.1114 -0.1460
18500W        W34394   2.639   7.833  11.098 -0.1622 -0.0055 -0.0818
18501W        W34395   9.567  18.473  15.623 -0.0593  0.0751 -0.0926
18502W        W34396   2.973  11.537  14.649  0.0153 -0.1886  0.2232
18503W        W34397  18.651   8.425   1.756 -0.1689  0.1853 -0.0496
18504W        W34398   3.894  11.595  11.604 -0.0807  0.0987 -0.0491
18505W        W34399   5.731   6.302  15.069 -0.0762  0.1522 -0.3286
18506W        W34400  14.408   0.784  12.163 -0.1272 -0.2445  0.4455
18507W        W34401   9.877  12.256   2.714 -0.5139  0.0236  0.0165
18508W        W34402   3.973  13.525  11.531 -0.2454 -0.1118  0.0105
18509W        W34403   4.406   9.034  12.775  0.1025  0.2621 -0.4215
18510W        W34404  13.699  11.709  15.139  0.1137  0.1515  0.3112
18511W        W34405   2.120   6.330  12.316 -0.0318 -0.1751 -0.3560
18512W        W34406  13.607  15.427   4.436  0.1264 -0.1329 -0.2429
18513W        W34407   4.042   4.892  11.666 -0.0931 -0.1990  0.2348
18514W        W34408   9.874  13.186   4.709 -0.1707  0.4490  0.1572
18515W        W34409   0.913   9.527  15.048  0.1409  0.1985  0.1472
18516W        W34410  13.213  16.233   4.010  0.0172 -0.0661 -0.1612
18517W        W34411   8.570   9.261  12.403  0.0922  0.0858 -0.0715
18518W        W34412  12.882  18.473  14.820 -0.1589  0.1418 -0.1419
18519W        W34413  15.082   8.944   2.156 -0.2179 -0.1461  0.2432
18520W        W34414   7.020   6.873  11.222  0.2272  0.1938  0.0161
18521W        W34415  16.885  15.869  11.826 -0.0931  0.1627 -0.1097
18522W        W34416   9.477  10.382   4.000  0.1459 -0.0727 -0.0123
18523W        W34417   1.782   8.353  11.825 -0.4753 -0.0083 -0.1865
18524W        W34418   9.290  13.325   1.375 -0.1212  0.2959 -0.4169
18525W        W34419   1.207   0.427   3.267  0.0635 -0.0122  0.3685
18526W        W34420   7.112   4.669   3.778  0.0612 -0.0374  0.0279
18527W        W34421   3.922   9.519   1.987 -0.0174 -0.6021  0.4022
18528W        W34422   9.208   6.997   5.878  0.1050  0.0618 -0.0126
18529W        W34423  18.016  15.599  11.642  0.0395  0.0620 -0.1035
18530W        W34424   8.721   0.690   4.797 -0.0552 -0.1314 -0.2869
18531W        W34425  13.832  13.967   4.242  0.2880 -0.1449  0.3115
18532W        W34426   0.182  16.732  15.335  0.2144 -0.0497  0.0635
18533W        W34427   5.458   2.516  11.928  0.0448 -0.5994 -0.1613
18534W        W34428  18.216   1.815   4.019 -0.0904 -0.1852  0.2593
18535W        W34429   3.327   0.943   2.557 -0.1022  0.1556  0.0761
18536W        W34430   7.881  10.265   1.169 -0.0910 -0.0292 -0.2886
18537W        W34431   6.964   5.182   3.159  0.4127 -0.1417  0.0360
18538W        W34432  17.747  11.320  13.689  0.1036 -0.0493 -0.3951
18539W        W34433  14.715  18.365   1.640 -0.3712  0.1305 -0.2579
18540W        W34434  18.667   9.662   5.112  0.0907 -0.4660 -0.2185
18541W        W34435   8.454  15.000   1.585 -0.2211  0.0852 -0.1600
18542W        W34436   4.346   4.770  12.861 -0.0217 -0.1522  0.1362
18543W        W34437   0.502   3.220   2.534 -0.0387 -0.0556 -0.4025
18544W        W34438  18.529   8.789   0.161  0.2471 -0.2647 -0.1031
18545W        W34439  12.212   2.541   6.055  0.2255  0.0595  0.3493
18546W        W34440  12.881   9.799  13.742 -0.3759  0.0565  0.0055
18547W        W34441   6.682  14.558  11.516 -0.3096  0.2275  0.0386
18548W        W34442   1.855  12.085  13.778  0.1715  0.0157  0.1086
18549W        W34443  18.484  16.019  10.758 -0.1861  0.0576 -0.3526
18550W        W34444   6.737  12.184  10.739 -0.0686 -0.0560 -0.0704
18551W        W34445   7.394  15.071  12.675  0.1998 -0.1636  0.3732
18552W        W34446   4.601  11.026  11.425  0.1918  0.2653  0.1924
18553W        W34447   2.964   4.232  15.374 -0.2976  0.1954  0.0148
18554W        W34448   7.549   7.195   5.626  0.0818 -0.0559  0.0089
18555W        W34449  13.860   2.510  10.924 -0.0944  0.1208 -0.0766
18556W        W34450   5.201  13.436   2.592  0.1388 -0.0181 -0.1505
18557W        W34451   4.825   4.184  11.551 -0.2180 -0.0814  0.0836
18558W        W34452  10.016  18.140   9.559 -0.1644 -0.2660  0.0083
18559W        W34453   3.005   8.089   2.758 -0.3341 -0.1971 -0.0686
18560W        W34454  17.505  16.337  11.580 -0.0888  0.1654 -0.1295
18561W        W34455   1.353   9.004   3.409  0.2326  0.0305  0.0306
18562W        W34456  15.489  18.066   2.607  0.3632  0.3339 -0.1622
18563W        W34457  10.442   1.220   3.700  0.1153 -0.1702  0.1588
18564W        W34458  15.515   6.647   6.039  0.0425 -0.4152 -0.2193
18565W        W34459  12.361   4.157   4.719  0.2401 -0.1134 -0.0823
18566W        W34460   8.524   0.764  11.277  0.2038  0.2059 -0.3806
18567W        W34461  15.348  18.547  12.815 -0.1315  0.0380  0.1899
18568W        W34462   6.186  12.144  14.732  0.0563 -0.3521  0.3156
18569W        W34463  16.200  15.712   1.830 -0.1913  0.3282 -0.1063
18570W        W34464  10.497  15.542  11.958 -0.2036  0.3443 -0.0389
18571W        W34465   0.617  16.754  14.935  0.0720  0.0370  0.1840
18572W        W34466   2.082  17.717   1.368  0.0172  0.2097  0.0670
18573W        W34467  15.102   9.838  11.112  0.1125 -0.0565 -0.3080
18574W        W34468   2.578   7.991  13.165 -0.2612  0.0264 -0.0107
18575W        W34469  16.926  10.991   5.696 -0.2022 -0.1718 -0.0939
18576W        W34470  15.473  17.004  12.277 -0.4004  0.3286  0.0433
18577W        W34471   3.782  18.405  12.543 -0.0769  0.1913 -0.1547
18578W        W34472  12.668   7.715  13.631  0.1505  0.1397  0.1936
18579W        W34473  14.517  12.330   2.570  0.1149  0.2085 -0.1085
18580W        W34474   3.877  12.135   4.950  0.0835 -0.1559  0.2183
18581W        W34475   6.711   7.039  10.849 -0.0696 -0.0223 -0.0521
18582W        W34476   6.472   5.048  14.414 -0.2176 -0.3976  0.1967
18583W        W34477   7.596   6.311  12.087 -0.1462 -0.1144  0.0483
18584W        W34478  13.631  17.349   4.021  0.0330 -0.0096  0.2604
18585W        W34479  15.216  17.532   1.844 -0.3443  0.2750  0.2198
18586W        W34480   7.929   3.632  11.179  0.1282 -0.1036  0.0748
18587W        W34481   6.329  11.822  14.408  0.0082 -0.0842  0.2135
18588W        W34482  13.259   8.098   4.824 -0.1484  0.0816 -0.0196
18589W        W34483  17.654   2.599  12.711 -0.1596 -0.0065 -0.0550
18590W        W34484   3.173   9.815  15.138  0.0696  0.2101  0.2771
18591W        W34485   8.517  11.815  12.972  0.0746 -0.1612 -0.2148
18592W        W34486   8.545   9.355  15.391 -0.0044 -0.1099  0.1424
18593W        W34487   3.569   9.040  13.266  0.2074  0.1896  0.1415
18594W        W34488  11.792  15.608   5.481 -0.0411 -0.2352  0.0476
18595W        W34489   0.024   4.593  13.074 -0.0388  0.0172  0.0952
18596W        W34490   8.463   8.296   1.010  0.1101 -0.1608 -0.4444
18597W        W34491  18.066  17.493  13.330  0.1748  0.0658  0.2490
18598W        W34492   8.485  10.250  13.759  0.0709  0.4114  0.2137
18599W        W34493  18.398  12.789   0.204 -0.0583 -0.0065 -0.3276
18600W        W34494   9.618  14.918  12.997  0.0442 -0.0971 -0.0806
18601W        W34495   7.981  17.517   0.621 -0.2413 -0.0986  0.1063
18602W        W34496  15.013   2.918  10.869 -0.2843 -0.2574 -0.0958
18603W        W34497   5.145  17.961  14.911 -0.1140  0.1337  0.0800
18604W        W34498  18.397  10.730   1.112  0.1011  0.0707 -0.0636
18605W        W34499  13.072  11.273  10.643  0.0053  0.3290  0.1392
18606W        W34500  13.643  17.339  12.188  0.0433  0.2889 -0.2626
18607W        W34501   3.577   6.489  11.809 -0.1588 -0.0357  0.2574
18608W        W34502  15.452  14.917  11.672  0.1693 -0.1140  0.1599
18609W        W34503   4.155   8.368  11.526 -0.0066 -0.1055  0.2199
18610W        W34504   2.018  11.831  15.604 -0.1439 -0.0034 -0.0621
18611W        W34505   1.280   2.674  12.625  0.2079  0.2623 -0.0197
18612W        W34506   9.705   2.161   3.090 -0.1676  0.4069  0.0318
18613W        W34507   9.086  12.192   4.061  0.3800  0.0811 -0.2815
18614W        W34508   2.384   6.081  12.713 -0.1790  0.0923 -0.1003
18615W        W34509  10.904   2.972   5.622 -0.2532 -0.2764 -0.2348
18616W        W34510  16.431   8.737  13.440 -0.0623  0.0537 -0.0045
18617W        W34511  11.929  16.885   1.139  0.4791  0.0439 -0.0314
18618W        W34512   1.137   7.519  12.985  0.0986  0.2636 -0.2056
18619W        W34513   7.946   0.417  13.991 -0.2873 -0.0445  0.2094
18620W        W34514  10.261  10.608   5.183 -0.3726  0.2973 -0.0124
18621W        W34515   0.307  13.355   4.412  0.1076 -0.2653  0.0483
18622W        W34516  10.103   6.549  15.112  0.1515  0.2203  0.0587
18623W        W34517  16.880  18.417   4.033  0.0263 -0.1960 -0.0197
18624W        W34518   3.684   1.854   2.892 -0.1256  0.1224 -0.0844
18625W        W34519  18.009   9.931   1.568  0.0698 -0.0622 -0.0432
18626W        W34520  16.648   3.238  11.484  0.3340  0.0306 -0.0404
18627W        W34521  18.363  14.280   1.447 -0.1736 -0.1915  0.0813
18628W        W34522  18.758  17.787  13.793  0.2385 -0.0495 -0.0009
18629W        W34523   2.814  12.701   1.723 -0.2688  0.0963 -0.1219
18630W        W34524  17.809  14.431   4.262  0.0299  0.1358 -0.0625
18631W        W34525  16.064  10.961   4.038 -0.2938 -0.2886  0.0563
18632W        W34526  10.238   2.492  14.549 -0.1911 -0.1243 -0.1055
18633W        W34527   6.826  11.913   4.638 -0.0194  0.1110 -0.2909
18634W        W34528  13.989   4.980  13.927  0.1342  0.1688  0.2153
18635W        W34529   8.351  12.491   4.916 -0.0264 -0.3311  0.1094
18636W        W34530   3.714   8.065   0.917 -0.1600  0.0808 -0.0370
18637W        W34531  18.626   8.018  13.706  0.0072 -0.0357 -0.4507
18638W        W34532   3.641   7.803   1.340  0.1269 -0.3263 -0.0070
18639W        W34533  11.867  15.210   0.695  0.0381 -0.0485  0.4485
18640W        W34534  10.013   0.890  10.670  0.1322  0.1426 -0.0366
18641W        W34535   4.187   7.828   2.213 -0.1240  0.0024  0.0755
18642W        W34536   0.670   8.252  12.764 -0.0302 -0.2702 -0.0092
18643W        W34537  14.979   2.331   0.949 -0.2420  0.0708 -0.2187
18644W        W34538  14.633  15.256  13.555 -0.0062  0.0120  0.3147
18645W        W34539   3.268  12.755  11.218 -0.1126 -0.1412  0.0610
18646W        W34540  10.418   2.894   3.111 -0.0220  0.1239  0.2431
18647W        W34541   4.449  15.715   4.814 -0.4137  0.0214 -0.2922
18648W        W34542   2.477  12.679   5.098 -0.1777 -0.0917 -0.4044
18649W        W34543  13.179  17.349  13.172 -0.3080  0.0689 -0.1404
18650W        W34544   5.438  18.456   3.488 -0.0177  0.1523  0.0750
18651W        W34545   7.361   6.312  10.619 -0.1491 -0.1398 -0.0025
18652W        W34546   7.461   1.234  14.248 -0.2413 -0.0706  0.1998
18653W        W34547  10.353  11.938   1.568 -0.2591 -0.0005  0.0870
18654W        W34548   9.998  10.179   4.681 -0.2213 -0.1773  0.1745
18655W        W34549   9.376   6.140  13.573  0.0839  0.0731  0.0479
18656W        W34550  13.175   0.258  13.539  0.2966 -0.0720 -0.0597
18657W        W34551  16.313   2.499   3.952  0.3906  0.2820 -0.1207
18658W        W34552   0.475   2.778   1.616 -0.1371  0.1792  0.4552
18659W        W34553   3.095  11.663   4.093  0.0699  0.3974  0.1049
18660W        W34554  13.622   1.340  12.111  0.1099 -0.1565  0.1006
18661W        W34555  13.179  16.551   0.987  0.0367 -0.0583 -0.0555
18662W        W34556   4.152   4.292  14.446 -0.1074  0.2440  0.2600
18663W        W34557   0.887  12.541  13.600 -0.2917 -0.1098 -0.3155
18664W        W34558  15.263  11.583   1.418 -0.2309 -0.0964  0.2293
18665W        W34559   2.617   7.953   4.988  0.0834  0.1090 -0.1589
18666W        W34560   2.027   6.980  15.315  0.2114 -0.0797 -0.0376
18667W        W34561  13.127  11.503   0.137  0.0183 -0.0772 -0.1495
18668W        W34562  16.514  13.803  14.775  0.1288  0.4407 -0.0560
18669W        W34563   5.615   9.296  15.244  0.0561  0.0587  0.4445
18670W        W34564   3.885   8.645  10.650  0.0354 -0.3866  0.2225
18671W        W34565   4.270  15.057   4.128 -0.1105  0.4433 -0.2336
18672W        W34566  14.759   6.734  10.412  0.3486  0.1209  0.0137
18673W        W34567  18.157   5.815  14.786  0.0344  0.0864  0.1369
18674W        W34568  10.078   0.231  12.575  0.2191  0.3194  0.2189
18675W        W34569  17.543  11.040   1.277  0.1195  0.1169  0.0270
18676W        W34570   3.626   9.843   1.686 -0.0847  0.0107  0.1639
18677W        W34571   9.012  11.256  13.538 -0.1964 -0.3870  0.0981
18678W        W34572   8.699  13.010   0.436  0.5099  0.1112  0.1217
18679W        W34573  11.484   7.262   5.089  0.0699 -0.1617 -0.0854
18680W        W34574  14.977   4.438  15.156 -0.0723  0.1537 -0.2640
18681W        W34575   6.650  11.319  14.340  0.1649  0.2377 -0.1165
18682W        W34576  16.840  18.053  12.314  0.0260 -0.0290 -0.0299
18683W        W34577   2.260  12.531   2.848  0.2949  0.0899 -0.3806
18684W        W34578   5.552   1.496   2.088  0.2525 -0.4326 -0.4460
18685W        W34579   1.713   6.257  13.754 -0.1045  0.2394 -0.1761
18686W        W34580   5.888  18.105   0.626 -0.0701 -0.1565  0.0804
18687W        W34581   0.479   8.928  15.395  0.0099 -0.0472  0.4760
18688W        W34582   1.163   2.928  13.520  0.2555 -0.2730  0.0154
18689W        W34583  10.541  13.564   1.005  0.0490 -0.2845  0.0252
18690W        W34584  17.743  10.922   0.545  0.0320  0.0529 -0.0962
18691W        W34585   0.155   8.981  11.061  0.1387  0.1111  0.1605
18692W        W34586  16.137   9.291   3.244  0.0724  0.1047 -0.2027
18693W        W34587  18.137  15.540   3.654  0.1451  0.0347 -0.2486
18694W        W34588   7.476  14.675  13.431 -0.0262  0.1669  0.3365
18695W        W34589   9.028   8.986  13.806  0.2635  0.1259 -0.4595
18696W        W34590   8.527   3.302  10.524 -0.0768 -0.1677 -0.0255
18697W        W34591  17.911  16.492  10.248 -0.1196  0.0506  0.0958
18698W        W34592  17.731  16.464   1.082  0.0533  0.0209 -0.0957
18699W        W34593  14.851  18.767   0.653  0.0654  0.1170  0.0261
18700W        W34594   5.541   4.045   1.373  0.3793  0.2359 -0.1705
18701W        W34595   1.107   7.909   3.602  0.2068 -0.0986 -0.1334
18702W        W34596  14.450  12.935  14.329  0.1069  0.1150 -0.2267
18703W        W34597  18.267  11.779  13.510 -0.2325  0.1831  0.1877
18704W        W34598  18.253  11.373   0.503 -0.3129  0.1410 -0.0816
18705W        W34599  11.515   1.911   1.199 -0.0027  0.1592 -0.4703
18706W        W34600  10.492  11.801  11.162 -0.0623  0.3454  0.4044
18707W        W34601   6.518   0.617  13.252  0.2056  0.0422  0.1635
18708W        W34602   0.581  15.100   3.097 -0.0236  0.2447 -0.0268
18709W        W34603  13.287   3.096   1.016  0.0570 -0.1487  0.0835
18710W        W34604   4.420  14.896   0.057  0.1473  0.1646  0.3631
18711W        W34605  11.519  16.844   5.267  0.0719 -0.1462 -0.2380
18712W        W34606   5.826  16.560  12.362  0.4077 -0.1054 -0.1836
18713W        W34607  14.795   4.311  11.422  0.1008  0.0690 -0.1430
18714W        W34608  13.205  12.266  12.135  0.0983  0.1433  0.0048
18715W        W34609  18.189   9.476   1.767 -0.1489 -0.0402 -0.2803
18716W        W34610  17.821   7.343  13.712 -0.0437  0.2978  0.3220
18717W        W34611  11.828   0.052  12.461 -0.0537 -0.2317 -0.0468
18718W        W34612   1.513  15.785   4.429  0.1265 -0.2535  0.2160
18719W        W34613  10.966   8.424  11.766 -0.1782  0.2363  0.3451
18720W        W34614  10.774   2.419  14.043  0.0680  0.0027 -0.1000
18721W        W34615   1.826  12.998  14.215  0.4946 -0.3042  0.2633
18722W        W34616  16.252  15.185   2.663  0.4629  0.1512  0.2365
18723W        W34617   9.411   9.686  10.634 -0.0388  0.2691  0.1690
18724W        W34618   9.139  15.856  12.666  0.1525 -0.2488 -0.1398
18725W        W34619   8.187  16.354   2.812 -0.2394 -0.2726 -0.2080
18726W        W34620   9.630  11.424   4.054 -0.2153 -0.1142  0.0265
18727W        W34621   4.749  10.059   4.792 -0.0685  0.0628 -0.4278
18728W        W34622  17.154  13.898   0.260  0.4017 -0.3192 -0.1050
18729W        W34623   2.892  11.377   4.441  0.3051 -0.1232  0.2349
18730W        W34624  17.101  15.467  14.199  0.1650 -0.0364  0.1341
18731W        W34625  16.912   4.132   1.419 -0.0733 -0.2183 -0.2368
18732W        W34626  16.568   1.483  13.358 -0.2636 -0.2812 -0.3833
18733W        W34627  11.558  12.854   0.720 -0.0216  0.0985 -0.0731
18734W        W34628   3.592  11.730   0.234  0.1123 -0.3254 -0.2047
18735W        W34629   0.840  11.225   5.021  0.0374  0.4179  0.1940
18736W        W34630  13.011   2.373  13.550  0.1150 -0.1195  0.0838
18737W        W34631  10.920  18.319   0.968 -0.0864  0.0090 -0.0923
18738W        W34632   5.628  11.929   0.648  0.2121  0.4408 -0.1039
18739W        W34633   1.754  15.487  11.539  0.1165  0.0954 -0.2450
18740W        W34634  10.814   2.566   5.402  0.0773 -0.0201  0.1119
18741W        W34635   4.328   7.203  15.503  0.0661 -0.1292 -0.2762
18742W        W34636   4.341  12.520   1.284 -0.0134  0.0765  0.0425
18743W        W34637   0.839   4.484  12.962  0.0450 -0.1305  0.2017
18744W        W34638  10.388   6.646  12.335  0.5010  0.0772 -0.3814
18745W        W34639   5.703   3.907   0.939 -0.1525  0.0716 -0.0395
18746W        W34640  13.817   3.097   1.739  0.1939 -0.0817  0.1022
18747W        W34641   8.453   3.645  15.422 -0.1631 -0.2052 -0.0733
18748W        W34642  12.098  18.150   1.318  0.0889  0.2157 -0.1442
18749W        W34643  10.320  12.213  13.085  0.2312 -0.2194 -0.0858
18750W        W34644   5.111  12.850  11.331  0.1395  0.0622 -0.1105
18751W        W34645  14.231  10.695  15.170  0.2162 -0.1486 -0.0211
18752W        W34646   5.600  11.475  13.122  0.4038  0.2521 -0.1712
18753W        W34647  10.421   3.815   4.351  0.0023  0.3075  0.1952
18754W        W34648   9.925   4.051   5.437 -0.0940 -0.0579  0.1536
18755W        W34649  14.950  17.309   1.459 -0.0991 -0.0566 -0.0230
18756W        W34650   7.721   0.480  13.553 -0.1603 -0.1684  0.2423
18757W        W34651   6.103  11.230   3.641 -0.1356 -0.1934  0.0906
18758W        W34652   6.681   9.149  10.896 -0.0813  0.1428  0.0008
18759W        W34653   9.891  11.520  15.342 -0.2354  0.2568  0.2709
18760W        W34654   7.724   0.079  15.533 -0.2575 -0.0383 -0.0286
18761W        W34655  12.430   2.924   0.067  0.1227 -0.4143  0.1338
18762W        W34656  18.025   3.496   1.889 -0.2244  0.0537 -0.1738
18763W        W34657  16.802   8.336  12.576 -0.1896 -0.0001 -0.0738
18764W        W34658  13.624  16.991   0.845  0.1658 -0.1617 -0.2327
18765W        W34659   5.571  15.224  11.439  0.1292 -0.1000 -0.2179
18766W        W34660   7.429  10.162   3.737 -0.1354 -0.3791  0.2302
18767W        W34661   6.908   1.857   2.040 -0.2474  0.1551  0.1004
18768W        W34662   8.505   6.523   1.482  0.2110  0.1270  0.0341
18769W        W34663   9.505  17.803   1.321  0.0353  0.2492 -0.0502
18770W        W34664  17.730  15.936  13.315 -0.1844  0.2703 -0.1566
18771W        W34665  18.005   0.436   3.129  0.1237 -0.0439  0.0417
18772W        W34666   0.521   1.270  12.222  0.1685 -0.0475 -0.0601
18773W        W34667   0.866  16.586  11.454 -0.1086 -0.0967  0.0483
18774W        W34668  11.651   7.937   3.105  0.1682  0.2675 -0.1832
18775W        W34669  12.533  12.437   2.781  0.0031 -0.0864 -0.0896
18776W        W34670   9.631   3.669   0.121 -0.0170 -0.0444 -0.2806
18777W        W34671  13.644   5.069  10.554 -0.0025 -0.1045 -0.0268
18778W        W34672   1.229   5.077   3.548 -0.1216 -0.0529  0.0278
18779W        W34673   5.268  14.994  11.043 -0.1265 -0.1393 -0.3160
18780W        W34674  15.067   6.218  15.341 -0.2030 -0.0504  0.0180
18781W        W34675   5.377   2.512  15.049  0.0555 -0.2621  0.0870
18782W        W34676   0.208  16.533   2.208  0.2683  0.0803 -0.1537
18783W        W34677  17.293   2.065   3.251 -0.2207 -0.2334  0.0497
18784W        W34678   4.602   7.739  12.512 -0.2828  0.0655 -0.0398
18785W        W34679  11.029  13.845   0.613  0.1047 -0.0413  0.2047
18786W        W34680  18.600  12.463  11.515 -0.0501  0.1044  0.1851
18787W        W34681   0.730   8.068   3.157 -0.1707  0.2248 -0.0016
18788W        W34682   2.204  17.836   4.664 -0.1487 -0.0199 -0.2373
18789W        W34683   1.502   2.217   3.601  0.0008 -0.0480  0.1572
18790W        W34684   6.332   2.311  11.364 -0.2630 -0.1259 -0.0869
18791W        W34685   6.150   8.538  12.733 -0.0295  0.0180  0.2415
18792W        W34686  13.017  11.490  11.289 -0.1236 -0.1564 -0.2527
18793W        W34687   4.647  18.404  13.755 -0.0527 -0.1347 -0.0790
18794W        W34688  10.553  14.861   5.310  0.1486  0.1362  0.1036
18795W        W34689   3.213  11.765   1.396  0.4393  0.1169  0.3015
18796W        W34690   4.299   5.454  13.568  0.0857 -0.1069  0.2574
18797W        W34691   2.468   2.379   5.036  0.0262 -0.1225  0.1623
18798W        W34692   1.201  12.637  11.576  0.0940  0.1730  0.0369
18799W        W34693  10.838   5.231  12.102 -0.1270 -0.2177 -0.0772
18800W        W34694  18.693   7.551  13.884 -0.0959  0.2484 -0.1235
18801W        W34695   8.583  18.091  12.611 -0.0636 -0.3413  0.1678
18802W        W34696  13.968   7.555   1.291  0.1183  0.0592  0.0742
18803W        W34697   6.428  11.345  13.732 -0.4894 -0.0076  0.0730
18804W        W34698   4.708   7.536   4.069 -0.1487  0.6205  0.0046
18805W        W34699  11.473   5.086   2.949  0.0847  0.0765  0.2401
18806W        W34700   6.922   0.573  14.037  0.3900 -0.3955 -0.1864
18807W        W34701   8.977  12.748   3.983 -0.1777 -0.1288 -0.1011
18808W        W34702  18.717   1.737  10.015 -0.0913 -0.0450 -0.3641
18809W        W34703  16.186   7.051   0.857 -0.2428 -0.0364  0.3260
18810W        W34704  12.401  14.003  11.707 -0.2791  0.2717 -0.0366
18811W        W34705  16.241   8.834   3.623  0.0898 -0.1544 -0.2056
18812W        W34706   1.639  12.080   2.411  0.1067  0.1046  0.2636
18813W        W34707  11.763  12.934  13.865 -0.0890  0.1418  0.2722
18814W        W34708  12.004  12.021  14.080 -0.3660  0.2848 -0.0841
18815W        W34709   7.597  18.175  14.191  0.1067 -0.3038  0.1260
18816W        W34710   0.303  14.367  12.360 -0.0627  0.0743 -0.0135
18817W        W34711  15.335   2.339   3.083  0.0774  0.0683 -0.1039
18818W        W34712   8.063  10.496  10.294 -0.4104 -0.0218  0.3379
18819W        W34713  11.882   5.948   1.218  0.0156  0.1348  0.1650
18820W        W34714  12.538   6.595   3.036 -0.1731 -0.0385  0.0587
18821W        W34715   1.036  14.030  13.939  0.3517  0.2258 -0.0881
18822W        W34716  15.013   9.280  12.657 -0.3612 -0.1230 -0.0761
18823W        W34717   9.594  17.404   2.673 -0.1092 -0.1438  0.0675
18824W        W34718  10.741  16.767  14.342  0.0380  0.2607 -0.1958
18825W        W34719  10.707  15.945   4.849  0.1243  0.0383  0.2289
18826W        W34720  17.823  15.348   5.586 -0.4911 -0.0031 -0.1635
18827W        W34721  16.230  12.039  11.603 -0.0832  0.1982  0.0421
18828W        W34722  10.265   6.016   3.048 -0.0478 -0.2423 -0.1616
18829W        W34723  12.678  17.779  13.194  0.0853 -0.3464  0.1337
18830W        W34724  16.011  10.520   3.784  0.3977 -0.2326 -0.0352
18831W        W34725   6.504  13.433   2.435 -0.0582 -0.2979 -0.0344
18832W        W34726   9.466  16.918  11.253  0.0305 -0.3948  0.0082
18833W        W34727   5.016   0.460  11.380 -0.1268  0.1809  0.1162
18834W        W34728  17.087   0.413   0.458 -0.4374  0.1103  0.0983
18835W        W34729  10.029   1.873  11.895  0.0490 -0.2379  0.1986
18836W        W34730  16.031  16.304   5.538 -0.2216  0.3320 -0.0553
18837W        W34731  17.955  12.102   1.984  0.0766 -0.4668 -0.0560
18838W        W34732  14.344   8.230  12.332 -0.1917 -0.2515 -0.0644
18839W        W34733  13.814   7.112  12.946 -0.0384 -0.0461 -0.1065
18840W        W34734   7.636   4.094  12.801 -0.1153  0.1952 -0.0859
18841W        W34735   9.397  12.769   5.518  0.2248  0.0003  0.4337
18842W        W34736  18.128   9.599   3.869 -0.3300 -0.1257 -0.1438
18843W        W34737  13.485   0.552   4.286  0.6518 -0.0358  0.1450
18844W        W34738  11.722  13.541   3.008  0.0804 -0.0134 -0.0501
18845W        W34739  15.307  12.073  15.263 -0.2090  0.0929  0.2763
18846W        W34740  15.405   3.779  14.482 -0.1474 -0.0571  0.1267
18847W        W34741   5.411   4.410  12.139  0.1981 -0.3551 -0.0503
18848W        W34742   5.150  11.076   4.780 -0.2739 -0.1809  0.1230
18849W        W34743   0.473  17.283   4.119 -0.0750 -0.0482 -0.2949
18850W        W34744  14.801   8.619  11.498 -0.2153  0.1118  0.0330
18851W        W34745  11.509   2.019   3.470  0.1054  0.3208  0.3325
18852W        W34746   7.662   6.082   0.027  0.3231  0.0284  0.0445
18853W        W34747  10.562   8.185   1.186  0.1397 -0.1114 -0.0316
18854W        W34748  12.561   2.318  12.594 -0.0042 -0.1070 -0.0207
18855W        W34749  18.525  13.929   5.731 -0.4958  0.1861 -0.0508
18856W        W34750   9.039  10.199   4.207  0.0207 -0.0549 -0.1307
18857W        W34751   2.103  13.631   4.322 -0.0681  0.1898  0.3518
18858W        W34752  11.597   5.444   3.329 -0.1059  0.0838  0.3708
18859W        W34753  15.719   9.754  13.720  0.1101  0.0319 -0.1281
18860W        W34754   5.395   4.837   1.851 -0.1981 -0.2117  0.0763
18861W        W34755  15.399   2.524  12.691  0.0249 -0.1373  0.0829
18862W        W34756   0.472  12.187  11.385 -0.2215  0.0987 -0.1458
18863W        W34757   9.707  13.497   2.170 -0.1082 -0.2664  0.0520
18864W        W34758  14.153   5.213   3.328 -0.0330 -0.1291  0.0482
18865W        W34759  17.647   8.941   3.215  0.1970 -0.0589 -0.1785
18866W        W34760   6.719   6.359  14.686 -0.0909  0.2017  0.1631
18867W        W34761   4.938   2.944   3.868 -0.0105  0.1666 -0.3947
18868W        W34762   0.010   9.307   2.033 -0.0887  0.1819 -0.1905
18869W        W34763   5.361  14.909   1.636 -0.2057  0.0941  0.2880
18870W        W34764  10.425  11.601   4.619  0.1750  0.0222  0.0630
18871W        W34765   1.042   6.503   0.751  0.1401  0.2545  0.2739
18872W        W34766  17.843   9.085  10.782  0.0502 -0.1028  0.2265
18873W        W34767  12.109  13.219   3.827 -0.0705 -0.2012 -0.0938
18874W        W34768  12.156  16.501   1.945  0.0049  0.1146 -0.2593
18875W        W34769  17.050   8.473  11.801 -0.0004  0.4288 -0.1671
18876W        W34770  18.423   3.975   0.447  0.1066  0.1214 -0.1538
18877W        W34771  12.471  10.273  11.502 -0.1306 -0.0793  0.0339
18878W        W34772   2.805  15.059  13.125 -0.0851 -0.0046 -0.4401
18879W        W34773  18.539  18.115   0.650  0.0672 -0.3032  0.0686
18880W        W34774   1.801   2.520  11.795  0.1204 -0.0316  0.3426
18881W        W34775  11.534   3.396  12.219 -0.2263 -0.1621 -0.1690
18882W        W34776  10.121   6.283  10.981 -0.1014  0.1918 -0.1060
18883W        W34777  11.945   2.736  13.202  0.3280  0.0621  0.1810
18884W        W34778   9.919   1.009   3.923 -0.4894  0.0156 -0.2466
18885W        W34779  16.137   6.907  11.747  0.1254  0.0249  0.2848
18886W        W34780   6.243  13.116   3.989 -0.1303 -0.1511 -0.1508
18887W        W34781  17.608   3.794  14.733  0.1832 -0.0393  0.2608
18888W        W34782   9.345   6.472   3.282 -0.3010  0.0707  0.0129
18889W        W34783   5.612   3.315   5.116  0.1447  0.0502 -0.3428
18890W        W34784  10.243   6.192   4.627  0.0067  0.2982 -0.2467
18891W        W34785  10.952  15.507  12.306  0.1399  0.2328 -0.1447
18892W        W34786   2.296  12.203   2.102 -0.3931 -0.1679 -0.0578
18893W        W34787  14.315   8.318   4.335 -0.1437  0.1990  0.1095
18894W        W34788  15.290   8.154   0.798  0.1030  0.2055 -0.1399
18895W        W34789  17.757  10.649   2.195  0.1546 -0.3130  0.0278
18896W        W34790   3.323  14.654   5.067  0.0061  0.2288  0.2252
18897W        W34791   8.541   2.275  10.902 -0.0208 -0.0335 -0.2519
18898W        W34792   3.909  17.895   3.279  0.1339  0.1276  0.2278
18899W        W34793   2.513   7.749   3.969  0.0897 -0.1072  0.1251
18900W        W34794   4.150  12.491  13.161  0.2181  0.3525 -0.2780
18901W        W34795   6.858   5.888  11.958  0.0788  0.1894  0.2130
18902W        W34796   9.579   4.631   0.408 -0.0536 -0.1667  0.0248
18903W        W34797   7.347  17.190  14.566  0.1168  0.0740 -0.0969
18904W        W34798  16.199  18.284   0.644 -0.1867 -0.0413 -0.0200
18905W        W34799  17.207   3.433  13.893  0.2500 -0.1450  0.1783
18906W        W34800  16.414   1.264   3.094  0.1294  0.3085  0.0211
18907W        W34801  11.441  18.188  14.460 -0.1479 -0.0426 -0.3313
18908W        W34802   9.872   6.369   2.467  0.5246 -0.0211 -0.0765
18909W        W34803   5.894   0.156  10.351 -0.0912  0.0689  0.2527
18910W        W34804  10.854   6.795  12.394  0.1040  0.1838 -0.3075
18911W        W34805   8.013  17.537  15.153  0.0561  0.0571  0.0896
18912W        W34806  17.767   2.149  15.353 -0.0210 -0.0774 -0.4614
18913W        W34807   1.293   1.710   3.789 -0.0580 -0.1000  0.1669
18914W        W34808  16.631   8.684  14.361 -0.1636  0.0395  0.2193
18915W        W34809  14.538   0.877  13.546  0.2402  0.2685 -0.3266
18916W        W34810   1.299  12.160   4.043 -0.3601 -0.0344  0.2128
18917W        W34811  13.977  14.285  12.922  0.2682  0.0929  0.4297
18918W        W34812   9.839   8.217   2.840 -0.1728  0.1452 -0.0412
18919W        W34813   1.101   8.121  13.187  0.0249 -0.1479  0.0268
18920W        W34814   0.239   5.426   0.573 -0.1928  0.0532  0.0115
18921W        W34815  14.887   5.524  12.253 -0.0440  0.0344  0.0110
18922W        W34816   5.221  13.404  13.301 -0.1843 -0.0478  0.0784
18923W        W34817   0.049   6.656   3.670 -0.1134 -0.0561 -0.2429
18924W        W34818   3.717  18.563  12.079 -0.2017  0.1222 -0.1348
18925W        W34819  17.912  12.269  13.601 -0.0883 -0.0791 -0.0103
18926W        W34820  13.372  14.923   5.095  0.2579 -0.1592 -0.2872
18927W        W34821  10.857   0.172   4.829  0.2760  0.1478  0.1362
18928W        W34822  12.072  15.900  13.377  0.1092 -0.1015  0.2141
18929W        W34823  16.792   0.288  14.432  0.0535  0.0709 -0.1469
18930W        W34824   6.759  18.551   9.409  0.0319  0.0035  0.1253
18931W        W34825  17.915  16.800   2.865  0.3234  0.1762 -0.1730
18932W        W34826   4.669  14.587  11.480 -0.1577 -0.0028  0.3403
18933W        W34827   2.936  17.460   5.045  0.2240 -0.1866 -0.1791
18934W        W34828   4.701  11.817  13.155  0.1158  0.0073  0.1268
18935W        W34829   3.553   2.225   2.404 -0.0689 -0.0914  0.1099
18936W        W34830   3.929  13.612   2.936  0.2369 -0.3582 -0.0130
18937W        W34831  11.470  12.591  13.209 -0.0076  0.1085 -0.2717
18938W        W34832   2.269   5.125  12.003 -0.0108  0.4426 -0.2508
18939W        W34833   1.472   3.422  12.671 -0.0797 -0.4676 -0.0320
18940W        W34834   7.509  11.850  13.035  0.4664  0.1286 -0.0131
18941W        W34835   0.690  12.125  14.455 -0.1540  0.0094  0.1495
18942W        W34836   3.393  10.044   4.497 -0.1915  0.2975 -0.0580
18943W        W34837   6.736   2.020   1.360  0.2615 -0.1988  0.0294
18944W        W34838   2.044  15.728  15.143 -0.0748 -0.1379  0.0331
18945W        W34839   6.909  18.464  11.003  0.1192 -0.2533 -0.0890
18946W        W34840  11.991  14.062  12.424  0.2611  0.1052 -0.3320
18947W        W34841   3.171   2.756   5.274  0.3319  0.1658 -0.1634
18948W        W34842  11.900   3.030  12.194  0.3845  0.0849  0.0579
18949W        W34843  14.440   6.503  13.221  0.1844 -0.3614  0.2195
18950W        W34844   6.032   6.944   4.320 -0.0995  0.0124  0.0399
18951W        W34845  16.438  12.536  15.554  0.2961  0.0335  0.1536
18952W        W34846  12.471  13.244   2.350 -0.0080  0.3566 -0.0722
18953W        W34847   6.281   7.296   5.068 -0.2977 -0.0540  0.4571
18954W        W34848  16.650  13.319  10.342  0.1876 -0.0984  0.3712
18955W        W34849   5.192   6.302  15.094  0.2623  0.2428  0.0866
18956W        W34850   8.422   2.825  12.330 -0.1056  0.1319  0.1810
18957W        W34851   3.151   9.186  10.691  0.4147  0.0193 -0.0669
18958W        W34852  16.724   2.672  14.024 -0.2620 -0.0044 -0.0503
18959W        W34853   1.688   5.539  12.695 -0.0308 -0.2214 -0.1438
18960W        W34854   8.675  17.753  11.253 -0.2728  0.2781 -0.1572
18961W        W34855  15.457  17.771  15.375  0.0501 -0.1580 -0.2136
18962W        W34856   9.661   7.795  12.520  0.0572 -0.0207 -0.0141
18963W        W34857  10.573   1.810  11.554 -0.0399 -0.2874  0.0450
18964W        W34858   6.409   6.375   0.490  0.0864 -0.1967  0.3247
18965W        W34859  18.764  10.046  13.003  0.0913  0.0055 -0.1338
18966W        W34860  15.941   1.125   5.137  0.0550 -0.1177 -0.1221
18967W        W34861   6.905   4.623  11.604 -0.1036  0.1616 -0.0580
18968W        W34862   3.883   6.414   1.504  0.0229 -0.1131 -0.1634
18969W        W34863   6.231  18.249   4.362  0.1725 -0.2581  0.0977
18970W        W34864   7.959  12.792   0.677 -0.2628 -0.2530 -0.0647
18971W        W34865  17.958   2.452   5.233  0.4123  0.3663 -0.0335
18972W        W34866   2.364   9.818  13.663 -0.1650  0.0668  0.1944
18973W        W34867  11.533  12.639   3.701  0.2042 -0.0363 -0.3185
18974W        W34868  13.437  15.865   1.825 -0.1792 -0.0270  0.0055
18975W        W34869  17.673  12.252   5.291 -0.0791 -0.2631 -0.0341
18976W        W34870   6.978   7.557   4.208  0.1052 -0.2215  0.0471
18977W        W34871   2.391  18.642  12.712 -0.0751 -0.1356  0.0535
18978W        W34872   4.225  13.652  10.670  0.0750  0.3816 -0.0875
18979W        W34873  15.493   2.110   1.682 -0.3162  0.0912 -0.0065
18980W        W34874   0.688   0.220   5.911 -0.2666 -0.0438  0.0504
18981W        W34875   5.562  10.285   5.145 -0.1325  0.1038 -0.0393
18982W        W34876   4.659   7.004   0.284 -0.0439  0.1843  0.2525
18983W        W34877   3.392  13.343   4.778  0.3171  0.0060  0.2594
18984W        W34878   2.894  14.491  13.392  0.0258  0.0498  0.1474
18985W        W34879   6.862  14.764  10.251  0.0689  0.3559 -0.2744
18986W        W34880   2.823   1.811   1.220 -0.0298 -0.0252  0.2552
18987W        W34881  15.883  13.335   1.244 -0.0748 -0.0802  0.4426
18988W        W34882   8.863  16.618   4.104  0.0077  0.1040  0.0498
18989W        W34883   3.165  14.681   2.757  0.1171  0.0695 -0.0663
18990W        W34884  16.406   9.747  14.086  0.3790 -0.1691  0.3119
18991W        W34885   0.628  14.392  13.991 -0.0771 -0.1282  0.0199
18992W        W34886   9.751   0.889  11.957  0.2131 -0.0838  0.0425
18993W        W34887   6.815   5.153  11.875 -0.3370  0.0374 -0.0681
18994W        W34888   1.341  13.025   1.190  0.0826 -0.0415  0.0018
18995W        W34889   3.600  15.426   4.836  0.0564 -0.1194  0.1246
18996W        W34890  17.738   8.414  12.760  0.1692  0.2331 -0.3466
18997W        W34891   0.673  12.532  14.976 -0.2132  0.0650 -0.1016
18998W        W34892  16.982  12.625  13.730  0.1020  0.1005 -0.0730
18999W        W34893   2.671  10.724  10.530  0.0406 -0.2262 -0.1911
19000W        W34894   7.045  10.768   3.493 -0.0959  0.2318 -0.0383
19001W        W34895   5.901   6.114  11.899  0.0867 -0.2728  0.2345
19002W        W34896  12.057  17.756  12.393 -0.1116  0.0595  0.2107
19003W        W34897   7.165  13.006  13.771 -0.0845 -0.0765  0.1903
19004W        W34898   9.982   0.083   0.816  0.0002  0.0256  0.0047
19005W        W34899  17.090   4.820  11.826 -0.2511  0.0829 -0.3992
19006W        W34900   3.793   1.092   4.136 -0.2393  0.0179  0.0403
19007W        W34901   6.671   8.361  12.708 -0.2326 -0.1063 -0.2393
19008W        W34902   7.365   3.411  14.153  0.0029  0.4432  0.0504
19009W        W34903   1.474   2.234   2.719  0.1757  0.4052  0.0623
19010W        W34904   3.322   7.406  14.531 -0.3181 -0.1158  0.4482
19011W        W34905  10.932  10.536  14.300 -0.0455  0.2111  0.0325
19012W        W34906  17.419  16.045  12.074  0.1222 -0.3647 -0.5037
19013W        W34907   4.822  16.294   1.032 -0.1477 -0.0731  0.2389
19014W        W34908   5.984  12.708  10.954 -0.3013  0.4400 -0.0061
19015W        W34909   6.782   1.341   1.999 -0.0091 -0.0499 -0.0652
19016W        W34910   0.319   8.136   2.593  0.3806  0.0402  0.0671
19017W        W34911  14.910  15.843   0.173  0.1767 -0.2738 -0.0002
19018W        W34912   1.853  18.465   0.614  0.2984 -0.0473 -0.2324
19019W        W34913   8.689   6.810   3.894 -0.1361 -0.0178 -0.4188
19020W        W34914  12.755   0.651  14.019  0.0754  0.0894  0.0013
19021W        W34915  18.365   1.647   0.181  0.1233  0.1279  0.2796
19022W        W34916  12.300  15.218   4.412  0.2130 -0.0472 -0.0155
19023W        W34917   8.560   1.794   2.520 -0.2909  0.2552 -0.3679
19024W        W34918  16.926   1.711  14.340 -0.0675  0.2607 -0.1517
19025W        W34919  17.952  14.453   1.229  0.2634  0.0859  0.0284
19026W        W34920   7.905   8.958   3.187  0.1227 -0.1206 -0.1949
19027W        W34921  10.472  11.328  11.402  0.0261  0.0750  0.1599
19028W        W34922  16.945   8.203  14.764  0.0847 -0.0003  0.0309
19029W        W34923  14.105  18.418  14.179  0.2792 -0.0543  0.3914
19030W        W34924  17.962   6.114  13.054  0.1415  0.1955  0.1050
19031W        W34925  10.742   9.962  12.409  0.0390  0.0189  0.5172
19032W        W34926  10.332  11.991  13.631 -0.2109 -0.0466 -0.1295
19033W        W34927  12.570   6.983  11.222 -0.2448 -0.0217 -0.4084
19034W        W34928  12.975   7.764   4.455  0.1042 -0.3290 -0.0030
19035W        W34929  17.600  11.729  14.578  0.0514 -0.1285  0.0719
19036W        W34930  18.525   8.292  12.749  0.2758  0.2580  0.0227
19037W        W34931  17.346   9.046   1.700 -0.0742  0.0603 -0.0245
19038W        W34932  15.694  14.879   3.367  0.2524 -0.1566  0.2647
19039W        W34933   6.526  15.237   2.840  0.0210 -0.0085 -0.2983
19040W        W34934   3.329  18.432   5.657  0.1764  0.0640 -0.4001
19041W        W34935  12.568   6.628   1.155 -0.3067  0.1438  0.0718
19042W        W34936   8.690  13.295   4.990  0.0204  0.4045 -0.0027
19043W        W34937  12.642   7.449   3.314 -0.1043  0.1197  0.0002
19044W        W34938   5.343  14.347  11.006  0.1993  0.1229 -0.2238
19045W        W34939  10.396   7.426  12.889 -0.0677  0.3349  0.0346
19046W        W34940  18.361   0.260   3.501  0.1709  0.0633 -0.1168
19047W        W34941  18.607  12.555  13.804  0.2089  0.0728  0.0402
19048W        W34942   2.926  13.222  11.337 -0.1150 -0.3952  0.0366
19049W        W34943  18.590  15.123   3.533 -0.1030 -0.0188 -0.2026
19050W        W34944  13.040  15.439   0.893 -0.0987  0.4827  0.0147
19051W        W34945   7.701   6.288   4.635  0.0807 -0.0872 -0.1315
19052W        W34946   8.708   4.333  12.428  0.2599 -0.1842  0.3141
19053W        W34947  15.123   6.572   5.075  0.0753  0.0099 -0.1421
19054W        W34948  17.549   6.437  14.536 -0.1427 -0.3412 -0.4816
19055W        W34949  16.646   2.688   1.990 -0.0167 -0.0478  0.3875
19056W        W34950  16.142   3.818   2.717  0.0466  0.2170 -0.1888
19057W        W34951   0.007  12.229  15.072  0.0924  0.3564  0.0802
19058W        W34952  18.412   6.304  12.873 -0.2234 -0.3766 -0.0101
19059W        W34953   5.579  11.427  13.648  0.0374  0.3991 -0.1767
19060W        W34954   3.252  14.853  10.598 -0.2332  0.0673  0.1153
19061W        W34955  12.473  15.046  13.203  0.0467  0.4647  0.3586
19062W        W34956  11.804  11.467  11.822  0.1194 -0.2174  0.0350
19063W        W34957  18.725   5.532   5.045  0.2224 -0.3348 -0.1292
19064W        W34958  13.791   1.637   3.253  0.1555 -0.0618 -0.2030
19065W        W34959   4.817   1.440   3.375  0.1000 -0.0607  0.0994
19066W        W34960   0.166   4.219  12.584  0.0377  0.2195  0.3483
19067W        W34961   0.900  14.785   5.159 -0.1408 -0.2514 -0.2057
19068W        W34962   0.381   7.773   0.190 -0.1704 -0.1539  0.0234
19069W        W34963  17.487   3.053  14.863 -0.4705 -0.2008  0.2508
19070W        W34964  17.791  10.511   5.960  0.2797 -0.0307 -0.1044
19071W        W34965  11.012   3.975   0.767  0.3079 -0.2536  0.0912
19072W        W34966   7.343  11.346  15.431  0.1908  0.0102  0.0564
19073W        W34967   0.161  15.493  13.572 -0.1810  0.1110  0.4333
19074W        W34968   0.500  10.772  13.056  0.0123 -0.0809  0.0711
19075W        W34969   1.309   5.576  11.888 -0.0869  0.1262 -0.1635
19076W        W34970   0.590   6.297   5.237 -0.1030 -0.0946 -0.0226
19077W        W34971   7.395  10.711   4.396 -0.1456  0.1025  0.1686
19078W        W34972   7.342   5.221  10.907  0.0666 -0.1334  0.1348
19079W        W34973   7.380   5.459  14.251 -0.1123  0.1452  0.0788
19080W        W34974  14.863   1.801   1.749 -0.0593 -0.0888  0.0607
19081W        W34975   2.588  15.581   4.523 -0.2800  0.1779  0.0938
19082W        W34976  13.174   4.767   1.488  0.0086  0.0514  0.0537
19083W        W34977   9.518  11.872  13.505  0.2715  0.0214  0.2172
19084W        W34978   0.241  15.787   1.386  0.1733  0.1825 -0.1796
19085W        W34979  14.264  13.878   3.462  0.2223 -0.2452  0.3272
19086W        W34980  17.424   4.209   4.264  0.1388 -0.2825  0.1490
19087W        W34981  13.813   1.316   1.144 -0.1830 -0.2346 -0.0581
19088W        W34982  17.758   5.864   1.838 -0.3243 -0.0278  0.5387
19089W        W34983  16.385   3.076   1.686 -0.0948  0.0905 -0.0542
19090W        W34984   2.248  16.480   4.437  0.0650 -0.0012  0.1156
19091W        W34985   3.737   1.920  15.139 -0.2961 -0.0056  0.3152
19092W        W34986  15.111   9.811   0.194  0.3333 -0.0679  0.3976
19093W        W34987  14.750   2.385   9.479 -0.1553  0.0276 -0.0689
19094W        W34988   1.437   4.148   4.447 -0.1147  0.0066 -0.0617
19095W        W34989   2.172  18.412   1.234 -0.4090 -0.2165 -0.1111
19096W        W34990   1.882   1.720  11.603  0.0272 -0.3233 -0.1244
19097W        W34991  11.656  12.195  13.710 -0.2129  0.1263 -0.0419
19098W        W34992  12.591  10.483   1.979  0.0702 -0.0565 -0.1049
19099W        W34993  13.867  14.475   4.228  0.0927  0.0531  0.0417
19100W        W34994   3.460  14.066   1.738 -0.0500  0.0296  0.0561
19101W        W34995  10.538  17.595   1.889  0.1914 -0.3360 -0.1133
19102W        W34996   3.086   1.908  15.025  0.0036  0.3530  0.0139
19103W        W34997   4.574   0.053   9.739  0.1018 -0.0141  0.2794
19104W        W34998  15.440   1.111   3.172  0.2387  0.2293 -0.2664
19105W        W34999   5.156  11.579  12.288 -0.0963  0.0383  0.2309
19106W        W35000  10.498   3.869   3.286  0.1605  0.2311 -0.2704
19107W        W35001  11.771  11.943   5.356  0.2332 -0.1054  0.5874
19108W        W35002  15.642   8.556   0.621 -0.1596  0.3057 -0.2604
19109W        W35003  18.003  10.910   1.459  0.0261  0.1909  0.0115
19110W        W35004   4.345  17.837   2.949 -0.1873  0.0402 -0.0739
19111W        W35005   9.060  12.509  15.210 -0.0001 -0.2072  0.0257
19112W        W35006  13.731   8.166   4.939 -0.1487  0.2717 -0.0909
19113W        W35007  11.594   8.898   2.033 -0.0528  0.0280  0.0603
19114W        W35008   4.995   6.900   2.865 -0.0096  0.3639 -0.0769
19115W        W35009   1.624   7.056  13.548  0.2482 -0.4747  0.0863
19116W        W35010   4.423  12.810   2.450 -0.0564 -0.2265  0.1747
19117W        W35011   7.977   8.876   1.656  0.2096 -0.0377  0.2027
19118W        W35012   8.059   9.038   4.032  0.1974  0.1033  0.0017
19119W        W35013   0.898   3.780   4.620  0.1386  0.2009 -0.1682
19120W        W35014   3.947   2.274  12.633  0.0028  0.1667  0.1679
19121W        W35015  12.387   6.622  14.274 -0.2542  0.1133 -0.1480
19122W        W35016   9.088  18.139  14.573  0.1273 -0.0315 -0.0736
19123W        W35017   8.819  14.297   1.992 -0.0714  0.0439 -0.1744
19124W        W35018   8.393   6.751  12.061  0.1618 -0.0594  0.0924
19125W        W35019   0.612   7.918   4.479  0.1677 -0.1139  0.1273
19126W        W35020   6.810   1.698  13.639 -0.1046 -0.0930 -0.3450
19127W        W35021  12.781   6.340   2.230 -0.3201  0.1613  0.0963
19128W        W35022  10.908   4.707   3.503  0.0022  0.1014  0.1361
19129W        W35023  15.401   6.251   1.410 -0.2664  0.3663 -0.0884
19130W        W35024   5.239  14.694  11.457  0.2805  0.0223 -0.0003
19131W        W35025  12.805   5.510   2.576  0.3234  0.1098 -0.2737
19132W        W35026  11.481   0.474  11.393  0.0706 -0.0422  0.3421
19133W        W35027   4.987   9.538   3.016 -0.1385 -0.0539 -0.3660
19134W        W35028  15.361  15.896  15.449  0.0942 -0.0643  0.1061
19135W        W35029   1.178   8.164   2.725  0.0408  0.0752  0.1035
19136W        W35030   2.571   0.055  15.515  0.3492  0.3130 -0.1314
19137W        W35031  11.656   0.320   4.368  0.2512 -0.1680 -0.0392
19138W        W35032   3.353  15.439   4.343 -0.2080  0.0307 -0.2851
19139W        W35033   2.681  17.926   4.786 -0.0856 -0.3113 -0.2495
19140W        W35034  14.380   2.671   0.534 -0.1054 -0.0102  0.1680
19141W        W35035   3.104   6.499  12.458 -0.0374 -0.3447 -0.2006
19142W        W35036   7.788   3.488  12.617 -0.0567  0.0516  0.0987
19143W        W35037  12.208   2.396  12.045 -0.1599 -0.0329 -0.0391
19144W        W35038   2.442   8.902   0.501  0.1577 -0.1705 -0.2972
19145W        W35039   2.285   5.797  11.426 -0.1789  0.0273  0.3122
19146W        W35040   3.855  13.975  10.683 -0.0201  0.1654  0.2016
19147W        W35041  11.632   1.462   1.409  0.1810  0.1471 -0.0521
19148W        W35042   9.037   4.958   3.160 -0.2027  0.2289  0.0188
19149W        W35043  15.913  12.380   2.901  0.1729  0.2913 -0.0434
19150W        W35044   6.297  18.712   3.344  0.3763  0.2105  0.5791
19151W        W35045  11.773   3.302   4.120  0.1030  0.2768  0.0078
19152W        W35046  13.200  15.929  15.249 -0.1787 -0.0213  0.0763
19153W        W35047   6.574   6.729   0.834 -0.2027 -0.0082  0.2217
19154W        W35048   0.767  17.553  14.896  0.1142 -0.1488  0.0817
19155W        W35049  15.097   8.733  11.118  0.2974 -0.2353 -0.0663
19156W        W35050   0.173  10.702   5.276  0.0276 -0.0159 -0.0808
19157W        W35051   5.989   0.538  14.766 -0.1202 -0.0083  0.1784
19158W        W35052  10.146   3.442  11.363  0.0417 -0.0499  0.2171
19159W        W35053  10.270   5.562   4.499 -0.2471 -0.3654  0.1941
19160W        W35054   3.897  15.816   2.069  0.3406 -0.2785  0.0068
19161W        W35055   3.717  16.705   0.640  0.0262 -0.0405  0.0700
19162W        W35056   2.511  18.318   2.614  0.0626  0.0808  0.2588
19163W        W35057   2.143  17.461  11.226  0.1371  0.4387  0.2106
19164W        W35058  13.348   0.387  12.694 -0.1675 -0.2179 -0.2373
19165W        W35059  18.368  16.174   0.258  0.0502  0.3282  0.1882
19166W        W35060   9.018   0.747   0.105 -0.1131  0.0125  0.0629
19167W        W35061   2.100   0.501  13.435  0.0859 -0.0783  0.0110
19168W        W35062   6.306   3.915   2.937  0.1147  0.1824 -0.0860
19169W        W35063  10.481  18.355   1.559 -0.0611 -0.4858  0.3293
19170W        W35064  17.613  18.375   3.103 -0.1106 -0.0650  0.0922
19171W        W35065   4.040   5.939   2.741 -0.3985  0.0734  0.1174
19172W        W35066  14.187   8.754   0.783  0.0071  0.1866 -0.4370
19173W        W35067  12.712   2.760   2.631  0.0117  0.0375  0.1331
19174W        W35068  17.900  16.286   2.151 -0.1339  0.5024 -0.2819
19175W        W35069  17.288   5.002   4.095 -0.2065  0.1130  0.1843
19176W        W35070  17.970  10.774   2.631 -0.3525 -0.0243 -0.2298
19177W        W35071   1.207   8.479  14.004  0.2888  0.0145  0.0282
19178W        W35072  16.285  15.016  12.908 -0.2269  0.2148 -0.1527
19179W        W35073  18.504   7.842   4.582 -0.0825 -0.0823  0.0219
19180W        W35074  18.362  10.388  12.946 -0.2921 -0.2530 -0.1078
19181W        W35075   3.957   0.202  10.871 -0.0440  0.2427 -0.0606
19182W        W35076  13.770   4.967   0.039  0.0329  0.0665  0.0835
19183W        W35077  13.395   4.013  15.458  0.5320  0.0550  0.1067
19184W        W35078   1.864   8.524  11.360 -0.3099 -0.3011 -0.0975
19185W        W35079   6.027  17.373  12.125 -0.0872 -0.0695  0.1230
19186W        W35080   2.699  17.211  13.269 -0.2211  0.1166  0.0511
19187W        W35081  12.654   8.468  12.128 -0.0272  0.3033  0.0764
19188W        W35082   8.799  15.660  14.235 -0.2565 -0.1612  0.1469
19189W        W35083   7.502   9.125   1.634 -0.0099 -0.0624 -0.0114
19190W        W35084  17.589   0.724   5.285 -0.0271  0.0276 -0.0760
19191W        W35085   1.777   2.543  13.824  0.0462 -0.0359  0.2741
19192W        W35086   2.105   9.122   2.277 -0.2274  0.0663 -0.1734
19193W        W35087   6.737  16.781   9.310  0.2564  0.0196  0.0995
19194W        W35088  11.970  14.528  12.660  0.0978 -0.1519 -0.3648
19195W        W35089   4.069   2.803   0.448 -0.3147  0.1074  0.0231
19196W        W35090   6.789  12.908   4.813  0.0515 -0.3080  0.1211
19197W        W35091  16.110   7.314  14.315 -0.1780 -0.2856 -0.0611
19198W        W35092  16.587   4.095  14.760  0.0303 -0.3465 -0.0751
19199W        W35093   4.000  13.910   4.802 -0.1728 -0.0318 -0.2445
19200W        W35094   6.581   2.511   3.273 -0.1092  0.2867  0.0038
19201W        W35095   3.120   8.165   2.132  0.1855 -0.0208 -0.1861
19202W        W35096   0.917   6.065   4.301  0.1837  0.2518 -0.2120
19203W        W35097   5.892  12.331   2.353  0.2531 -0.0844 -0.0672
19204W        W35098  11.768   2.276   3.870 -0.1493  0.1774 -0.0403
19205W        W35099  17.155  14.465   2.579 -0.0433 -0.5130 -0.0170
19206W        W35100   4.882  10.664   2.629  0.2861 -0.1048 -0.1337
19207W        W35101  18.348  12.266   0.800  0.1035 -0.1044 -0.3069
19208W        W35102   2.080   4.230   1.450  0.4104  0.0133 -0.3276
19209W        W35103   7.185   7.407  12.172 -0.0497 -0.0077  0.1816
19210W        W35104   0.870   7.366  11.659 -0.2789  0.0528 -0.0385
19211W        W35105   1.457  11.538   0.457  0.4349 -0.2040  0.2282
19212W        W35106  11.121  10.369   2.758  0.0494  0.0210  0.2556
19213W        W35107   6.628  16.853   2.368 -0.4460 -0.1583  0.3701
19214W        W35108  12.448   5.672  15.241 -0.0791 -0.1002  0.1051
19215W        W35109   7.450   8.646  11.131  0.0956  0.0779  0.0112
19216W        W35110  10.581   3.630   4.782  0.1776  0.0029 -0.1600
19217W        W35111   4.496  11.803   4.868 -0.0612  0.3506  0.3298
19218W        W35112  16.763  13.206   1.966  0.1019  0.1415  0.1609
19219W        W35113   7.557  16.909  13.262 -0.0429  0.2234 -0.0486
19220W        W35114   4.222  17.769  14.529  0.0820 -0.1028  0.0878
19221W        W35115   2.054  10.857  12.755  0.0100  0.2383  0.2971
19222W        W35116  14.028   2.375   2.045 -0.0739  0.0363 -0.0343
19223W        W35117  14.422  15.115  12.529 -0.0381 -0.1246  0.1737
19224W        W35118  14.619   5.131   0.046 -0.0627 -0.1304  0.2013
19225W        W35119   9.277   4.230   0.383  0.1525 -0.1057  0.6045
19226W        W35120   1.829   7.155   2.910  0.0702  0.2262 -0.2189
19227W        W35121  18.020   1.171  10.907  0.1078 -0.0580 -0.0854
19228W        W35122   2.832   5.029  15.228  0.2031  0.1457  0.2958
19229W        W35123   4.486   5.187  11.049  0.1795 -0.5301 -0.0070
19230W        W35124  12.522  13.314  12.329 -0.1557 -0.2087 -0.2629
19231W        W35125  14.147  10.471  13.965 -0.1283  0.0103  0.1277
19232W        W35126  15.915   5.140   1.963 -0.0628 -0.4692  0.1590
19233W        W35127  15.359   2.595  10.724  0.2008  0.0814  0.1732
19234W        W35128   8.132   6.050   0.144  0.3882  0.0584  0.1130
19235W        W35129  16.347   8.890   3.136 -0.0796 -0.0693  0.1274
19236W        W35130  14.573  17.538   1.604  0.0829  0.0856 -0.1626
19237W        W35131  10.547   5.037   4.567 -0.1004  0.1752 -0.0923
19238W        W35132   8.760  15.409   1.768 -0.0655 -0.1947 -0.0364
19239W        W35133   6.643  18.137  13.055  0.0150 -0.1252 -0.0296
19240W        W35134  10.606   8.691  15.060 -0.1080  0.0807 -0.0568
19241W        W35135  13.925   6.197   3.988 -0.1283  0.1735  0.0238
19242W        W35136   6.072   9.890  12.699 -0.1154  0.2419 -0.1118
19243W        W35137  14.663  14.405  14.189  0.1294  0.2043  0.6188
19244W        W35138  13.774   9.050   0.673  0.0964  0.2035 -0.3498
19245W        W35139   8.130  14.594  13.350  0.0132  0.0634  0.4868
19246W        W35140   1.072  14.589  12.417 -0.2550 -0.1289 -0.3451
19247W        W35141   3.887  14.404   3.502 -0.0209 -0.1265 -0.0118
19248W        W35142  13.535  11.843  13.375  0.3073 -0.1550 -0.1912
19249W        W35143   1.437   6.342   9.905  0.2018 -0.2474  0.1873
19250W        W35144   5.488   9.871   1.208  0.0238 -0.1519  0.0746
19251W        W35145  13.392  14.266   4.286  0.3131  0.1527  0.0230
19252W        W35146   4.850  18.482   0.193 -0.1332  0.0157 -0.3311
19253W        W35147  13.611  16.572   0.585  0.4021  0.2753 -0.0129
19254W        W35148  17.593  13.242   3.257  0.1130 -0.2565  0.1925
19255W        W35149   2.823  12.285   5.223  0.0845  0.0404 -0.0749
19256W        W35150   6.636  18.579   5.152  0.3576 -0.2635 -0.0479
19257W        W35151  11.576   7.563   6.397 -0.0043  0.1563  0.5613
19258W        W35152   6.493   9.048  13.164  0.0960 -0.0057 -0.1103
19259W        W35153  12.245   5.915   5.260  0.0122  0.0466  0.2072
19260W        W35154  17.056  10.723  12.776 -0.0274 -0.1076 -0.2152
19261W        W35155  17.130   3.201  13.328 -0.0517  0.1616  0.1614
19262W        W35156  10.696  15.216  14.295  0.0263  0.0001  0.2851
19263W        W35157   7.768   8.385  12.157  0.1101  0.1160  0.2622
19264W        W35158  14.224   6.158  10.994  0.2893 -0.1510 -0.0690
19265W        W35159   4.540  13.791   4.756  0.1701 -0.0677  0.1179
19266W        W35160   6.908   9.547  14.717 -0.2399 -0.0713  0.1690
19267W        W35161   8.302  14.160   4.627  0.1457 -0.0461 -0.1171
19268W        W35162   2.640  14.327   3.845  0.2121  0.2705  0.3902
19269W        W35163   1.842  12.856  14.756 -0.0503 -0.1423 -0.2269
19270W        W35164   2.193  16.256   2.738  0.0363 -0.1250 -0.3629
19271W        W35165  15.647  14.414  13.360 -0.0246  0.0424  0.3589
19272W        W35166   6.218   4.726  14.825 -0.2709  0.1585  0.2731
19273W        W35167   4.859   3.950   0.050 -0.0209 -0.1841 -0.0870
19274W        W35168  13.450   4.680   5.015  0.0882  0.4510  0.0641
19275W        W35169   4.591  17.421  14.549  0.0310  0.1929 -0.1780
19276W        W35170   6.868   2.182  11.206  0.3190  0.1945  0.3088
19277W        W35171  17.532   5.748  11.060 -0.0851 -0.0908  0.2419
19278W        W35172  12.959  14.131  11.758  0.1498  0.2288  0.3214
19279W        W35173   5.115   3.625   4.254  0.0829  0.2083  0.0649
19280W        W35174  10.793   7.312   1.961  0.0920  0.2417 -0.2646
19281W        W35175   1.076   8.996   2.964 -0.4004  0.2119 -0.2586
19282W        W35176  16.849   5.557   3.012  0.0852  0.0190 -0.0908
19283W        W35177  14.213  17.549   4.500  0.4838 -0.2511  0.3616
19284W        W35178  13.720  11.320  12.227  0.4652 -0.1026  0.0849
19285W        W35179  11.855  13.089   2.494  0.1938  0.5613  0.4151
19286W        W35180   9.055   6.629   0.514 -0.1337  0.2037  0.1333
19287W        W35181   4.581   7.734   2.523  0.0977 -0.1169  0.1763
19288W        W35182   0.696   1.082   3.928  0.6065  0.4407  0.0365
19289W        W35183  17.733   6.762  14.817  0.1857 -0.1530 -0.0592
19290W        W35184  14.805   2.136  11.892  0.0377 -0.0308  0.2185
19291W        W35185   6.439   6.651   3.220 -0.0725 -0.1353  0.1542
19292W        W35186   0.006   7.706  11.121  0.3991  0.1374 -0.0882
19293W        W35187   0.006  11.551   5.248 -0.1475 -0.1386 -0.2428
19294W        W35188  12.279   1.966  11.777  0.1226 -0.0577 -0.2602
19295W        W35189  14.772   3.927   1.178 -0.0657  0.0383  0.1946
19296W        W35190  10.812  13.411   4.314 -0.0132 -0.0111 -0.0163
19297W        W35191  14.307  12.680   5.307 -0.0542 -0.0057  0.0910
19298W        W35192   5.287   3.535  11.010  0.3145 -0.1080  0.4407
19299W        W35193   6.434  13.479   0.258  0.4604 -0.0082  0.0681
19300W        W35194  15.895   3.088  12.719 -0.2361 -0.1145 -0.0691
19301W        W35195   3.071   1.301  14.176  0.1639  0.1735  0.1104
19302W        W35196  17.732   7.978  12.115 -0.3211  0.1727  0.1113
19303W        W35197   9.383  18.222   4.236 -0.0492  0.0473  0.1217
19304W        W35198  16.296   1.542  15.544  0.0221 -0.0281 -0.0191
19305W        W35199   1.184   9.663   1.187 -0.1428  0.0663  0.0513
19306W        W35200  15.901  16.990  10.844 -0.0922  0.2722 -0.0273
19307W        W35201   2.380   4.420  14.430  0.3056 -0.3768 -0.1700
19308W        W35202   8.569   4.767  13.607  0.2325 -0.1189  0.2648
19309W        W35203   5.535  16.564  13.350  0.3311  0.1469 -0.0174
19310W        W35204   4.198  14.769  13.425  0.0453 -0.1261  0.4215
19311W        W35205  11.349   8.401   0.592 -0.1186  0.1936 -0.3327
19312W        W35206   3.811   5.271  13.193  0.0972  0.1025 -0.1024
19313W        W35207  18.687   9.902  11.658 -0.4037 -0.1096  0.0346
19314W        W35208  12.338  12.330  13.646  0.0584  0.0668 -0.0198
19315W        W35209   4.638   4.466  13.605 -0.0297 -0.1541 -0.3671
19316W        W35210   2.859   9.860   5.455 -0.0194  0.1863  0.0053
19317W        W35211  10.187   5.691  13.398  0.0322  0.0790  0.0442
19318W        W35212  16.887  17.803  13.242  0.2534  0.0229 -0.2282
19319W        W35213   3.101  17.388   9.838 -0.3258 -0.0785  0.0223
19320W        W35214  17.125   4.865   2.217 -0.0975  0.4595 -0.2465
19321W        W35215  17.344   1.376   3.068  0.0511 -0.1402 -0.1146
19322W        W35216  14.429   0.233  11.047 -0.1486  0.2469 -0.1882
19323W        W35217   3.331  14.254  12.405  0.0963 -0.0136 -0.2903
19324W        W35218   6.437  13.145  12.582 -0.0413 -0.0292 -0.2452
19325W        W35219  13.624   3.730  15.090  0.0121  0.0933 -0.3918
19326W        W35220  15.372   5.667   4.105 -0.1022 -0.0126 -0.1175
19327W        W35221  17.384  10.500   4.842  0.3398  0.0127  0.2108
19328W        W35222  16.008   8.734   6.061 -0.2908  0.0214 -0.2448
19329W        W35223   1.000  17.685  12.939  0.2373 -0.0888  0.1178
19330W        W35224  16.347  17.046   1.321 -0.0478  0.0585 -0.0472
19331W        W35225   3.356  15.294  13.281 -0.1006 -0.1451  0.2378
19332W        W35226   8.134   5.275  15.383 -0.1762 -0.2297 -0.2664
19333W        W35227   7.693  11.428  12.832  0.0070 -0.0570  0.0507
19334W        W35228   7.489  18.061   0.602 -0.1027 -0.0810 -0.0868
19335W        W35229  16.417   5.275   0.829 -0.0010  0.1030 -0.3547
19336W        W35230  15.240  15.347   4.902 -0.0360  0.1526 -0.1892
19337W        W35231  14.304  18.117  11.886 -0.1186 -0.2946  0.0573
19338W        W35232   1.438  14.754  15.453  0.0410  0.2295  0.2006
19339W        W35233   2.679   5.955  11.153  0.1521 -0.1524 -0.2413
19340W        W35234   2.776  12.282   3.350  0.0875  0.1072  0.1687
19341W        W35235   6.005  11.572  15.496 -0.2134  0.0145  0.0933
19342W        W35236  14.122  18.346  14.710 -0.1897 -0.1239  0.1239
19343W        W35237   4.954   8.226   4.284  0.1251 -0.2532 -0.1183
19344W        W35238  11.464  18.144  14.958  0.0796 -0.1567 -0.2823
19345W        W35239  13.992  13.386  11.251 -0.2419  0.2663 -0.0770
19346W        W35240   9.256   3.662   4.673 -0.2176  0.1674  0.2630
19347W        W35241  13.536   0.122  15.182  0.1161 -0.1361 -0.0239
19348W        W35242  10.769   7.482  13.907  0.0226 -0.1220  0.1322
19349W        W35243  11.573  13.514  15.584 -0.0407 -0.2130  0.0243
19350W        W35244   4.701  12.677   0.936 -0.0599 -0.1141  0.1515
19351W        W35245  16.302  16.021   0.391  0.0528 -0.2294 -0.0325
19352W        W35246  15.947  15.076   4.296  0.1661  0.1174  0.4252
19353W        W35247   4.668  18.178   2.676 -0.0009 -0.1531  0.1887
19354W        W35248   6.779   7.390  13.969 -0.1261 -0.1458  0.0684
19355W        W35249   2.510   5.947  10.520 -0.4182  0.2500  0.0891
19356W        W35250  10.603  15.467   1.053 -0.0232 -0.2543  0.0540
19357W        W35251  14.617   1.272  12.293  0.1569  0.0297  0.0172
19358W        W35252  12.569   5.693  11.377  0.1372 -0.4371  0.1472
19359W        W35253  10.925  16.338  14.385  0.0952 -0.1529  0.1812
19360W        W35254  15.896   6.347   1.375  0.1997 -0.1676  0.3313
19361W        W35255  17.530   7.173  12.741  0.2291  0.1527  0.0299
19362W        W35256   2.031  10.728  15.399  0.0785  0.1935  0.4758
19363W        W35257  18.071  17.145  11.194 -0.0861 -0.0446  0.1676
19364W        W35258   5.912  12.879   4.941  0.0244  0.1048 -0.1586
19365W        W35259   6.713   4.790   1.693  0.3416  0.1911  0.0080
19366W        W35260  13.034   9.053   4.090 -0.0904 -0.0180  0.0054
19367W        W35261   9.016  18.639  14.181  0.0983  0.0926 -0.1868
19368W        W35262   9.427  11.949  12.989 -0.1376 -0.0025 -0.1233
19369W        W35263   8.036  14.418   2.020 -0.1201 -0.3425 -0.1578
19370W        W35264  16.230   5.540   5.157  0.2837  0.0208 -0.0538
19371W        W35265   7.404   8.794   3.261 -0.3750 -0.1986 -0.0650
19372W        W35266   0.951  16.048   0.822  0.0902 -0.2967  0.0664
19373W        W35267  14.689  15.292   0.366 -0.0057  0.0376 -0.1835
19374W        W35268  17.625  10.601  12.513  0.0404  0.4133 -0.5916
19375W        W35269   9.707   2.371   4.726  0.1179  0.0458  0.2459
19376W        W35270   4.498   3.583   4.910 -0.0544  0.3960 -0.0222
19377W        W35271  11.978   6.153   5.631 -0.0198 -0.2353 -0.2453
19378W        W35272  11.640   4.236   4.346 -0.1530  0.2204 -0.0257
19379W        W35273   5.488   3.753   3.412  0.1087 -0.1159  0.0716
19380W        W35274   9.467  17.931  10.654  0.0818  0.0749  0.2742
19381W        W35275  11.737   1.916  13.652 -0.3530 -0.0424 -0.1860
19382W        W35276  14.554  12.790   0.704 -0.2544  0.2281 -0.2384
19383W        W35277  13.219   9.309   5.440 -0.2183  0.0881 -0.1056
19384W        W35278  17.644  17.657  10.991  0.1486  0.2938  0.1053
19385W        W35279  12.484   1.828  13.460  0.0982 -0.2477 -0.0447
19386W        W35280   0.224  10.273  11.429 -0.1660  0.0519  0.4138
19387W        W35281  12.105   2.678   5.225  0.3092  0.1186 -0.1211
19388W        W35282   2.943  15.235   4.617 -0.0136 -0.0122 -0.1221
19389W        W35283  13.605  18.179  13.874 -0.3188  0.1280 -0.1304
19390W        W35284  17.698   7.185   1.804  0.2639  0.0111  0.0331
19391W        W35285   0.244   2.157   3.241 -0.2035 -0.0220  0.0980
19392W        W35286   7.331  15.964   0.173  0.2635 -0.0154  0.3197
19393W        W35287   7.124   5.260  12.268  0.0431 -0.0099 -0.4387
19394W        W35288  14.129  10.949  12.420  0.0198  0.0613 -0.1862
19395W        W35289   6.141  10.640   9.828 -0.0563 -0.0411  0.0503
19396W        W35290   5.330   0.700  13.697  0.0385  0.0154 -0.0440
19397W        W35291  13.110  16.493  12.507 -0.2440 -0.1500  0.1451
19398W        W35292   2.751  17.330  10.523  0.2284 -0.0299  0.1938
19399W        W35293   8.805   5.383  15.258  0.0240  0.2071  0.1944
19400W        W35294  16.737   5.694   3.824  0.1400 -0.1623 -0.0280
19401W        W35295   8.057  16.728  14.708  0.0608 -0.2934  0.0626
19402W        W35296   3.774   7.260   2.767 -0.1160  0.2624  0.0499
19403W        W35297  11.040  11.673   3.087 -0.1932  0.1435  0.0176
19404W        W35298  12.045   4.419  14.320  0.1985  0.1664  0.0904
19405W        W35299   9.052   3.529  13.237  0.5947  0.0590 -0.2037
19406W        W35300  15.334   9.099   3.856 -0.0804 -0.0308 -0.0153
19407W        W35301   8.152   1.842   5.103  0.3752  0.1165  0.2017
19408W        W35302   1.108   6.322   2.494 -0.1045  0.0393  0.1520
19409W        W35303   6.733  13.056   0.327 -0.1264 -0.1474 -0.1469
19410W        W35304   5.266  14.805   4.636  0.3257  0.2510  0.4912
19411W        W35305  16.573   3.055   0.855 -0.1728  0.0667  0.2613
19412W        W35306  18.044  16.563  14.846 -0.3569 -0.1116  0.3131
19413W        W35307  17.048  13.842   4.912 -0.0775  0.0267 -0.0085
19414W        W35308   0.578  13.579   5.403  0.0708 -0.0440 -0.3164
19415W        W35309  13.708   5.259   0.860  0.0054  0.2037 -0.0699
19416W        W35310  17.977  16.056   1.239  0.0379  0.1341  0.4190
19417W        W35311  17.342  11.346  14.421 -0.1486 -0.1870 -0.1653
19418W        W35312  18.736  13.356   2.383  0.2966  0.0129  0.7029
19419W        W35313   2.488  18.019   3.783 -0.3303  0.0333 -0.0130
19420W        W35314  11.206   4.834   3.924  0.1946  0.1791 -0.0133
19421W        W35315   6.502  11.828  12.919  0.0892  0.0215  0.0970
19422W        W35316  17.159  11.457   5.625 -0.0517 -0.1818  0.0097
19423W        W35317  12.472  18.644  13.568  0.3006 -0.1263 -0.2628
19424W        W35318  14.607  12.546   0.239  0.1356  0.0250 -0.3400
19425W        W35319   3.525   2.902  13.851  0.0637  0.3413 -0.3504
19426W        W35320   3.797   3.445  14.800  0.1065  0.1481 -0.2296
19427W        W35321  10.176  13.074  14.281 -0.0454  0.1028  0.0039
19428W        W35322  18.696   3.385  10.872  0.2812 -0.2379 -0.0435
19429W        W35323  12.330   0.773   0.915 -0.3018  0.0433  0.1947
19430W        W35324   5.849  11.894  14.388 -0.2607 -0.0349  0.0557
19431W        W35325  16.413   5.926  12.595  0.1197  0.2959  0.1047
19432W        W35326   1.432  14.567  12.796  0.3091 -0.0864  0.0845
19433W        W35327   0.288   1.503   3.277 -0.0054  0.3415 -0.1181
19434W        W35328   0.649  16.686  11.914  0.1131  0.0151 -0.1583
19435W        W35329  11.206  14.187   4.575  0.1126  0.2020 -0.0667
19436W        W35330  12.619   4.828  11.225  0.1473  0.0094  0.1243
19437W        W35331   8.692  10.559   1.705 -0.0516 -0.0404 -0.1181
19438W        W35332   3.501   9.950   2.880  0.1243 -0.0023 -0.0914
19439W        W35333   8.366   6.734  12.540  0.2873 -0.0478  0.0763
19440W        W35334   7.780   0.493   2.761  0.5264  0.0849  0.0349
19441W        W35335  15.136  17.192  11.312  0.0075 -0.0092 -0.1339
19442W        W35336  13.061  12.490  12.600  0.0426  0.1118  0.1158
19443W        W35337  13.670  11.204   1.798  0.0602 -0.2848  0.3324
19444W        W35338  16.013  10.697  15.444 -0.0738 -0.0446  0.0846
19445W        W35339  17.508  11.861   2.746  0.2634 -0.0316  0.0241
19446W        W35340   6.509   2.622  13.221 -0.1960 -0.1108  0.1714
19447W        W35341  16.100   3.444  14.145  0.2712  0.1453 -0.0745
19448W        W35342   6.392   2.643  11.884  0.2004 -0.0119  0.0119
19449W        W35343   6.286  13.294   9.861 -0.2099 -0.2342 -0.0761
19450W        W35344  12.985  18.352   1.132  0.1439 -0.1917  0.0490
19451W        W35345  11.656   9.392   3.371 -0.0044  0.0617 -0.0102
19452W        W35346  11.040   3.493   3.572  0.1228 -0.1466 -0.1418
19453W        W35347   7.390   4.015  15.431 -0.2497 -0.3273 -0.0129
19454W        W35348  12.133  18.441  15.576  0.0997 -0.0793  0.0848
19455W        W35349  12.011  15.835   3.675  0.2581  0.0572 -0.1679
19456W        W35350  16.900  18.322  10.094 -0.0654 -0.0889 -0.3618
19457W        W35351  15.046   6.813   6.200  0.0544 -0.1448 -0.1574
19458W        W35352  14.587   7.197  12.578 -0.1043 -0.2769 -0.0972
19459W        W35353   8.513   2.350  14.771 -0.2322 -0.2277 -0.0779
19460W        W35354  16.349   2.194  14.681 -0.0394  0.3094 -0.1864
19461W        W35355   9.330  10.758   2.865  0.1904 -0.0810 -0.1192
19462W        W35356   0.997   4.798   3.884 -0.1059  0.0799  0.1212
19463W        W35357  12.339  13.681   0.992 -0.0596 -0.3123  0.0220
19464W        W35358  11.294   0.435   4.660 -0.2496 -0.0638 -0.1822
19465W        W35359   8.861   2.116   3.627  0.1519 -0.3420 -0.3791
19466W        W35360   3.741  12.907   1.460 -0.2475  0.0182  0.2734
19467W        W35361  15.751  14.533   5.864 -0.2245  0.0792 -0.1288
19468W        W35362  11.417   0.711   2.354 -0.1541 -0.1897  0.2085
19469W        W35363   1.876   9.307  15.047  0.3262 -0.2067  0.2120
19470W        W35364  17.081  14.538  14.286  0.1106 -0.0797  0.3015
19471W        W35365   4.042  18.638  10.466 -0.2044 -0.1500 -0.1258
19472W        W35366   2.092   3.967   5.511 -0.0154  0.0883  0.1924
19473W        W35367   8.897  10.602   1.124 -0.2156 -0.1473  0.0714
19474W        W35368  14.933   3.037  12.674 -0.1450  0.2607 -0.3659
19475W        W35369  16.210   1.802   4.611  0.2110 -0.0777  0.1327
19476W        W35370  16.559  18.281   1.189  0.2231  0.1068 -0.0076
19477W        W35371  14.760  15.117  11.297  0.2355 -0.0572  0.0504
19478W        W35372   3.159   4.346  11.455  0.1200  0.2200  0.2097
19479W        W35373   2.569   7.615  10.621  0.0242  0.2578 -0.2029
19480W        W35374  18.571  13.784   1.177  0.3538 -0.1710 -0.0998
19481W        W35375  10.420   9.778   2.784  0.0507  0.2018  0.3676
19482W        W35376   8.579  10.374   6.299  0.2334 -0.1824 -0.0748
19483W        W35377  10.588   7.071   3.333 -0.3090 -0.0881 -0.3683
19484W        W35378  12.198  15.546   3.042 -0.3179 -0.3404 -0.0117
19485W        W35379  12.096   0.684  11.933  0.0979  0.1670 -0.1635
19486W        W35380  10.153  18.362   0.362  0.1587 -0.0479 -0.1607
19487W        W35381   3.957   6.752  11.392 -0.0040  0.0088 -0.2544
19488W        W35382  15.246   3.488   0.298 -0.1502 -0.1027  0.0474
19489W        W35383   1.751   5.397   1.460 -0.1985 -0.0573 -0.1829
19490W        W35384   5.191   1.141   4.563 -0.1483 -0.1401 -0.1450
19491W        W35385  18.678  15.608   3.706 -0.0368  0.1146 -0.2937
19492W        W35386  17.272  14.505  15.601 -0.1242  0.1358 -0.0385
19493W        W35387  12.702  12.398   4.546  0.1058  0.0924 -0.1092
19494W        W35388  14.633  13.089   5.533 -0.1396  0.7655 -0.1221
19495W        W35389  12.526  10.175   3.284  0.1503 -0.4429 -0.2766
19496W        W35390  10.383   6.647   1.303 -0.3297  0.1233  0.0789
19497W        W35391  16.381  14.182  11.264 -0.0113  0.4137 -0.1486
19498W        W35392   8.009  16.369  10.941 -0.2200 -0.1197  0.0751
19499W        W35393  11.651  14.159   4.772  0.0317 -0.1898 -0.2653
19500W        W35394  17.069   2.923   1.138 -0.1683 -0.0196  0.2578
19501W        W35395   7.698   1.593   4.313 -0.2669 -0.1657  0.0460
19502W        W35396  13.618   4.048  11.439 -0.0878 -0.1438  0.5168
19503W        W35397   7.575   3.249   0.794  0.2364 -0.1457  0.2380
19504W        W35398  11.669   5.679  12.359  0.1941 -0.1915 -0.4780
19505W        W35399   2.866  12.508  11.625 -0.0291  0.2287  0.1302
19506W        W35400  14.138   7.684  14.381 -0.1373  0.0110 -0.0065
19507W        W35401   9.561  18.586   2.124  0.0142  0.1109 -0.0136
19508W        W35402  16.890  10.613  14.002 -0.2568  0.3027  0.0203
19509W        W35403   1.611   3.473   2.341  0.1537 -0.0229  0.4492
19510W        W35404   8.018  18.374   4.833 -0.0604 -0.1402  0.1297
19511W        W35405  17.067   3.898  13.822  0.2840 -0.0273 -0.4803
19512W        W35406   4.687   2.361  15.394 -0.1571  0.3593  0.0689
19513W        W35407   0.615  17.834   5.350 -0.0625 -0.3195 -0.2577
19514W        W35408   6.436   9.661  14.830  0.1138  0.4041  0.0168
19515W        W35409  15.796   4.259  13.540  0.0772 -0.0007 -0.0727
19516W        W35410   1.979  11.954  10.919  0.0762  0.0087 -0.0531
19517W        W35411  13.810  11.466   0.826 -0.2377  0.1751  0.1358
19518W        W35412  11.190   9.105   1.166 -0.0255 -0.1048  0.0340
19519W        W35413   6.436  14.853   0.352 -0.1401  0.2606 -0.1038
19520W        W35414  14.689  16.408   0.934  0.1444  0.0097 -0.0832
19521W        W35415  11.052  12.531   4.027 -0.0952 -0.1064  0.1647
19522W        W35416   8.636  17.936   4.541  0.0495 -0.0466  0.3601
19523W        W35417  10.493   4.414  12.531  0.1010  0.0046 -0.1347
19524W        W35418   2.733  18.742  13.381  0.3046  0.2498  0.2001
19525W        W35419   8.965   4.877   2.653 -0.2388  0.0834 -0.2752
19526W        W35420   1.212  11.758  11.389 -0.2118  0.1303 -0.4266
19527W        W35421  15.394  17.974   4.920  0.1174 -0.0467  0.0301
19528W        W35422  18.024  10.459   0.819  0.1564  0.1060 -0.0188
19529W        W35423   0.938  17.358   0.572 -0.0231 -0.0734 -0.3496
19530W        W35424   2.912   3.539   0.715 -0.0334 -0.1745 -0.2825
19531W        W35425  16.057   9.369   4.484 -0.0417 -0.2092  0.1083
19532W        W35426   8.969   9.188  12.718 -0.0912 -0.0387 -0.0496
19533W        W35427  13.666   9.519   5.476 -0.1828 -0.3820 -0.2210
19534W        W35428   1.750   0.625  13.778  0.2314 -0.2525 -0.2003
19535W        W35429   4.706  14.818  13.187  0.0511 -0.1821 -0.0790
19536W        W35430   4.418  14.412   0.700  0.1186 -0.0630 -0.3360
19537W        W35431  12.832   7.769   5.389  0.0494 -0.0146 -0.0711
19538W        W35432  18.408  15.377   1.827 -0.0052 -0.2896 -0.2040
19539W        W35433   9.514  10.961  11.768  0.2403  0.2925 -0.1327
19540W        W35434   9.176   3.538   9.863  0.0662  0.1270 -0.3381
19541W        W35435   0.096  18.196   3.277 -0.1299  0.0288 -0.0695
19542W        W35436   2.163  15.196   3.281  0.0288 -0.0956 -0.0076
19543W        W35437   4.162  15.408  11.489  0.0698  0.2127  0.0405
19544W        W35438   6.100   4.817   3.460  0.0989 -0.3334 -0.1543
19545W        W35439   7.231   6.617  13.405 -0.3191  0.1778 -0.1700
19546W        W35440  16.142   9.807   0.264 -0.0918  0.1378 -0.2041
19547W        W35441   4.172  13.334  14.966  0.1068 -0.1346  0.3040
19548W        W35442   1.763  12.236   0.773 -0.0551  0.0329 -0.2330
19549W        W35443   0.390  14.414  15.400  0.2032 -0.2323  0.0191
19550W        W35444  18.661  17.902   2.035  0.0272  0.0930  0.1295
19551W        W35445   4.625  11.516   2.434 -0.0235 -0.1738  0.2639
19552W        W35446   1.367  15.043  11.725 -0.0700  0.3281 -0.1167
19553W        W35447   1.861   9.737   0.921  0.4287 -0.0503 -0.0884
19554W        W35448   4.062   3.662  14.046 -0.2223  0.1437  0.1170
19555W        W35449  13.645  18.277  12.446  0.1095 -0.2604 -0.1847
19556W        W35450   6.068  14.016  11.514  0.1464 -0.1770 -0.1943
19557W        W35451   4.783  17.374   1.722  0.0177 -0.2222  0.2060
19558W        W35452   7.238  12.998   4.393  0.0121  0.4046 -0.1182
19559W        W35453   9.183   5.573  14.834  0.0920  0.0605  0.0985
19560W        W35454  15.295   7.512  10.852 -0.1352 -0.1954 -0.1740
19561W        W35455  17.242  13.317   2.861 -0.1750 -0.2062 -0.1552
19562W        W35456   1.274   7.067  12.342  0.0988  0.0311 -0.0454
19563W        W35457  14.795  18.447  13.465 -0.0904 -0.1219  0.1059
19564W        W35458   3.492   9.493   3.090  0.2161 -0.1487 -0.0093
19565W        W35459   5.627  17.879  14.332 -0.3144  0.0654  0.1989
19566W        W35460   6.488  16.487   4.032 -0.0540 -0.1832  0.0159
19567W        W35461  18.736   4.362  15.426  0.0421 -0.1041 -0.1035
19568W        W35462  17.794  17.144   2.475  0.0046 -0.0482 -0.0841
19569W        W35463   5.538   6.856   4.112  0.1638 -0.1392 -0.0449
19570W        W35464   6.824  10.978  10.253  0.0900 -0.0043 -0.5121
19571W        W35465   7.281  17.476  12.718 -0.2547  0.1724 -0.1046
19572W        W35466   2.068  18.406   3.424 -0.0897 -0.3166 -0.0787
19573W        W35467  16.938   6.118   0.545  0.0587 -0.6416 -0.1024
19574W        W35468  18.386   1.631  14.009 -0.0114 -0.0558 -0.1382
19575W        W35469  12.437   9.662   1.272  0.1543 -0.1895 -0.0751
19576W        W35470   4.571   9.952  10.738  0.0510  0.2838  0.2427
19577W        W35471   7.213   4.163   4.690 -0.1549  0.1628 -0.0350
19578W        W35472  12.963  14.946   2.604  0.3716  0.2837 -0.0745
19579W        W35473  15.096   8.296  14.216  0.0416 -0.1859 -0.4908
19580W        W35474   5.711  13.084  12.604  0.1069  0.0792  0.0535
19581W        W35475   4.105   6.925  15.197  0.0439 -0.0672 -0.0451
19582W        W35476  11.842  18.292   5.488 -0.3221 -0.3012  0.0226
19583W        W35477  18.753   9.959   0.656  0.1071 -0.0435  0.4344
19584W        W35478  15.517  17.183   3.955 -0.0167  0.1377 -0.2254
19585W        W35479  13.440   4.981   2.457 -0.0896  0.1778 -0.1260
19586W        W35480  13.524   7.988   2.604  0.2887  0.1125 -0.1704
19587W        W35481  15.361   4.548   4.070  0.0308 -0.4165  0.2775
19588W        W35482   1.405  12.567   3.379  0.3527  0.2180  0.2199
19589W        W35483   5.628   7.270   3.001 -0.0245  0.1430  0.1964
19590W        W35484  14.136  10.784   4.842  0.2086 -0.0933  0.3158
19591W        W35485  16.470  16.088   4.668 -0.0056 -0.1854  0.2641
19592W        W35486   4.869   7.953   0.351  0.0629 -0.0460 -0.1304
19593W        W35487   9.275   2.529  14.099 -0.6304  0.0598 -0.0009
19594W        W35488  14.121   4.961  14.472  0.0507 -0.2795 -0.2846
19595W        W35489   1.034   8.689  13.347  0.3302  0.0665 -0.1244
19596W        W35490  12.471   6.538  11.919  0.1274  0.0621 -0.0678
19597W        W35491  12.505   2.079   3.200 -0.1535  0.1801 -0.0730
19598W        W35492  16.263  13.896   0.615 -0.1167  0.2096 -0.1675
19599W        W35493  14.376   2.556   3.872  0.1980 -0.2215  0.3026
19600W        W35494   8.779   8.599  11.226 -0.1228  0.1713 -0.1163
19601W        W35495   8.505  18.266   3.295 -0.0922 -0.4259 -0.2062
19602W        W35496   5.390   0.497  14.666 -0.0818 -0.1899  0.1923
19603W        W35497  17.220  18.631   3.458 -0.0304  0.1540 -0.1193
19604W        W35498   5.980   3.539   3.250 -0.0460 -0.2869  0.1983
19605W        W35499   6.452  13.856   3.464 -0.2394  0.0239  0.0009
19606W        W35500  15.729  13.398  11.856  0.3519  0.2011  0.0390
19607W        W35501  13.035   0.460  12.277  0.3403  0.0706  0.1763
19608W        W35502   7.636   4.167   0.257 -0.0160 -0.1093  0.1405
19609W        W35503  17.585   2.019   4.113 -0.0446  0.0200  0.1031
19610W        W35504   2.874  17.578   0.769  0.0340  0.1954 -0.1918
19611W        W35505  12.744  17.818  12.546 -0.0027  0.1298  0.1223
19612W        W35506   6.761  16.413   5.295  0.3623 -0.2760  0.0342
19613W        W35507   5.556  10.819  12.632 -0.0523  0.0054  0.1247
19614W        W35508  14.315   8.052  15.433 -0.2236 -0.2091  0.2565
19615W        W35509   8.386   4.921  11.639  0.1934  0.2194 -0.1413
19616W        W35510   4.493   2.449  11.539  0.2336 -0.4396  0.1154
19617W        W35511  12.672   5.062  12.583 -0.0714  0.0392  0.3023
19618W        W35512  16.777   0.117   1.191 -0.0966  0.0052  0.3260
19619W        W35513  17.717   8.939  15.338 -0.0061 -0.0030  0.1714
19620W        W35514  14.604   4.289  14.274  0.3636 -0.2178  0.1058
19621W        W35515   7.588  11.912  11.441 -0.0988 -0.1609  0.0963
19622W        W35516   7.605   3.312   5.106 -0.1324 -0.2345 -0.1333
19623W        W35517   7.341  16.688  10.561 -0.2549 -0.0728 -0.1412
19624W        W35518  15.197   6.551   1.748  0.1153  0.2388 -0.0102
19625W        W35519   1.309   9.819  11.437  0.1873 -0.0649  0.0491
19626W        W35520   4.542  13.503  10.988  0.2828 -0.1165 -0.0926
19627W        W35521  16.584  16.867   3.810  0.2876 -0.2217  0.1352
19628W        W35522   1.194  13.725  12.370  0.0261 -0.2719 -0.2015
19629W        W35523  16.731   9.862  12.674 -0.1751  0.1181  0.3424
19630W        W35524  13.318  15.841   2.353 -0.0023  0.1506  0.0095
19631W        W35525  15.298  17.125   4.422 -0.1715 -0.1098  0.1971
19632W        W35526  10.507   4.721   3.182 -0.0029  0.0593 -0.0834
19633W        W35527   0.510  18.542  14.952  0.0183  0.1385 -0.2499
19634W        W35528  12.054   7.380   2.387 -0.2385  0.1599 -0.4443
19635W        W35529   1.707   0.727   2.690 -0.2345  0.0693 -0.0837
19636W        W35530  16.781   7.836  13.391  0.2136  0.0805  0.3253
19637W        W35531  16.669   7.455  13.060  0.0993 -0.2138 -0.1084
19638W        W35532  16.270   6.462   5.073 -0.1151  0.0836  0.1130
19639W        W35533  18.224   0.933  14.520  0.0482  0.1401  0.2056
19640W        W35534  15.824   6.066  11.780 -0.0789  0.0577 -0.0974
19641W        W35535   2.290   5.995   1.921  0.2430  0.2026 -0.0190
19642W        W35536  13.528   6.135   5.504 -0.3092 -0.2751 -0.1134
19643W        W35537   1.963   2.055   0.715 -0.2587  0.3570 -0.0676
19644W        W35538   3.582  10.187  15.335 -0.3610 -0.1426 -0.2501
19645W        W35539   8.668   8.593  13.696 -0.0806  0.0412  0.4130
19646W        W35540   9.602  17.509  13.396  0.1731  0.4447 -0.1683
19647W        W35541   5.833   6.251   0.312 -0.0490 -0.0319 -0.3494
19648W        W35542  18.000   8.423  12.198  0.2719  0.2007  0.1786
19649W        W35543  14.952   1.849  11.322 -0.2242  0.2800  0.0760
19650W        W35544  12.474  11.953  13.992 -0.2631 -0.3181  0.1167
19651W        W35545  11.554  17.326   1.873  0.2483  0.0020  0.2633
19652W        W35546   3.235   7.761   3.963 -0.4090 -0.0528 -0.0112
19653W        W35547  17.094  12.456   5.390  0.0254 -0.0388 -0.1448
19654W        W35548   0.118  11.949  12.351 -0.2511  0.0906  0.0327
19655W        W35549   6.988   9.934   2.844  0.0845 -0.1101  0.2565
19656W        W35550  12.617   3.436  15.004  0.1356  0.1564  0.1908
19657W        W35551  11.299   4.947  13.222  0.1318  0.1511 -0.0489
19658W        W35552  16.754  18.582   5.789  0.0429  0.2685 -0.2901
19659W        W35553  12.528   7.453   1.940 -0.1174  0.2598 -0.4918
19660W        W35554  11.856   9.718   5.213  0.1885  0.0064 -0.1152
19661W        W35555   4.918   4.945  11.085 -0.5505  0.1357 -0.3203
19662W        W35556  16.493  16.843   0.242  0.1553 -0.2726  0.0498
19663W        W35557   9.348   9.652  14.253  0.1024 -0.0512 -0.1407
19664W        W35558   0.150   4.619   2.358  0.1678  0.0187 -0.2499
19665W        W35559  17.979   9.207  14.414 -0.2401 -0.0237  0.1701
19666W        W35560   3.074  13.913   0.576 -0.1128  0.2622  0.0460
19667W        W35561  10.725   7.940  14.479 -0.0188  0.1422 -0.0945
19668W        W35562  11.914  14.294  10.974  0.3233  0.1120 -0.2700
19669W        W35563  12.935   5.876  11.087 -0.1600 -0.3349  0.1702
19670W        W35564  11.188   7.556   2.205 -0.2867 -0.0955  0.1911
19671W        W35565  18.476  15.063  14.331  0.0606  0.1898 -0.0412
19672W        W35566  11.094   0.784  12.725  0.0424  0.0620  0.1404
19673W        W35567  13.990   5.196  11.123 -0.0978  0.2044 -0.0444
19674W        W35568   8.051   4.633   2.744 -0.3308 -0.2631 -0.0609
19675W        W35569   9.484  16.781   0.247 -0.4472 -0.0395  0.0697
19676W        W35570   6.297  13.789  11.878  0.0366 -0.2556  0.3024
19677W        W35571  16.247  11.933   4.944  0.2937 -0.1095  0.3102
19678W        W35572  14.729   0.901  12.516  0.1662 -0.1150 -0.0966
19679W        W35573  11.348  15.552   1.216 -0.4087 -0.0656  0.0826
19680W        W35574  12.655   4.486   2.464  0.1951 -0.0415 -0.3165
19681W        W35575   3.295  17.209   5.812 -0.0673 -0.1497  0.2066
19682W        W35576   4.638  18.051   1.035  0.1265  0.2256 -0.2923
19683W        W35577   6.020   3.835  14.632  0.1686  0.2958 -0.1398
19684W        W35578  15.557  15.358   4.489  0.0357 -0.2987 -0.0355
19685W        W35579  15.597   0.980  12.647  0.1468 -0.3983 -0.2321
19686W        W35580  17.845   4.609   5.322  0.0075 -0.1243  0.3987
19687W        W35581   3.585  15.102   1.214 -0.0791  0.1982  0.1084
19688W        W35582  15.176   8.389  15.402  0.0166  0.1003  0.0384
19689W        W35583   8.895   2.410   0.325 -0.0829  0.0253  0.0474
19690W        W35584  10.402  16.052   1.590  0.0890 -0.3537  0.1412
19691W        W35585  13.508   4.911   4.338  0.0031  0.2531  0.3401
19692W        W35586   9.545   6.802  12.961  0.0665  0.2738 -0.0145
19693W        W35587   7.478   4.088   1.682 -0.0486  0.0420 -0.0686
19694W        W35588  12.219   1.386   2.669 -0.1032 -0.1871  0.0528
19695W        W35589   7.330  10.986   1.588 -0.2821 -0.2430 -0.1550
19696W        W35590   1.273   9.727  13.413 -0.0467 -0.0452 -0.3846
19697W        W35591  17.066   6.165   4.473 -0.1088  0.1050 -0.1164
19698W        W35592   3.361  17.143  15.518  0.3051  0.1468 -0.0755
19699W        W35593   9.504  14.345  13.789  0.2625  0.2870 -0.1345
19700W        W35594  12.689  13.181   6.152 -0.3361 -0.0527  0.1171
19701W        W35595   8.787  11.208   3.206  0.3056  0.0512  0.0493
19702W        W35596   0.623   4.608   4.878 -0.1446 -0.0075  0.0749
19703W        W35597   0.321  14.048   4.874  0.2707  0.0142  0.0049
19704W        W35598   1.409  16.364   0.791 -0.0592 -0.1199  0.2275
19705W        W35599  14.732   1.743  13.933 -0.2123 -0.0772  0.1637
19706W        W35600   3.789   7.615   1.815 -0.1164 -0.3273  0.0909
19707W        W35601   7.669   1.175   2.459  0.0053  0.0505 -0.2820
19708W        W35602   7.467   4.333   0.764  0.2432  0.1011  0.2293
19709W        W35603   0.616  12.963  13.488  0.2949  0.1273 -0.1864
19710W        W35604  16.789  12.131  14.331 -0.0220  0.1104  0.0108
19711W        W35605   7.695   9.684  10.889 -0.1377 -0.0217 -0.1962
19712W        W35606   3.054   6.489   1.232 -0.1647 -0.1039  0.0655
19713W        W35607   7.301   9.615  15.573 -0.3317 -0.0186 -0.4174
19714W        W35608   2.750   2.656   2.340 -0.1629 -0.1551 -0.0091
19715W        W35609  12.458   8.915   2.317 -0.2827 -0.5135 -0.1651
19716W        W35610   8.123  11.208   4.217 -0.1445  0.1304 -0.0021
19717W        W35611   9.662   9.989   3.633  0.1584  0.2094  0.1714
19718W        W35612  11.347  10.133   4.448  0.1275 -0.2239 -0.1253
19719W        W35613  13.136  13.826   0.012  0.1843  0.0597 -0.3372
19720W        W35614   1.333  18.631  12.957 -0.3459  0.2322 -0.0206
19721W        W35615   4.680   7.848   4.470 -0.2102 -0.1460  0.4912
19722W        W35616   9.031   7.600   0.765 -0.2574  0.1248 -0.0262
19723W        W35617  17.969  17.319  10.763 -0.1407 -0.0547  0.2854
19724W        W35618   4.506   0.464   2.840  0.0500  0.0774 -0.1304
19725W        W35619  16.906  18.410   2.416 -0.0272  0.1415  0.3505
19726W        W35620   0.284   5.334  14.408 -0.0301 -0.0709  0.0650
19727W        W35621   5.532  11.671  14.160  0.1542 -0.2441  0.1111
19728W        W35622  13.924   5.477   0.497  0.1415 -0.0157 -0.1325
19729W        W35623   8.249  12.848  11.609 -0.0492  0.2899  0.1029
19730W        W35624   1.685  10.267  14.030 -0.1908  0.0018  0.0225
19731W        W35625   8.157  15.989   1.451 -0.2482  0.3420 -0.1554
19732W        W35626  15.759   9.715  14.850  0.0839 -0.2992 -0.2838
19733W        W35627   0.588   1.070   4.942  0.0269  0.1240 -0.1316
19734W        W35628  15.465   5.274  15.159 -0.2067  0.2139 -0.0747
19735W        W35629  14.591  13.268   2.891  0.1077 -0.2071 -0.2960
19736W        W35630  14.225  14.065   2.955  0.0155  0.3847 -0.3935
19737W        W35631   7.131  16.231  13.217  0.1369  0.0919 -0.0803
19738W        W35632   1.531  16.347  12.841 -0.1091 -0.0437 -0.0143
19739W        W35633   1.955  12.253   3.158 -0.0454  0.1833 -0.0181
19740W        W35634   9.764   7.655   2.518  0.0083 -0.1680 -0.1885
19741W        W35635  17.750  12.274  14.104 -0.2398  0.3252 -0.1147
19742W        W35636   3.293  18.592   2.377  0.2189 -0.0335  0.0387
19743W        W35637  10.630  13.715   2.502 -0.0600 -0.0976 -0.1786
19744W        W35638  17.372   3.925   0.959  0.3214 -0.2116 -0.1889
19745W        W35639  14.793  11.896  11.898  0.0187 -0.1069 -0.2601
19746W        W35640   0.458  11.738  13.669 -0.0409 -0.0873  0.2062
19747W        W35641   0.849  16.482  12.387  0.0648 -0.0810  0.0417
19748W        W35642   8.259   6.272  11.340 -0.3534 -0.1804 -0.3503
19749W        W35643  11.662   8.072   4.443 -0.0149  0.0841 -0.1673
19750W        W35644  12.999  15.616  12.906 -0.1510  0.1259  0.2148
19751W        W35645   3.874  18.313  10.750  0.2983  0.1679 -0.1687
19752W        W35646   5.689  13.337  15.309 -0.0657  0.1033  0.5049
19753W        W35647   8.543   1.894  14.404  0.1195  0.0461  0.4207
19754W        W35648   3.058   5.605  13.053 -0.1531 -0.0934 -0.2990
19755W        W35649  16.333  13.606   4.491 -0.0893 -0.0359  0.1456
19756W        W35650  17.324   8.182   4.682 -0.0081 -0.1885  0.1187
19757W        W35651   3.017   4.507   1.628 -0.3859 -0.0890  0.2028
19758W        W35652  11.276   6.495   0.220 -0.0089  0.1662  0.1620
19759W        W35653   9.711   5.956  15.131  0.4360  0.3224  0.0305
19760W        W35654  15.756  14.036   2.986  0.3450 -0.0510  0.3718
19761W        W35655   0.107   7.116  14.072  0.0552 -0.3251 -0.0495
19762W        W35656  13.643   3.097  15.093  0.2037 -0.1704 -0.0636
19763W        W35657   9.087  16.208  10.714  0.2425 -0.2576  0.4095
19764W        W35658  11.202  14.874   2.576  0.1383  0.2394  0.1925
19765W        W35659   5.356  13.294   3.566 -0.0660 -0.2400 -0.0817
19766W        W35660  12.927   0.436  11.328  0.0992 -0.1920  0.1834
19767W        W35661   8.300  15.986  13.936  0.1441  0.0586  0.1560
19768W        W35662   5.647  14.391   0.301  0.0903 -0.2194 -0.0777
19769W        W35663  15.002   8.559  11.983  0.1970 -0.0639 -0.0674
19770W        W35664  18.717   6.057   1.221  0.1121  0.1284  0.0791
19771W        W35665  16.142  13.474   4.959 -0.0654 -0.1721 -0.0614
19772W        W35666   9.894  13.702   1.785  0.1956 -0.0347  0.2193
19773W        W35667   5.153   9.503   5.923 -0.0691 -0.0729 -0.1537
19774W        W35668  15.888   3.882   5.129  0.0267  0.0711 -0.3571
19775W        W35669   2.084  10.452   3.928 -0.0041  0.0306  0.0755
19776W        W35670  17.849   6.810  12.321 -0.2286  0.0317 -0.2364
19777W        W35671  10.356  17.866   0.179 -0.2087 -0.0397  0.1704
19778W        W35672   8.129  13.708  12.993  0.0210  0.1524 -0.0070
19779W        W35673   1.970  13.427   5.062 -0.1033  0.0028 -0.0321
19780W        W35674  12.622  15.296   2.244 -0.0189 -0.1496 -0.0018
19781W        W35675   8.020  14.321  12.597 -0.2150 -0.0800 -0.0900
19782W        W35676   2.808   5.852   1.045 -0.4014 -0.0555 -0.1559
19783W        W35677   5.561  14.456   4.078  0.0516  0.2078  0.1166
19784W        W35678   5.936   6.952   3.231  0.0255  0.2697  0.4551
19785W        W35679  16.206   8.105   1.707 -0.1540 -0.2787 -0.0608
19786W        W35680  11.932   4.241   3.874  0.0898  0.0225  0.2708
19787W        W35681   2.121  11.360  14.680  0.1323  0.1158  0.0656
19788W        W35682  13.876   0.398  12.510  0.0923  0.2306 -0.0207
19789W        W35683   8.774  10.757  13.803 -0.0207  0.1108  0.1581
19790W        W35684   9.098  15.672  14.833  0.0388  0.1048  0.2250
19791W        W35685   2.409   5.324  15.148  0.1548 -0.0363  0.4306
19792W        W35686  10.998  18.362   3.186  0.1739  0.2754 -0.0807
19793W        W35687  10.580  10.375  15.610 -0.2474  0.2430 -0.3781
19794W        W35688   2.981  13.062   2.609  0.0134 -0.1273 -0.1953
19795W        W35689  15.846  13.574   0.603 -0.2002  0.0489  0.4611
19796W        W35690   1.222   7.263   5.113  0.4617  0.1091 -0.1252
19797W        W35691   2.967   9.276  14.155 -0.0187 -0.0383  0.0415
19798W        W35692  15.536  18.444  14.740 -0.1447  0.1709  0.2579
19799W        W35693  15.959   6.665   3.233  0.1080  0.0131 -0.0440
19800W        W35694   4.869   8.681  12.091  0.3073  0.1447  0.0583
19801W        W35695  18.546  17.482  13.504 -0.5997 -0.0274 -0.0189
19802W        W35696   0.639   4.582   1.372 -0.3053 -0.2614 -0.1492
19803W        W35697  14.776   2.975  13.201  0.0937  0.1949  0.4874
19804W        W35698   9.113   5.199   1.219 -0.1232  0.0095  0.0524
19805W        W35699  18.014  14.447  15.455 -0.2086 -0.0700 -0.0196
19806W        W35700   9.071   7.989  12.853 -0.1383 -0.3342 -0.2373
19807W        W35701   1.260   7.589  14.355 -0.2521  0.0912 -0.2085
19808W        W35702  13.240   7.295   4.724  0.1996 -0.1358 -0.0683
19809W        W35703  14.514  10.114   3.232 -0.1008  0.0359 -0.0846
19810W        W35704   0.333  13.008   2.050  0.2155 -0.0546  0.1574
19811W        W35705  13.697   0.139   0.029  0.0342 -0.1732 -0.1020
19812W        W35706   7.387   2.747  12.759  0.0743  0.0758 -0.0840
19813W        W35707  15.784   3.732  12.022  0.0965  0.0388  0.1796
19814W        W35708   1.949  16.297   3.177 -0.0461 -0.3146  0.3785
19815W        W35709   9.512  15.087   5.744 -0.3258  0.1304  0.0155
19816W        W35710   8.443   9.740  12.171 -0.1455  0.3668  0.1529
19817W        W35711  10.057  18.645   2.413 -0.1838  0.0530 -0.0031
19818W        W35712  15.883  13.886   5.896  0.0774  0.1186 -0.0598
19819W        W35713  16.830  17.448   1.396 -0.0879  0.0370  0.0362
19820W        W35714   1.575   5.974   5.236 -0.2625 -0.3393 -0.2219
19821W        W35715  14.962  12.417  10.935  0.1322  0.2612  0.0965
19822W        W35716   0.345   5.869   3.131  0.0099 -0.1111 -0.1733
19823W        W35717   1.751   7.553  11.716  0.0241  0.1370 -0.1264
19824W        W35718  17.687   3.570  13.744 -0.2092 -0.0300  0.1038
19825W        W35719  13.988   8.781  13.406 -0.0310 -0.1614 -0.2666
19826W        W35720  17.973  16.116   0.604 -0.0515  0.3139 -0.1279
19827W        W35721   1.583   1.463   4.783  0.2872 -0.0174 -0.3752
19828W        W35722   1.741  14.500  11.247  0.0628  0.1257  0.2840
19829W        W35723   9.315   2.907  10.739 -0.0611  0.1643 -0.0914
19830W        W35724   3.608  17.181   2.042 -0.1690  0.1894 -0.0615
19831W        W35725  11.963  16.823  15.065  0.1306 -0.2310 -0.3408
19832W        W35726   4.617   5.928  10.559  0.1822 -0.0081  0.1014
19833W        W35727   4.446   3.984   0.469  0.1457 -0.1224  0.1698
19834W        W35728   3.409   7.784  10.715 -0.1650 -0.0342 -0.1795
19835W        W35729  15.463   5.874  14.582 -0.1881 -0.2424  0.0641
19836W        W35730  17.287   3.212  12.137 -0.0086 -0.1768 -0.1188
19837W        W35731   1.923  11.307  10.935 -0.3252 -0.0029 -0.2324
19838W        W35732   1.387  17.003  10.617  0.1378  0.0807  0.1624
19839W        W35733   6.488   1.886   0.351  0.0334  0.0956  0.2100
19840W        W35734  10.903   4.389  14.190 -0.0800 -0.4621 -0.1598
19841W        W35735   0.420  17.260   0.492 -0.1607  0.0928  0.2891
19842W        W35736   4.647   1.087  11.899  0.2559 -0.0253 -0.2585
19843W        W35737  14.572  11.405   5.247 -0.1837 -0.3396 -0.0048
19844W        W35738  16.900  12.277   5.855 -0.1357  0.1542  0.2902
19845W        W35739  13.389   8.240   3.188 -0.0589 -0.0576 -0.0767
19846W        W35740   7.730   1.268  15.067 -0.1649  0.0141  0.2301
19847W        W35741   9.175   7.584  13.567 -0.0310  0.1169 -0.2653
19848W        W35742   4.730   0.042   4.523  0.3299 -0.0408 -0.4135
19849W        W35743   2.791  15.407  14.465 -0.0206 -0.2315  0.1552
19850W        W35744   9.778   7.420   1.435  0.0824 -0.1562 -0.1464
19851W        W35745   4.819   9.947  14.576 -0.4074 -0.0775  0.1837
19852W        W35746   2.056  18.265  10.621 -0.2432 -0.0703  0.2962
19853W        W35747  10.553  11.147   3.812 -0.4385  0.2996  0.0223
19854W        W35748   1.686   9.112  13.560  0.3869 -0.1552 -0.0891
19855W        W35749   1.376   8.673  10.547  0.0551 -0.2924  0.0556
19856W        W35750  16.229   0.946   0.509 -0.1429  0.2933 -0.3387
19857W        W35751  17.446   1.996   2.716 -0.2513 -0.1077  0.1941
19858W        W35752  18.638  11.048  13.537 -0.1207  0.0582 -0.0169
19859W        W35753  12.630  14.843  11.288  0.1368  0.2454 -0.2365
19860W        W35754  15.126  11.291  14.991 -0.2428 -0.3116 -0.2424
19861W        W35755   6.175   6.589  11.342 -0.0429  0.1264  0.1077
19862W        W35756  11.641   8.452   1.260  0.3314  0.0353  0.0806
19863W        W35757   9.916  16.995  15.485 -0.1530 -0.2173 -0.1039
19864W        W35758   2.250  10.100   1.045  0.2502 -0.0107 -0.1750
19865W        W35759   4.567   9.515   2.742 -0.1689 -0.2945  0.0660
19866W        W35760   7.506  15.249  12.164 -0.1070 -0.0655  0.0716
19867W        W35761   2.754   0.023   5.036 -0.1133 -0.1825  0.2555
19868W        W35762   9.925  17.344   4.012 -0.1121  0.2397 -0.1493
19869W        W35763  10.965  11.321   3.505 -0.3661  0.1412 -0.2890
19870W        W35764  10.484   1.967  14.012  0.3962 -0.0010 -0.0514
19871W        W35765   7.033   8.171   0.426  0.1105  0.1256 -0.1048
19872W        W35766   8.428  16.605   0.080  0.3699  0.0220  0.0626
19873W        W35767  13.705  11.665   3.761  0.0661 -0.1143 -0.0199
19874W        W35768   5.575   0.026   0.852 -0.1226 -0.2350  0.0210
19875W        W35769   7.208  17.145  13.567  0.1222  0.0862  0.0617
19876W        W35770  11.753   1.444  10.826 -0.1678  0.5377  0.0253
19877W        W35771   0.328   9.588   3.888 -0.1379 -0.0905 -0.0558
19878W        W35772   9.795   9.121   1.325 -0.3589  0.0706  0.1517
19879W        W35773  10.586  16.699  14.805 -0.0895 -0.0733 -0.2791
19880W        W35774   0.265  12.426   4.984 -0.0319  0.2388  0.0955
19881W        W35775   8.546   8.934  15.611 -0.1539 -0.0642  0.1297
19882W        W35776  10.562  18.114  11.934 -0.0906 -0.3780  0.3878
19883W        W35777  15.896  11.009  13.967  0.1499 -0.0069  0.1427
19884W        W35778   4.353  10.511   2.880 -0.1225 -0.3330  0.0483
19885W        W35779  18.617  14.671   3.810 -0.1532  0.0831  0.2245
19886W        W35780   2.899   9.339   4.371  0.1260 -0.1555  0.1787
19887W        W35781   6.876   9.807   4.713  0.0421 -0.2200  0.0567
19888W        W35782  18.345   0.342   0.984 -0.2274 -0.1712  0.0150
19889W        W35783  18.497   0.085   1.977 -0.2015  0.0960 -0.0300
19890W        W35784  10.005  13.352  10.361 -0.3694  0.0317 -0.0638
19891W        W35785   5.180   1.273   1.300 -0.1555  0.1034  0.3915
19892W        W35786   2.524  13.702  12.699 -0.2347  0.0446  0.1248
19893W        W35787  16.290   6.207  14.980 -0.2116  0.1098 -0.1340
19894W        W35788   2.527  14.914  14.664  0.0726  0.1112  0.1867
19895W        W35789   1.937  13.686  14.243 -0.0055  0.0458 -0.0308
19896W        W35790   1.108  10.206   3.165 -0.0759  0.0327 -0.1705
19897W        W35791   9.706  10.713  14.989  0.2619  0.0902  0.1120
19898W        W35792  15.469   5.484   1.188 -0.0965  0.0789  0.2375
19899W        W35793   7.466  13.316   4.742  0.0212  0.0575 -0.1066
19900W        W35794   5.268   8.812  10.754  0.0786  0.0118  0.0642
19901W        W35795  15.317   5.619  13.268  0.1350 -0.0997 -0.2020
19902W        W35796   4.486  16.156  10.104  0.2366  0.2775  0.1565
19903W        W35797   1.981  18.704   2.168 -0.3447 -0.0519  0.0959
19904W        W35798  12.665  11.816   4.187 -0.1395  0.2401  0.5465
19905W        W35799   3.889   7.680  12.625  0.1611  0.1836 -0.0538
19906W        W35800  11.318   7.801   5.969 -0.0650 -0.0540  0.0589
19907W        W35801  16.120  18.503   1.409  0.2863  0.0335  0.1894
19908W        W35802   4.697   2.146   5.006  0.0135  0.0180 -0.2422
19909W        W35803  13.416   4.730   5.480  0.0842  0.2552 -0.0414
19910W        W35804   8.961   2.473   3.182  0.1656 -0.2859  0.2647
19911W        W35805   4.650   9.172   4.640 -0.1360 -0.1500  0.1808
19912W        W35806  16.243   6.366  12.581  0.1849 -0.1472  0.2167
19913W        W35807   7.992   3.422  13.085 -0.0421 -0.0316  0.0616
19914W        W35808  12.978   8.021  13.918 -0.0353  0.1971  0.2838
19915W        W35809   3.097   2.855   0.070 -0.1275 -0.1546  0.2483
19916W        W35810   1.375  15.693   3.945  0.0183 -0.0523  0.2546
19917W        W35811   4.461   6.171   0.155 -0.1767 -0.0903  0.3804
19918W        W35812  12.551   9.058   4.290 -0.1385  0.1299 -0.1715
19919W        W35813  14.174   1.880  10.564 -0.1115 -0.0774 -0.0691
19920W        W35814   9.261   4.605   3.479  0.3350 -0.1817 -0.2683
19921W        W35815   1.139   6.776   3.835 -0.0876  0.0312  0.0070
19922W        W35816  17.160  17.181   0.833  0.5075  0.2771 -0.2021
19923W        W35817  11.947   1.935   2.789  0.1331  0.1280  0.1596
19924W        W35818   7.995   1.411  11.007  0.0862 -0.1285 -0.1442
19925W        W35819  13.231   9.799  12.239 -0.1027  0.1081  0.3011
19926W        W35820   8.706  13.720  11.475  0.0528 -0.1217 -0.0671
19927W        W35821  10.726   0.476   1.784 -0.0917 -0.0996  0.3276
19928W        W35822   1.385   6.046  14.461  0.0579 -0.2263  0.0403
19929W        W35823   9.410  11.952   2.705 -0.1469 -0.0962  0.2235
19930W        W35824   2.493  10.584  11.458  0.2124 -0.0319 -0.0215
19931W        W35825  10.457  15.691  12.976  0.0370 -0.3571  0.1379
19932W        W35826   2.739  11.339   2.323 -0.1716 -0.0218  0.3025
19933W        W35827   5.369   9.272   0.170  0.0970  0.3387 -0.1765
19934W        W35828  18.644  18.647  14.034  0.2941 -0.1525  0.2410
19935W        W35829  12.746   8.565  14.628 -0.3323  0.1860 -0.0640
19936W        W35830  15.597   2.190   1.193  0.2436  0.1614  0.0836
19937W        W35831  14.816   2.857   5.489  0.0513 -0.1575  0.1367
19938W        W35832   6.292  15.542   5.043 -0.0888 -0.1014 -0.2787
19939W        W35833  18.480   3.671  11.584 -0.0926 -0.0219  0.0537
19940W        W35834  17.729  18.456  10.797 -0.0097 -0.1033 -0.1076
19941W        W35835  10.115  13.664  15.545 -0.1332 -0.3750 -0.0507
19942W        W35836  17.576   3.641   1.656 -0.2908 -0.1078  0.0451
19943W        W35837  10.013   1.532  10.641  0.0199 -0.0453 -0.2796
19944W        W35838   0.460   0.781  12.245  0.2112  0.0559 -0.2300
19945W        W35839   3.348   5.477   1.707  0.1368 -0.1316 -0.0068
19946W        W35840  18.342  15.277   0.821 -0.1273  0.0433  0.1761
19947W        W35841  13.460   7.798  15.574  0.0258 -0.0425  0.0718
19948W        W35842   3.670   7.476   2.257  0.2182  0.0435 -0.2628
19949W        W35843   6.670  17.373  13.741  0.1090  0.1226 -0.3182
19950W        W35844   2.070   5.560  11.895  0.1377  0.0004  0.1523
19951W        W35845  12.148   8.435   5.799 -0.3161 -0.1832 -0.0365
19952W        W35846   1.450   9.648  11.017 -0.1601 -0.1315 -0.1224
19953W        W35847  11.397   8.837   0.451  0.1332  0.0127  0.2444
19954W        W35848   1.006  12.122   4.421  0.1055 -0.2731  0.0485
19955W        W35849  18.175  10.880   3.452  0.0998  0.1920 -0.0881
19956W        W35850  16.368  10.037   3.817  0.1697 -0.0565 -0.0646
19957W        W35851   0.493  13.138  13.048  0.1459  0.3849 -0.0047
19958W        W35852   3.284  11.392  13.162  0.4788 -0.2470  0.3436
19959W        W35853  16.206   7.874  14.907  0.0596  0.0815 -0.0538
19960W        W35854   5.807   7.936   5.427 -0.4855  0.0372 -0.0317
19961W        W35855   1.021  17.855   0.978 -0.1198  0.2160  0.0861
19962W        W35856   7.620   9.354   4.682  0.2065 -0.2962 -0.0481
19963W        W35857   9.897   7.829   1.663 -0.1194  0.0117  0.2549
19964W        W35858  17.589  13.340  13.660  0.2262 -0.0109 -0.0820
19965W        W35859   7.664   4.668   3.687 -0.3298 -0.1964  0.1553
19966W        W35860  13.297  17.248  11.190  0.0543 -0.1467  0.2819
19967W        W35861   0.460   3.336  12.772  0.0493 -0.1718 -0.2211
19968W        W35862   5.661   0.983  13.400  0.0947  0.1436  0.1039
19969W        W35863   1.773   6.645  12.232 -0.0572 -0.0941  0.0501
19970W        W35864   8.273   5.839   3.781  0.0688  0.1098  0.1341
19971W        W35865   8.155   2.936   4.009  0.2534  0.0165  0.2847
19972W        W35866  16.993   2.213  15.266 -0.0324 -0.0070 -0.0214
19973W        W35867   4.842   4.477   1.248  0.3558  0.0757 -0.0487
19974W        W35868   3.806  16.935  10.748  0.0650 -0.0346 -0.1777
19975W        W35869   3.798  11.210  13.933  0.0276 -0.1957  0.1918
19976W        W35870  13.905  17.083   4.473 -0.2041 -0.3184 -0.1465
19977W        W35871  13.227  17.121   3.811 -0.1271  0.1854  0.3485
19978W        W35872  13.567   9.232   3.314  0.1710  0.1354  0.0899
19979W        W35873   0.574   3.091   3.413  0.1608 -0.0527  0.0978
19980W        W35874   8.933   1.313   2.431  0.1627  0.1582 -0.2522
19981W        W35875   9.426  17.304   3.906  0.1903 -0.0116  0.2779
19982W        W35876  10.241   3.356   2.949 -0.2283  0.1054  0.0549
19983W        W35877  17.235   7.853   2.853  0.0720 -0.3346  0.0801
19984W        W35878  12.978   7.993   0.106  0.0782  0.0494 -0.0251
19985W        W35879   5.897   3.336  14.546 -0.1094 -0.1759  0.0772
19986W        W35880   8.043   9.722  14.617  0.1205 -0.1415  0.0575
19987W        W35881   8.923   2.921   0.142 -0.0301 -0.1718  0.0996
19988W        W35882  11.816   4.902  14.424 -0.0932  0.1002  0.0296
19989W        W35883   4.877  17.152   0.501 -0.0113 -0.0447  0.0236
19990W        W35884  18.335  12.824  15.299  0.0252 -0.0891  0.0566
19991W        W35885  10.247  14.431   0.398 -0.0194 -0.2474  0.2454
19992W        W35886   3.812   8.180   3.405 -0.1623 -0.0277  0.0453
19993W        W35887  11.041   7.891   1.780  0.1867  0.3236  0.4296
19994W        W35888   2.731  13.056   5.258 -0.3309  0.0724  0.1068
19995W        W35889  17.362  14.525  13.837 -0.3950  0.0625  0.0423
19996W        W35890  12.236  13.640  15.065 -0.0580  0.0373  0.3353
19997W        W35891   1.178  10.442  14.831 -0.1617  0.0643  0.0813
19998W        W35892   7.376   3.619  11.066 -0.1371  0.0636  0.0207
19999W        W35893   1.142   9.074   3.842 -0.0412 -0.1282  0.3773
20000W        W35894  16.106  18.044  10.312 -0.1348  0.0655 -0.2209
20001W        W35895   0.761  14.056  13.056  0.0338  0.0811  0.0018
20002W        W35896  10.812   9.063  12.299  0.1791 -0.1197 -0.2354
20003W        W35897  13.680   6.600   3.663  0.0610  0.0300 -0.0316
20004W        W35898   3.927   5.136  15.463  0.1524 -0.0845  0.0826
20005W        W35899  12.840   5.078   3.486  0.1144  0.0920 -0.0747
20006W        W35900   0.196   1.725   3.717 -0.2505 -0.0139 -0.0232
20007W        W35901  12.132  12.441   0.687  0.2677  0.1897 -0.0531
20008W        W35902   7.025  17.613  14.387 -0.1408  0.0497 -0.0527
20009W        W35903  12.419   5.828  13.555 -0.2867 -0.1827  0.3126
20010W        W35904  10.761   0.533   0.256  0.0353 -0.1147  0.0059
20011W        W35905   3.201   9.221   5.190 -0.1140 -0.1882  0.1185
20012W        W35906  10.555   8.977  12.880  0.2433  0.4548 -0.0528
20013W        W35907   1.377   3.957  10.389  0.0088 -0.0325  0.1021
20014W        W35908   7.223   8.596   2.391 -0.1053  0.4761  0.2970
20015W        W35909   0.166  17.472  14.359  0.3023 -0.3250 -0.1129
20016W        W35910  12.018   6.886   3.008 -0.0543 -0.3883 -0.2369
20017W        W35911  11.857   9.220   0.589  0.0608  0.0039 -0.1507
20018W        W35912  12.706  16.960  14.030 -0.2091 -0.1910 -0.0453
20019W        W35913  12.478  12.783   1.579  0.0731 -0.3597  0.2190
20020W        W35914  17.120   2.949   2.007 -0.1591 -0.2462 -0.1250
20021W        W35915  17.388   0.800   0.631  0.2625  0.3589 -0.0891
20022W        W35916  11.896   6.943   5.190  0.0354  0.1200  0.2443
20023W        W35917  12.946  15.986   1.753 -0.1492  0.0446 -0.0953
20024W        W35918   6.306  10.344  13.667  0.0950  0.3278  0.1448
20025W        W35919  12.852  13.306  11.373 -0.2080  0.2060  0.0664
20026W        W35920   6.685  11.623  13.386 -0.2256 -0.0835 -0.1041
20027W        W35921   5.824  18.460  12.415 -0.0295 -0.2737  0.0373
20028W        W35922   7.159  11.100   4.545  0.0593  0.3958  0.4904
20029W        W35923  15.633  15.359  11.667 -0.3482 -0.0480  0.2681
20030W        W35924  11.305   7.853   0.906 -0.1065  0.0711  0.4637
20031W        W35925   3.957   3.548   0.162  0.1182  0.2259  0.3101
20032W        W35926  17.304  14.622   5.009 -0.0210  0.0620 -0.2646
20033W        W35927  15.375  18.672   0.776 -0.1303 -0.0665  0.0277
20034W        W35928   5.518  13.833   2.482  0.0342 -0.1662 -0.1353
20035W        W35929  14.207  16.921   2.817 -0.5399 -0.2926 -0.1471
20036W        W35930   1.141   7.761   5.677  0.0564  0.1532 -0.3022
20037W        W35931  17.221   5.840  13.635  0.3308  0.0937  0.1812
20038W        W35932  16.950  11.911  13.437 -0.0691  0.0223  0.0902
20039W        W35933  18.338   7.384   2.167  0.1891  0.1396  0.0513
20040W        W35934  11.860   5.042   2.092  0.1701  0.1502 -0.4625
20041W        W35935   7.462  11.805   1.570 -0.2066  0.0027  0.2187
20042W        W35936   5.012   5.238   0.920  0.2357  0.0098 -0.1818
20043W        W35937   1.179  15.317   3.615  0.1504 -0.3520 -0.0626
20044W        W35938   4.178  15.337  10.477  0.3876  0.3312  0.1457
20045W        W35939   0.877  17.925  13.345  0.0459 -0.0891 -0.3058
20046W        W35940   6.794  10.944   0.828  0.0314 -0.2853  0.2341
20047W        W35941   0.178  16.725  11.825  0.2122 -0.1828  0.1642
20048W        W35942  14.633   7.677  14.473  0.2925 -0.0681  0.1024
20049W        W35943  13.993   3.613   1.676 -0.1949  0.1068  0.2068
20050W        W35944   0.339  13.929   2.372 -0.2007 -0.1695 -0.2466
20051W        W35945  12.664  15.369   4.065  0.1319 -0.0696 -0.1827
20052W        W35946   2.533   5.079   1.938  0.0649 -0.0535  0.0142
20053W        W35947  16.515   7.079   5.613  0.1714 -0.2703  0.0907
20054W        W35948  10.088   2.126   3.441 -0.0903 -0.1475 -0.0453
20055W        W35949  17.788   2.603   3.497  0.0483  0.0481 -0.0085
20056W        W35950   7.012   0.898   1.758  0.0396 -0.1412  0.0930
20057W        W35951   0.181   6.413  13.473 -0.0580  0.0280  0.0957
20058W        W35952  18.069   8.560  13.590 -0.0544  0.0502 -0.1547
20059W        W35953  13.697  13.024  12.851 -0.3926 -0.1832 -0.0115
20060W        W35954   8.061  10.625   0.364  0.2281  0.0348 -0.0624
20061W        W35955   9.837   7.745   4.764  0.0140 -0.0051 -0.3527
20062W        W35956  13.396  18.198   1.481 -0.2265  0.0164 -0.2225
20063W        W35957  11.113   2.491   5.827  0.0613 -0.4054  0.0481
20064W        W35958   0.092  16.132   4.602  0.1694 -0.0102 -0.3607
20065W        W35959  16.942  14.933  11.642  0.1267 -0.0212 -0.1020
20066W        W35960   7.662  14.641  15.097 -0.2345  0.0363  0.3270
20067W        W35961  15.589  16.536   1.623  0.0840  0.1193 -0.2879
20068W        W35962   1.199  17.481  13.624  0.1018  0.4080 -0.0817
20069W        W35963   4.861   8.031   1.085 -0.1661 -0.1848  0.1225
20070W        W35964   7.244  13.973  11.476 -0.0345 -0.1458 -0.2388
20071W        W35965   2.189  14.724   1.035  0.0668 -0.1881 -0.0189
20072W        W35966  10.064  14.875   5.324 -0.4259 -0.2982 -0.0161
20073W        W35967  15.353   4.087   3.888 -0.1124  0.2531 -0.1621
20074W        W35968   4.531   3.734   1.369 -0.0457 -0.0799 -0.0867
20075W        W35969   7.002  16.756  14.915 -0.0430 -0.0730  0.0437
20076W        W35970  11.785   8.242   2.624  0.0743 -0.2217  0.0528
20077W        W35971  16.890   9.706  10.686 -0.1055 -0.1182 -0.0060
20078W        W35972  14.103   6.458   3.191  0.0153 -0.0179  0.2695
20079W        W35973   1.933   5.587  13.628 -0.0664  0.4306 -0.0787
20080W        W35974   9.950   6.717  14.233  0.0262 -0.0694 -0.2794
20081W        W35975  10.034   4.100  12.473  0.0231 -0.2325  0.1234
20082W        W35976  16.010   2.314   5.543 -0.3883  0.1627 -0.1540
20083W        W35977   2.553  17.055   4.955 -0.1849  0.3514  0.0526
20084W        W35978   3.486  15.131  13.768  0.0773 -0.2183 -0.0414
20085W        W35979  14.569  10.896   2.461  0.0436  0.0459  0.3325
20086W        W35980   6.271   5.613  11.284 -0.0094 -0.0953  0.3145
20087W        W35981  15.904   8.489   3.694 -0.2419  0.2100  0.0141
20088W        W35982  15.780  16.712   2.104 -0.1705 -0.1556 -0.1954
20089W        W35983  11.776  12.720   2.029  0.0913  0.0028  0.0078
20090W        W35984   8.633   5.526   2.253  0.1527  0.1553 -0.2859
20091W        W35985   7.330   5.251   0.469  0.0665  0.0233 -0.1342
20092W        W35986   9.747   1.377  13.638  0.0247 -0.1979 -0.0492
20093W        W35987  12.908  12.111  14.954 -0.2990  0.0203 -0.3089
20094W        W35988   9.664   5.351   4.581  0.0165  0.5240 -0.1474
20095W        W35989  13.485   3.968  13.646  0.0110  0.1610 -0.0296
20096W        W35990  10.013   9.521   3.041 -0.2817  0.1884 -0.0689
20097W        W35991   7.942   6.008   1.009  0.1278 -0.0545  0.0674
20098W        W35992   3.674   6.300   3.894  0.0765  0.0933 -0.3171
20099W        W35993  16.787   7.050  15.534 -0.1283 -0.0715  0.0174
20100W        W35994   9.035   3.635   2.278  0.0421 -0.5324  0.3772
20101W        W35995   8.863   6.020  14.035  0.0103 -0.0474  0.2580
20102W        W35996  18.737   1.360  13.787 -0.0009 -0.1763 -0.0702
20103W        W35997  11.600  11.225  14.679  0.0954 -0.1618 -0.0398
20104W        W35998   4.128  14.002   1.532 -0.2635  0.3895  0.0795
20105W        W35999  10.745   3.507  14.071  0.3720  0.1771 -0.0686
20106W        W36000   0.076  11.360  15.504  0.1805 -0.3179 -0.1305
20107W        W36001   8.454  15.181   9.868  0.2548 -0.3376  0.2268
20108W        W36002  13.669  18.441   4.087 -0.1235 -0.0705 -0.0643
20109W        W36003   5.112  12.665   2.905 -0.0582  0.2947 -0.1019
20110W        W36004   4.183   7.232  13.203 -0.3359  0.3065 -0.1478
20111W        W36005  11.378   4.301  13.019 -0.1259 -0.0044  0.2344
20112W        W36006  14.904  12.077   3.749  0.1032  0.2051  0.0547
20113W        W36007  10.375  12.102  14.710  0.0438 -0.2212  0.3444
20114W        W36008   7.419   4.250   3.819 -0.2049 -0.1422  0.2486
20115W        W36009  17.957   3.442   0.417 -0.0476  0.0006 -0.0917
20116W        W36010  15.566  10.448   2.562 -0.1938 -0.2249  0.2112
20117W        W36011  10.275   7.805  14.895  0.0785 -0.3892 -0.1185
20118W        W36012   4.245  11.073   3.905  0.1030  0.4347 -0.0837
20119W        W36013  14.758   9.528  13.682 -0.1148  0.2342 -0.0620
20120W        W36014  18.148  13.434   3.272 -0.1821  0.1284 -0.0622
20121W        W36015   8.706   3.722   1.253 -0.0858  0.0722 -0.1664
20122W        W36016  17.960   1.828  15.004  0.0553  0.1393  0.0604
20123W        W36017   1.073   8.571   4.656 -0.0879 -0.1296  0.0625
20124W        W36018  17.242   2.707  12.353  0.0247  0.0787  0.1689
20125W        W36019   7.094   3.440  14.770  0.0005 -0.2116 -0.0450
20126W        W36020   7.883   3.020   3.592  0.0564 -0.1504 -0.0554
20127W        W36021   7.291  10.202   1.350 -0.4003 -0.3203 -0.0377
20128W        W36022   2.834   1.810  12.193  0.1804 -0.0625 -0.0123
20129W        W36023   9.918  11.014  13.323 -0.5577 -0.0698  0.3503
20130W        W36024   5.631  12.611   1.001  0.1779 -0.1258  0.0003
20131W        W36025   7.571  10.221   0.192 -0.1342  0.0664  0.1221
20132W        W36026   7.142   4.751  12.701  0.2179  0.1355 -0.0902
20133W        W36027  15.027  16.571  12.210  0.2962 -0.3431 -0.0992
20134W        W36028  10.439   9.191  10.425  0.0820 -0.1919 -0.3084
20135W        W36029   5.748   0.795   5.118  0.0760 -0.0675 -0.3990
20136W        W36030   8.162  18.317  15.063  0.0249 -0.0710  0.0444
20137W        W36031  17.878  12.671   5.035 -0.3149  0.1210 -0.0975
20138W        W36032   9.452  16.511  15.353 -0.0277 -0.1767  0.1478
20139W        W36033   2.701   0.101  11.289  0.3732 -0.2207 -0.0294
20140W        W36034  14.671  14.945  15.571  0.0652  0.0128 -0.2633
20141W        W36035  13.040  14.845  13.789 -0.2503  0.1007 -0.1442
20142W        W36036   9.840  17.974   4.075 -0.0157 -0.1017  0.0896
20143W        W36037  10.214  12.653  11.874  0.1702 -0.3631  0.3505
20144W        W36038  14.335  15.215  11.824 -0.1324  0.1249 -0.1589
20145W        W36039  18.491   8.716  15.184  0.2463  0.0908  0.0271
20146W        W36040  17.441  15.020  14.353 -0.1540 -0.0926 -0.0865
20147W        W36041  13.877  10.038   6.154 -0.3540 -0.2586 -0.1505
20148W        W36042   9.429  13.679  11.254  0.2146 -0.3016  0.3029
20149W        W36043   0.703   2.585   1.008  0.0233  0.0479  0.2661
20150W        W36044   0.388   8.923   5.130 -0.2202 -0.1449 -0.2348
20151W        W36045   0.013   3.618  13.918 -0.0080  0.1220 -0.1855
20152W        W36046   9.105  11.766   0.702 -0.5956 -0.4236 -0.0087
20153W        W36047  15.566   9.502   0.541  0.1232  0.2583  0.3341
20154W        W36048  17.966   2.924  11.046 -0.1120  0.0073 -0.1047
20155W        W36049  16.052   6.070  12.939 -0.0488  0.1744  0.0151
20156W        W36050  15.926   8.744  12.656 -0.2127  0.0438  0.0633
20157W        W36051   2.501   9.811   3.179 -0.1613  0.1216  0.3574
20158W        W36052   9.064  14.409  14.082  0.0649 -0.1860  0.0011
20159W        W36053   4.356   5.059  14.923 -0.0876  0.2552 -0.2173
20160W        W36054  10.798  13.452   2.878  0.3451 -0.2342  0.0406
20161W        W36055   3.139  14.359   3.740  0.0891 -0.1707  0.2324
20162W        W36056   4.540   2.998  10.569 -0.1113 -0.3369  0.0461
20163W        W36057   7.648   3.570  14.701 -0.0948  0.2154 -0.1028
20164W        W36058  15.396  16.005   0.336 -0.2546 -0.0528 -0.0392
20165W        W36059  14.402   4.812  13.062  0.0232 -0.1548  0.4042
20166W        W36060  11.581   6.476   1.173 -0.0761  0.1529  0.1630
20167W        W36061  12.209  18.069   4.197 -0.0847  0.3837 -0.2146
20168W        W36062  11.973  17.009   2.019 -0.0850  0.2240 -0.0267
20169W        W36063   4.360  17.407  13.966 -0.0705 -0.2182  0.1749
20170W        W36064   0.613  10.754   5.004  0.3186  0.0787  0.2037
20171W        W36065  11.107   5.335  11.130 -0.0675 -0.0894 -0.0174
20172W        W36066  17.920   9.981  11.690 -0.2249  0.2703  0.0532
20173W        W36067   2.730  17.495  14.663 -0.1344  0.0635  0.0708
20174W        W36068   5.996   1.678   1.898 -0.2170  0.1683 -0.1186
20175W        W36069   5.465   1.865  15.233 -0.1828 -0.1953 -0.0106
20176W        W36070  10.291  11.094   4.862 -0.0233  0.3407  0.1961
20177W        W36071   2.328  12.207   5.334 -0.0097 -0.0504 -0.0409
20178W        W36072  10.272  14.165  10.945 -0.0201 -0.1371 -0.1041
20179W        W36073   2.499  11.627  14.953 -0.1252  0.2858 -0.1465
20180W        W36074   3.620  11.384   2.616 -0.0390  0.2945  0.1937
20181W        W36075   6.455  16.330   1.883 -0.1649 -0.3506  0.1560
20182W        W36076   7.868  10.900   3.418  0.0268  0.2039 -0.2586
20183W        W36077  14.450  12.891  12.529  0.1513  0.3883  0.1385
20184W        W36078  13.727   1.717  11.796  0.1164  0.0433 -0.3887
20185W        W36079   1.312   7.196   0.387  0.0554  0.1778 -0.1734
20186W        W36080   6.108  10.714  11.650  0.2374 -0.1794 -0.0350
20187W        W36081  15.932   0.764   1.032 -0.1160  0.1002 -0.0001
20188W        W36082  17.853   5.277   2.915 -0.1916  0.0486  0.0391
20189W        W36083   2.200  13.587   0.362 -0.0471 -0.0437 -0.0072
20190W        W36084   0.477  13.312  14.843  0.2250 -0.1434  0.0398
20191W        W36085   4.660   0.306   3.847 -0.1306  0.0237 -0.0845
20192W        W36086  16.301   8.443   4.515 -0.0508  0.1018  0.0415
20193W        W36087  15.554  16.847  13.667 -0.1121 -0.2930 -0.1009
20194W        W36088  12.374   5.072   0.815 -0.3522 -0.0478  0.1834
20195W        W36089   8.693  11.548   0.862  0.0421 -0.0523 -0.2687
20196W        W36090   8.845  14.475   3.283  0.0302  0.2023  0.2868
20197W        W36091  16.753   7.647   2.413 -0.2412 -0.0392  0.1342
20198W        W36092   8.139   8.870  12.841 -0.0641 -0.1235  0.0091
20199W        W36093  15.193  10.461  15.175  0.3033  0.1288 -0.0418
20200W        W36094   9.852  12.269   0.821  0.0428  0.0027  0.0898
20201W        W36095   1.681  12.727   5.819 -0.0180  0.1833  0.0504
20202W        W36096  12.394  11.121   5.647  0.0798 -0.0208 -0.3675
20203W        W36097   4.416   0.491   0.212  0.0885  0.1871  0.2379
20204W        W36098  16.102  14.589  14.352  0.0130  0.1457  0.2692
20205W        W36099  17.621   3.078  12.547 -0.1684  0.0645  0.2417
20206W        W36100  17.492  13.638  11.734  0.1458  0.2450 -0.1550
20207W        W36101  18.188   4.732   4.297 -0.0723  0.5167 -0.0762
20208W        W36102  10.622   8.953   2.682 -0.0887 -0.1551  0.0130
20209W        W36103  13.042   2.640   1.825 -0.0218  0.1458  0.1017
20210W        W36104  10.287   1.655   2.638  0.4419  0.2309  0.2372
20211W        W36105  10.516   1.091  14.244 -0.0827 -0.1328 -0.1285
20212W        W36106   7.281   2.555  13.782 -0.1445  0.1848 -0.0918
20213W        W36107  12.661  18.420   3.623  0.1565  0.3390  0.0526
20214W        W36108  16.767   3.066  11.999  0.1548  0.0169  0.2267
20215W        W36109   7.789  10.133   0.684 -0.0253  0.1871 -0.2429
20216W        W36110  14.215   5.706   1.428  0.0118 -0.2005 -0.0879
20217W        W36111   8.636  18.349  10.809 -0.0698 -0.3792  0.1196
20218W        W36112  18.356   8.840  12.645 -0.0179  0.1584 -0.1892
20219W        W36113   1.551  18.526  13.791 -0.2190  0.2701  0.0406
20220W        W36114  10.079   1.381  11.893  0.3278 -0.0914  0.0841
20221W        W36115   5.027  14.026   5.130  0.0442  0.1011  0.0535
20222W        W36116  17.522  18.498  11.734  0.2609  0.1715  0.0700
20223W        W36117   9.146  18.293  13.826  0.0542 -0.1610 -0.0209
20224W        W36118  18.322  10.780  14.233  0.1454  0.0784 -0.2150
20225W        W36119  14.572   6.029  13.032  0.2395  0.0822  0.1790
20226W        W36120  12.528   1.832   1.455  0.2591 -0.3440  0.1434
20227W        W36121   1.824  17.801   5.025  0.5043 -0.1110 -0.3250
20228W        W36122  10.531   8.243  11.770  0.1304  0.3247 -0.0945
20229W        W36123   4.962   6.239  10.846  0.0036 -0.0413  0.1279
20230W        W36124  15.496   5.398  12.707  0.1698 -0.1078  0.1339
20231W        W36125  17.236  17.111  12.808 -0.1960  0.2312  0.5404
20232W        W36126   3.509   4.041   0.606 -0.0068 -0.1382  0.0090
20233W        W36127  14.754   1.626  10.789 -0.0928  0.0678  0.0702
20234W        W36128   8.273  11.336  14.446 -0.0974  0.0095  0.1051
20235W        W36129  18.372   4.398   1.474  0.1802  0.0173  0.0223
20236W        W36130  16.544  11.682  14.515  0.0001 -0.0539  0.0404
20237W        W36131  13.958   1.888   3.683 -0.4275  0.0774 -0.2441
20238W        W36132  11.302  14.452  12.914 -0.2984 -0.4446  0.0018
20239W        W36133   3.432  18.027   3.367  0.0812  0.2816 -0.0536
20240W        W36134   6.113   1.505  12.574 -0.2154  0.4174  0.2076
20241W        W36135   4.529  10.916   0.794  0.1534 -0.1940 -0.1088
20242W        W36136   6.629   5.543   3.932  0.2151 -0.1718  0.1439
20243W        W36137   2.322   8.598  12.579  0.0771 -0.0861  0.0218
20244W        W36138  16.450  18.662   0.404  0.0844  0.1213 -0.1628
20245W        W36139   7.289   0.542  14.700 -0.1115  0.2059 -0.3014
20246W        W36140  16.662   0.025  15.067  0.1235 -0.0317 -0.1719
20247W        W36141  17.824  14.793  13.924  0.1235 -0.0007  0.1496
20248W        W36142   5.482  15.364   1.420 -0.2924  0.0091 -0.1582
20249W        W36143   5.370  16.393  11.262 -0.0549  0.1588  0.2215
20250W        W36144  18.350   8.470   2.350  0.1065 -0.1385  0.1399
20251W        W36145   8.795  13.649  14.364 -0.1639 -0.2772  0.1584
20252W        W36146   4.310  15.851   3.619  0.1946  0.1203  0.2108
20253W        W36147   6.578   1.903  14.154  0.0969  0.0631  0.3319
20254W        W36148  16.791  11.200   1.767  0.1435  0.0894  0.1352
20255W        W36149  10.132  10.901  11.036  0.0918  0.0013  0.1092
20256W        W36150  18.506   4.287   2.297 -0.0963  0.0021 -0.4925
20257W        W36151  15.591   0.366   2.461 -0.1477  0.1971  0.0228
20258W        W36152  14.578   0.538   5.343  0.0336  0.0819 -0.1046
20259W        W36153   7.886   1.107  14.160  0.0125  0.1667  0.4817
20260W        W36154   8.656   1.132   2.807 -0.2551 -0.2768  0.0011
20261W        W36155  16.616   4.532  13.690 -0.0526  0.0923 -0.1144
20262W        W36156  11.420   6.161   5.362 -0.1091  0.0483  0.1420
20263W        W36157  12.818  10.216   3.697 -0.0160 -0.0844  0.0190
20264W        W36158  15.684  14.182   0.149  0.1219  0.2264  0.1390
20265W        W36159   2.095   7.803  13.284 -0.0797 -0.0296  0.1926
20266W        W36160  18.564   0.842  13.737  0.1263  0.2388 -0.0289
20267W        W36161   3.889  12.218   1.215  0.1492 -0.5019  0.1138
20268W        W36162  12.002   3.346   1.984 -0.1748  0.1145  0.3113
20269W        W36163  11.187   9.690  13.420 -0.2376 -0.0317 -0.1400
20270W        W36164   0.060   6.813   1.803 -0.1863  0.1122  0.0922
20271W        W36165   6.663  13.238  11.199  0.2754 -0.1583  0.1093
20272W        W36166  17.131   6.980   6.180 -0.1717 -0.2199 -0.0426
20273W        W36167  10.075   8.777   5.787  0.5752 -0.0076 -0.4434
20274W        W36168  13.091  15.799   3.184 -0.0583 -0.2426  0.0690
20275W        W36169   3.785  16.598  14.048 -0.0546  0.2183 -0.0488
20276W        W36170  11.244  10.257   6.303  0.0236 -0.2329 -0.1301
20277W        W36171   3.754  17.382  15.256  0.2291 -0.1216  0.0488
20278W        W36172  11.731  14.267   3.739 -0.3101  0.1418  0.0803
20279W        W36173   6.258  14.973   1.252  0.1136  0.1737  0.2475
20280W        W36174   2.003   2.271   4.378 -0.0820  0.0283  0.1741
20281W        W36175   1.032  10.512   0.505 -0.0545 -0.2228 -0.1026
20282W        W36176  15.234  14.387   2.725  0.2108  0.1320 -0.0209
20283W        W36177   3.055  17.102   1.940  0.1206  0.2371 -0.3811
20284W        W36178  12.063  10.471  11.823 -0.0456  0.0496 -0.1874
20285W        W36179  12.566  13.098   3.986 -0.0734  0.0640  0.2715
20286W        W36180  15.138  11.809  14.874 -0.0930  0.0272 -0.1188
20287W        W36181   8.889   3.313   4.386  0.1642 -0.0543 -0.1840
20288W        W36182   7.156   7.410   0.266 -0.1603 -0.3155 -0.1400
20289W        W36183   9.354  16.615   0.916  0.0804  0.0590 -0.2600
20290W        W36184   0.900  17.363  10.256  0.0341  0.1370 -0.1478
20291W        W36185   1.579  17.832  14.372 -0.0218  0.0968  0.0259
20292W        W36186  13.732   5.925  13.652  0.1415  0.5299  0.0713
20293W        W36187   0.704   9.037  13.559  0.3823 -0.0304  0.1178
20294W        W36188  10.890  17.017  15.058  0.1765  0.0343 -0.1457
20295W        W36189   0.291  15.623   3.304  0.2492 -0.0580  0.2326
20296W        W36190  12.314   5.727  13.100  0.3223 -0.0397  0.3418
20297W        W36191   5.740   4.527   3.255  0.2130  0.0095  0.2561
20298W        W36192   8.976  13.088   4.472 -0.0641 -0.5226 -0.0647
20299W        W36193   5.022   6.113  14.035  0.0443 -0.0922  0.1600
20300W        W36194   4.752   0.170   3.183 -0.1796 -0.1761 -0.3362
20301W        W36195  14.670   2.628  12.119 -0.1037  0.3182  0.0565
20302W        W36196   6.202   0.835   2.474 -0.1823  0.0557 -0.3673
20303W        W36197  11.441  12.647   5.482  0.1569 -0.0657  0.2914
20304W        W36198   8.907  11.618  14.582 -0.6463  0.3086  0.2619
20305W        W36199  15.825   7.116   1.289 -0.1283 -0.1417 -0.1348
20306W        W36200   6.470  15.654  12.498  0.1471  0.1555  0.0581
20307W        W36201   5.335  10.438  11.728  0.1577 -0.0713 -0.4031
20308W        W36202  13.419  12.611   1.188 -0.1180  0.0931  0.1762
20309W        W36203  10.503  17.449  12.399 -0.2618 -0.4761 -0.3433
20310W        W36204   5.423  11.626  14.715  0.2928 -0.0388 -0.0670
20311W        W36205   7.359  11.399  14.901  0.0437  0.1065 -0.1090
20312W        W36206   1.435  11.096  13.047  0.0871 -0.1681  0.0695
20313W        W36207   9.649   5.795  14.554  0.1506 -0.0242 -0.1049
20314W        W36208   7.928  11.718  13.450 -0.3147  0.1523  0.2582
20315W        W36209   9.487   4.721   1.629  0.0212 -0.0090  0.3965
20316W        W36210  13.963  14.182  13.765 -0.3953 -0.1629  0.0348
20317W        W36211  15.805  16.766   3.933 -0.0242 -0.2043 -0.1246
20318W        W36212   3.812   9.114   2.908 -0.1057  0.0017 -0.0966
20319W        W36213   6.172   2.286   0.303 -0.1287  0.1238 -0.2384
20320W        W36214   1.064   6.414   0.102  0.0277  0.2680  0.0353
20321W        W36215   1.974   7.263   3.390  0.2477  0.1620 -0.3009
20322W        W36216   6.800   0.675   4.678 -0.0220 -0.0232 -0.1593
20323W        W36217  13.238  14.332   3.773 -0.0308  0.0256  0.1431
20324W        W36218  15.253   1.710   4.788  0.2007  0.2143 -0.3006
20325W        W36219  16.928  10.021   4.821  0.0859 -0.0186  0.0621
20326W        W36220   7.534   8.092   1.715 -0.2545 -0.0028 -0.2024
20327W        W36221   2.827   7.333  13.832  0.0864 -0.0219 -0.0799
20328W        W36222   3.879   6.860   0.568 -0.0730 -0.2501  0.2686
20329W        W36223  18.557   9.118   5.202  0.1655 -0.0147 -0.1919
20330W        W36224   6.788   8.175  14.346 -0.1820 -0.5516 -0.0975
20331W        W36225   3.490   2.267  10.502 -0.2250  0.4617  0.1540
20332W        W36226   4.523   1.384   2.700 -0.0329 -0.0876 -0.1428
20333W        W36227  15.947  14.419   3.603 -0.1032 -0.2984  0.2493
20334W        W36228   8.936  12.985   1.394 -0.3873 -0.0072  0.0182
20335W        W36229  16.601  15.265  11.577  0.1178 -0.4700  0.0948
20336W        W36230  16.949  11.974   0.144  0.1842  0.1682  0.2154
20337W        W36231  15.679  13.417  14.222  0.1477  0.1750 -0.0394
20338W        W36232  14.679  13.609  13.383  0.0750 -0.3622 -0.1861
20339W        W36233   3.428   2.799  12.134  0.1206 -0.2760  0.0759
20340W        W36234   9.219  15.098  12.738 -0.0712 -0.0866  0.0543
20341W        W36235   0.844  13.935   2.390 -0.3994  0.0578  0.1124
20342W        W36236   5.461   6.079  11.645 -0.0462 -0.0542  0.4052
20343W        W36237  12.741  12.146  14.390  0.1241  0.2339  0.0121
20344W        W36238  13.444   7.349  13.117 -0.1890 -0.0717 -0.0467
20345W        W36239  17.710  16.531   0.586 -0.4011  0.2476  0.1145
20346W        W36240  11.809  10.876   3.322  0.1240  0.2288  0.1202
20347W        W36241   4.816   0.205   0.349 -0.1066 -0.1361  0.1963
20348W        W36242   1.841   9.431  11.369  0.1516  0.2132  0.2181
20349W        W36243   7.510   6.849  14.657  0.0462  0.0841 -0.3832
20350W        W36244   3.715   5.283   4.098 -0.0192 -0.0983  0.0753
20351W        W36245  12.035  11.919  11.889  0.0903  0.2869 -0.3134
20352W        W36246   5.699  18.328  11.482 -0.2232  0.1685 -0.1266
20353W        W36247   0.363   5.755   2.633  0.0427 -0.2408 -0.2001
20354W        W36248   9.996  16.297   1.955  0.1718 -0.1321  0.3996
20355W        W36249   1.527  15.795  15.179  0.2674 -0.0351  0.0359
20356W        W36250  16.211   3.575  10.638 -0.2909 -0.1554  0.0555
20357W        W36251  11.237  10.951   4.913  0.1401 -0.2150 -0.0215
20358W        W36252   3.795  13.818  15.078 -0.0326 -0.1038  0.0486
20359W        W36253   8.501  13.023  12.349 -0.2819  0.2770  0.2230
20360W        W36254   6.676   2.459  15.000  0.1065  0.3293 -0.1281
20361W        W36255   9.105   5.401   4.146 -0.3999  0.6909  0.0066
20362W        W36256   5.280   2.329  14.600 -0.2021 -0.1861 -0.0707
20363W        W36257  11.223   4.350   0.565 -0.0588 -0.1440 -0.3619
20364W        W36258  17.775   8.535   2.917 -0.0419 -0.0303  0.0660
20365W        W36259   9.101   5.101  14.065  0.2419 -0.1578 -0.1039
20366W        W36260   1.521   8.110   3.528 -0.0122  0.2415  0.0842
20367W        W36261  14.109   4.354   0.561  0.0522  0.2818 -0.0489
20368W        W36262   2.417   1.200  14.143  0.1081 -0.0562  0.0159
20369W        W36263   2.583  11.369  14.333  0.2686  0.1389  0.0930
20370W        W36264   4.765  12.975  12.647 -0.1878  0.2076 -0.2008
20371W        W36265   7.260  12.296  15.479 -0.1935 -0.0162 -0.0874
20372W        W36266  10.853   9.390   0.479  0.0182  0.1005 -0.0156
20373W        W36267  11.365   6.710   5.215  0.1447  0.2367  0.0617
20374W        W36268  13.520  13.458  12.575 -0.3693  0.0613  0.0540
20375W        W36269  10.580   8.576   0.001 -0.0709  0.4617  0.1214
20376W        W36270  12.689   7.996  11.797  0.0688 -0.2783  0.0785
20377W        W36271   6.355  10.442  11.959  0.2048 -0.1699 -0.2834
20378W        W36272  14.232   2.178  12.987  0.1226 -0.2769 -0.0332
20379W        W36273   3.421   7.033   4.013 -0.2312  0.0414  0.4303
20380W        W36274   5.928   6.563   2.891  0.2889 -0.0426 -0.1835
20381W        W36275  13.595  10.748   4.210 -0.1357  0.4974 -0.2741
20382W        W36276   7.222  12.887  12.090 -0.0484 -0.0290  0.0339
20383W        W36277   8.203   0.499   3.593 -0.1140  0.1257 -0.1198
20384W        W36278  15.018   7.598   3.623  0.1246 -0.2397 -0.1276
20385W        W36279  14.656   7.703  15.607 -0.1717  0.1414  0.0841
20386W        W36280  15.011  18.033   4.205 -0.0455 -0.2203  0.1756
20387W        W36281  10.772  10.188  14.642  0.1549 -0.0945  0.0525
20388W        W36282   1.505  15.725   5.269  0.5093  0.2414  0.1828
20389W        W36283  10.028  15.527   1.038 -0.2896 -0.0879  0.1138
20390W        W36284   3.191  14.018   2.804  0.0667 -0.1385 -0.0443
20391W        W36285   3.436   2.272   4.388  0.0601 -0.0998  0.0839
20392W        W36286   0.258  10.679   1.769 -0.0537 -0.1718 -0.0945
20393W        W36287  18.546  15.459   4.576  0.0297 -0.3474  0.3033
20394W        W36288  18.108   4.958   3.371  0.2148  0.3002 -0.2165
20395W        W36289  16.967   8.027   4.213  0.4661  0.1764 -0.1346
20396W        W36290  16.893   4.115  11.255  0.1726 -0.0969 -0.2136
20397W        W36291   5.901  11.026  13.969  0.1472  0.1000  0.0389
20398W        W36292  15.496   7.756   4.441  0.0349 -0.0927  0.1218
20399W        W36293  13.481   7.181   5.344  0.0583  0.4501 -0.2050
20400W        W36294   3.368  11.880   4.754 -0.2038 -0.1001  0.0924
20401W        W36295   8.496  13.951   1.492 -0.1011  0.0922  0.0568
20402W        W36296   4.565   0.068  13.438 -0.1424  0.2471 -0.0130
20403W        W36297   0.950  13.232  13.851 -0.0790 -0.1296 -0.1008
20404W        W36298   4.468   1.968  11.398 -0.2604  0.0352 -0.2900
20405W        W36299  17.622  16.806   4.050 -0.1900 -0.0310 -0.2029
20406W        W36300  13.305  13.761   5.493  0.2566  0.0363 -0.3244
20407W        W36301  13.470  10.724  11.504  0.0877  0.0422 -0.0263
20408W        W36302   5.724   4.393   0.896  0.0209 -0.2246 -0.1238
20409W        W36303   2.473  10.223   9.735 -0.2596 -0.2039  0.0304
20410W        W36304   7.137  12.649   0.973 -0.2578 -0.1301  0.1981
20411W        W36305   3.796  14.640   4.761  0.2387 -0.2904 -0.3461
20412W        W36306   0.334   4.497  11.618  0.0743  0.1516 -0.1087
20413W        W36307  16.662   6.383   2.001  0.1710  0.1431  0.1732
20414W        W36308  10.815  10.045   3.675 -0.1873  0.1785  0.1602
20415W        W36309  13.293   2.422  14.440  0.0013  0.1054 -0.2638
20416W        W36310  12.053  14.965  13.460 -0.3012  0.0065  0.3672
20417W        W36311   8.703   2.238  13.144  0.0010  0.1222  0.0974
20418W        W36312  15.709  13.522  14.680 -0.3937 -0.2151  0.3144
20419W        W36313   3.077   5.855   2.468  0.0024 -0.2928  0.0137
20420W        W36314  18.472  15.662  12.725 -0.0358 -0.1863 -0.0786
20421W        W36315   0.193   3.813   1.520  0.0291  0.1037 -0.4086
20422W        W36316   1.485  10.148  11.165 -0.1410 -0.0264 -0.1350
20423W        W36317  18.604  11.134   3.439  0.0043 -0.0397  0.1888
20424W        W36318   2.632   8.862   5.340  0.1510 -0.2939 -0.1882
20425W        W36319   0.169  15.647   4.225 -0.0040 -0.2113 -0.0034
20426W        W36320   4.944   9.168   3.419 -0.0805 -0.2082  0.4120
20427W        W36321   2.183  12.292  12.723  0.1097  0.0466 -0.1286
20428W        W36322  18.197  17.804  13.791  0.0598  0.0248  0.1604
20429W        W36323  11.652  15.930  14.837  0.0755 -0.0488 -0.2305
20430W        W36324  18.631  15.588  10.977 -0.0685  0.1032  0.2186
20431W        W36325   0.043   0.395  12.466 -0.2131  0.2000 -0.0980
20432W        W36326  13.233   1.744  14.423  0.1967  0.0948 -0.2031
20433W        W36327   6.383   0.841  14.720 -0.0001  0.1802 -0.0907
20434W        W36328  15.426   4.936   2.023  0.0249  0.2575 -0.1017
20435W        W36329   7.263   7.070  13.193  0.0905 -0.0642 -0.0469
20436W        W36330   2.739   2.452  14.497  0.2161  0.0591  0.0788
20437W        W36331   4.090  16.835   5.400 -0.0043  0.0691  0.3988
20438W        W36332   4.320  14.229   1.921  0.1687  0.2017 -0.1717
20439W        W36333  15.110   2.820  13.614 -0.0095  0.1713 -0.3105
20440W        W36334   9.498   3.020   2.830  0.0844 -0.0605 -0.1248
20441W        W36335   5.579   1.387  14.883  0.3501  0.1138  0.0579
20442W        W36336   1.741   2.875   1.838 -0.0016  0.0396 -0.2171
20443W        W36337  16.367   4.231   2.890 -0.1797 -0.0789 -0.3352
20444W        W36338  10.800  16.705  13.011  0.0065  0.1235 -0.0094
20445W        W36339  17.702  15.153  14.806  0.2684 -0.0351  0.1034
20446W        W36340  10.570  10.393  11.146  0.1135 -0.0994  0.2544
20447W        W36341  12.503   7.127   1.305  0.0328 -0.3608 -0.1307
20448W        W36342  12.335   6.542   5.448  0.1256 -0.0701  0.0010
20449W        W36343  11.697   8.285  14.142 -0.0655  0.1074 -0.1859
20450W        W36344  16.019  10.844   5.642 -0.2107  0.0931  0.0276
20451W        W36345   0.368   5.955   0.458  0.1412  0.1259  0.2012
20452W        W36346   8.673   2.091   4.342 -0.0999 -0.0418 -0.1770
20453W        W36347   9.699   9.298  10.857  0.0097 -0.0991 -0.1049
20454W        W36348   5.547  18.056   1.637 -0.0549 -0.0920  0.3394
20455W        W36349  15.644  15.396  14.270 -0.0108 -0.0020  0.0086
20456W        W36350  10.315   1.312   4.182 -0.0386 -0.3096 -0.0799
20457W        W36351   8.895  15.513   4.590 -0.0913 -0.0136  0.3576
20458W        W36352  11.266  13.017  10.992 -0.2908 -0.1478  0.1961
20459W        W36353  11.132  11.826  15.101  0.1295 -0.0788  0.0977
20460W        W36354   8.086   7.433  15.605  0.2347  0.2004 -0.0946
20461W        W36355   1.154   7.030   3.381 -0.1387  0.1143 -0.1671
20462W        W36356  16.621  17.292   4.131 -0.1041  0.1666 -0.0573
20463W        W36357  12.906   3.426   1.258 -0.0152  0.0127  0.3679
20464W        W36358  16.737  11.593   3.231 -0.0826  0.0250 -0.2453
20465W        W36359   7.748  15.553   1.456 -0.3353 -0.1525  0.1670
20466W        W36360   9.250  10.023   1.033  0.3068 -0.0549  0.1375
20467W        W36361  10.733   2.680  11.033  0.1722 -0.4409  0.1908
20468W        W36362  14.623   3.081   6.087 -0.1990 -0.0583  0.1999
20469W        W36363  12.719   8.271   4.647 -0.3398  0.0397  0.3587
20470W        W36364   9.952  11.263  11.427  0.0415  0.0120  0.4796
20471W        W36365   0.866  18.375  14.646  0.0010  0.0997  0.0150
20472W        W36366   3.483  14.159   4.840  0.0488  0.0213  0.2525
20473W        W36367   4.664  12.901   4.899  0.0006  0.3144  0.1268
20474W        W36368  13.086  16.371   0.523  0.0406  0.3239  0.0929
20475W        W36369  17.638  14.786  11.353 -0.2065  0.2508  0.0097
20476W        W36370   8.241  17.793   4.142 -0.2785  0.3400 -0.1116
20477W        W36371   5.103  12.001  11.920 -0.1036  0.2414 -0.0099
20478W        W36372   0.069  14.228   1.220  0.3605  0.2251  0.2529
20479W        W36373   4.161  16.417  13.134  0.0115 -0.1439 -0.0327
20480W        W36374   9.950   9.586   0.356 -0.0398 -0.0923 -0.0701
20481W        W36375   8.380   6.291  12.748 -0.1022  0.1347  0.3027
20482W        W36376   4.467  12.510  15.602  0.1926  0.0509  0.0788
20483W        W36377   1.232   6.213  13.463  0.2098 -0.2320 -0.1723
20484W        W36378  12.174   5.655   3.980 -0.1840 -0.2642  0.1130
20485W        W36379  16.713  17.074  11.480  0.3147 -0.0287 -0.3738
20486W        W36380   0.185   0.932   5.235  0.0875  0.0035 -0.2316
20487W        W36381   2.445   1.452  14.809 -0.2523 -0.0191 -0.1394
20488W        W36382  10.750  12.048   3.267  0.2365 -0.1721 -0.1717
20489W        W36383  10.630   9.775  11.178  0.0241  0.0648  0.2154
20490W        W36384   2.416  12.562   4.566  0.0414 -0.3398 -0.1557
20491W        W36385   1.404  12.022   2.996 -0.0292  0.1129  0.0278
20492W        W36386   7.845  14.147  14.159 -0.1229 -0.0913 -0.2184
20493W        W36387   5.804  18.324   4.199  0.0027 -0.1351  0.2822
20494W        W36388  11.199   7.953   4.331 -0.2644  0.0596  0.1632
20495W        W36389  15.726   5.844   2.940  0.3273  0.2378  0.2861
20496W        W36390   5.159   2.561   3.120  0.5722 -0.3196 -0.0829
20497W        W36391   0.552   7.359   4.596 -0.1739  0.0904  0.1900
20498W        W36392   7.570  14.554   1.862  0.0722 -0.1359 -0.1429
20499W        W36393   2.005   7.168  10.762 -0.1253 -0.2739  0.0310
20500W        W36394   2.500  12.173   4.836 -0.0922 -0.1270  0.1199
20501W        W36395  17.417  10.386  12.985 -0.2846 -0.0402  0.1205
20502W        W36396   4.707  17.199  10.289 -0.0867  0.0089  0.2663
20503W        W36397  11.312   7.532  14.803  0.1196 -0.2092  0.4648
20504W        W36398   3.558  13.118  13.912 -0.0301  0.0190  0.2057
20505W        W36399   7.598   9.403  13.356 -0.0084 -0.1283  0.0383
20506W        W36400   6.054   1.187  10.923 -0.0776 -0.1113 -0.0192
20507W        W36401   4.962  10.497   3.809 -0.0882 -0.2190 -0.1366
20508W        W36402   7.967   1.894   0.573 -0.0334  0.0514 -0.0295
20509W        W36403  12.892   3.424   4.311  0.2111  0.0981  0.1460
20510W        W36404  18.091   7.592  13.154 -0.0056 -0.0129 -0.0462
20511W        W36405  11.714   3.515  12.880 -0.2566  0.0302 -0.2890
20512W        W36406   3.232  17.515   2.768 -0.0517 -0.2673 -0.1045
20513W        W36407  14.313  15.475  11.339  0.1346 -0.0741  0.0919
20514W        W36408  18.199   3.395   3.466 -0.2383  0.0658  0.2150
20515W        W36409  13.457  18.510   5.066  0.0925 -0.1238  0.3456
20516W        W36410  12.061   5.357   3.060  0.0360  0.0256 -0.0619
20517W        W36411  17.589   0.693   2.993 -0.1858  0.0038  0.0042
20518W        W36412  10.106  13.164   3.298 -0.0470 -0.1987 -0.0985
20519W        W36413  15.655  14.701   0.083 -0.1628  0.1799 -0.0990
20520W        W36414   9.816   5.026   2.047 -0.0630 -0.2398  0.2725
20521W        W36415  15.935   9.798   1.439  0.0672 -0.1369 -0.1461
20522W        W36416  18.229   9.025  12.122  0.0117  0.0551  0.0298
20523W        W36417   0.884  10.206   0.106  0.1556  0.3389 -0.2052
20524W        W36418  16.257  16.643   2.953  0.1664  0.0931 -0.2421
20525W        W36419  17.787  16.111   5.382 -0.0653  0.1901  0.0341
20526W        W36420  11.536  10.021  13.150  0.0277 -0.2327  0.1491
20527W        W36421  18.521  18.434  14.474  0.0572 -0.0351 -0.0002
20528W        W36422   1.304   0.411   4.733 -0.0461 -0.0476 -0.3974
20529W        W36423   8.681   0.277   5.290 -0.0528 -0.0612  0.4179
20530W        W36424  16.260  18.630   4.770 -0.0385 -0.0286  0.4560
20531W        W36425  18.009   6.579  14.301 -0.0807 -0.4915 -0.3265
20532W        W36426   7.052   8.842   4.542  0.1668  0.0221 -0.0098
20533W        W36427   5.095   3.005   1.116 -0.0050 -0.1039  0.0798
20534W        W36428   9.412  15.553   3.931 -0.2277 -0.0026 -0.2484
20535W        W36429   0.980   0.864   4.299 -0.0311 -0.0916  0.0070
20536W        W36430  11.742   1.810   0.333  0.2422  0.3430 -0.3385
20537W        W36431   9.786   7.052   5.212  0.0119  0.1485 -0.0662
20538W        W36432  15.329  10.045  12.786 -0.0960 -0.1374 -0.2572
20539W        W36433   8.290   5.010   4.260 -0.1916 -0.3944  0.0208
20540W        W36434   9.052  12.770  13.281  0.0120 -0.0843  0.0560
20541W        W36435   2.395  14.864  15.216 -0.1389  0.1712  0.0670
20542W        W36436   2.362   4.218  12.569 -0.1525  0.1707  0.1973
20543W        W36437   9.600  10.135   1.664 -0.1322  0.2074 -0.0960
20544W        W36438   7.669   8.908  10.181 -0.2892  0.0255  0.0816
20545W        W36439  17.555  10.859   0.068  0.0346  0.2148 -0.0772
20546W        W36440   9.555  17.307   0.504 -0.2454  0.0829 -0.0763
20547W        W36441  12.069  13.139   5.815 -0.2352  0.2036  0.0236
20548W        W36442  17.523  13.230  12.446 -0.1568 -0.2361 -0.0194
20549W        W36443  10.301  10.357   0.493  0.1783 -0.1113 -0.1472
20550W        W36444  11.215  10.612   4.238 -0.1488  0.0174  0.2587
20551W        W36445  13.871   9.139   4.541 -0.3137  0.1301  0.0283
20552W        W36446   3.034  18.573  10.383 -0.2759 -0.0325  0.0962
20553W        W36447  18.323   1.431   2.074  0.0886  0.1143  0.1192
20554W        W36448   4.986  15.772  13.049  0.0422  0.0096 -0.1257
20555W        W36449   3.013   1.228  10.750  0.1414  0.2783  0.0991
20556W        W36450   5.479   7.328   4.531  0.0098 -0.0209  0.0546
20557W        W36451   3.639  16.969  13.348  0.0061 -0.0523 -0.1074
20558W        W36452   3.075   2.441  12.837 -0.2170 -0.0657  0.0650
20559W        W36453   6.993  12.638  10.597  0.0741  0.0813 -0.1797
20560W        W36454   7.647  13.916  12.949 -0.1926  0.1681 -0.1161
20561W        W36455   8.057  13.964   3.637 -0.1396  0.2341 -0.0437
20562W        W36456  11.656  11.751  13.324  0.0332 -0.2001 -0.2783
20563W        W36457   9.216  16.772   2.179  0.5286  0.0470  0.1977
20564W        W36458  10.988  16.637   0.460  0.1600  0.0045 -0.1838
20565W        W36459  16.530   5.057   5.018  0.2844  0.0326 -0.0371
20566W        W36460   4.253  14.453   5.050 -0.2500  0.0846 -0.0556
20567W        W36461   1.613   5.859   1.194  0.2107  0.0155 -0.0589
20568W        W36462   1.524  18.670   2.415 -0.4350 -0.0840 -0.0753
20569W        W36463   3.121   4.605   3.949  0.0306 -0.2669 -0.2623
20570W        W36464  15.425   2.559   0.763  0.0515 -0.0530 -0.1820
20571W        W36465  16.569  13.693   5.387  0.0305  0.2773 -0.2525
20572W        W36466   5.108  13.626  12.801 -0.0734  0.1995 -0.5674
20573W        W36467   4.647  15.042  11.299 -0.0943  0.0266 -0.0488
20574W        W36468   9.293   0.959  15.312  0.0758 -0.0021 -0.1751
20575W        W36469  17.225   3.476  14.776  0.1241 -0.2302  0.0261
20576W        W36470   7.823  14.772   0.981  0.4594 -0.0499 -0.1336
20577W        W36471   4.566   4.582  15.074  0.0967  0.1585 -0.0897
20578W        W36472   5.991  10.635  12.749  0.0407 -0.0854  0.3921
20579W        W36473   9.103   0.056   4.523  0.0042  0.3714 -0.2253
20580W        W36474   2.795   6.029   2.054  0.1215 -0.0356 -0.1096
20581W        W36475  13.097   3.146  15.187  0.2614 -0.0768 -0.0769
20582W        W36476   5.471  18.112  15.355 -0.1953  0.2309 -0.1257
20583W        W36477   6.741   3.079   1.288  0.1375  0.0652  0.1871
20584W        W36478   8.364   8.796  14.902 -0.3292 -0.2030  0.0244
20585W        W36479  15.938   2.391  14.101 -0.0580 -0.1045  0.2335
20586W        W36480   9.653  15.622   1.997 -0.0036 -0.0642 -0.1306
20587W        W36481   2.699   1.021  15.027 -0.3055 -0.3303  0.0149
20588W        W36482  14.723   0.810   0.723 -0.3781  0.0340 -0.0021
20589W        W36483  17.383  11.083   3.885 -0.1927 -0.6256 -0.1784
20590W        W36484   6.183   7.870  15.080 -0.1196  0.2784 -0.0384
20591W        W36485   4.022   9.559   3.086  0.2535 -0.1573  0.3341
20592W        W36486  12.657  18.583   2.293 -0.3491 -0.0734 -0.5000
20593W        W36487   7.496  18.465   1.589  0.3076  0.0060 -0.1050
20594W        W36488  12.302   2.214   1.872 -0.1156  0.1204  0.2871
20595W        W36489   1.021   3.280   4.020  0.0667 -0.2166 -0.1052
20596W        W36490   2.896   3.830   2.326 -0.2634  0.3054 -0.0479
20597W        W36491   4.105  18.221  13.589  0.1687  0.1356 -0.2272
20598W        W36492  17.496   0.399  11.325  0.1369 -0.5972 -0.0699
20599W        W36493   7.250   7.392   5.212 -0.1829  0.0645  0.1253
20600W        W36494   3.288   7.137  13.751 -0.1151  0.3682  0.0894
20601W        W36495  14.086   5.408  11.543 -0.0113 -0.0553  0.0145
20602W        W36496  16.553   4.408   1.277  0.1957  0.1851  0.2040
20603W        W36497  17.967   3.028   3.756 -0.0375  0.0340  0.1083
20604W        W36498  14.819   2.822   3.917  0.0772  0.1999 -0.0401
20605W        W36499  12.219   1.174  13.429  0.0431  0.0154  0.1841
20606W        W36500   1.075   4.896  13.542  0.0135  0.1338  0.1055
20607W        W36501   6.928   1.711   0.958  0.0895  0.1477  0.0650
20608W        W36502  14.533   8.377  11.887  0.0744  0.2819 -0.2556
20609W        W36503   5.404  12.545  11.969 -0.0067 -0.2813  0.1638
20610W        W36504  11.142  14.674   4.466 -0.0631 -0.1000  0.3780
20611W        W36505   5.371  16.648   1.696  0.0319 -0.3304 -0.1419
20612W        W36506  14.663   4.778   2.512  0.0766  0.2144 -0.3750
20613W        W36507  12.848   6.704  10.912 -0.3699 -0.4978 -0.2111
20614W        W36508  17.456  12.968   4.490  0.0129 -0.0372  0.5260
20615W        W36509  11.943   2.849  13.741  0.2048  0.0923  0.1141
20616W        W36510   3.261  12.288   0.474  0.2979 -0.0548 -0.1393
20617W        W36511  15.354  15.830  11.543  0.2193  0.0470 -0.1087
20618W        W36512   4.754   0.977  15.236  0.2251  0.0510 -0.1617
20619W        W36513   1.051  14.857   4.009  0.0591  0.0006  0.0813
20620W        W36514  14.291  16.712   4.567 -0.0043 -0.0146  0.1886
20621W        W36515  17.772   7.905   3.009  0.0027  0.0132  0.4071
20622W        W36516   9.586   5.824   2.129  0.0530 -0.0218 -0.2009
20623W        W36517   1.939   5.886   4.773  0.1795  0.2446 -0.0802
20624W        W36518  15.246   4.437  11.807  0.0347 -0.1929 -0.0094
20625W        W36519   9.301   1.519   0.247  0.3562 -0.2732 -0.1797
20626W        W36520   6.213  16.873   2.026 -0.2902  0.2622  0.0515
20627W        W36521   8.049   9.597  10.530  0.0656  0.3396 -0.1080
20628W        W36522  15.437   7.599  15.071 -0.0172 -0.3478 -0.1017
20629W        W36523  12.618  14.903  14.670 -0.1547 -0.2905 -0.0071
20630W        W36524  15.935  11.827   1.652 -0.1545  0.0690 -0.0782
20631W        W36525   0.853   8.704  10.698 -0.0420 -0.1865  0.2692
20632W        W36526   4.136   1.709  13.588 -0.1949  0.0029  0.0675
20633W        W36527   3.689   5.671  15.479 -0.1178  0.2453  0.1481
20634W        W36528   8.428   9.638  13.897 -0.2119  0.1864 -0.2678
20635W        W36529   3.466  16.095   9.983  0.3452 -0.0479 -0.2874
20636W        W36530  14.298   7.340  14.773 -0.2371  0.2965  0.1366
20637W        W36531  10.364  13.104  13.339  0.0822 -0.1632 -0.1054
20638W        W36532   0.160  16.851  12.698 -0.0078 -0.2580  0.1418
20639W        W36533   2.429  17.944   1.066 -0.2404  0.0368  0.0265
20640W        W36534  18.093   8.624  13.085 -0.4054 -0.0758  0.0823
20641W        W36535   5.200  14.762  14.129 -0.1277 -0.1786  0.0537
20642W        W36536   2.512   7.286  12.466  0.2722 -0.1906  0.2801
20643W        W36537  10.052  13.405  13.650 -0.2622  0.0680  0.1132
20644W        W36538   6.763   5.778   2.084  0.0177  0.0282  0.0233
20645W        W36539  16.317   9.144   4.039  0.4352  0.2849 -0.3153
20646W        W36540   0.609   1.713  11.218  0.1161  0.3491  0.2283
20647W        W36541  12.853   7.528   1.320 -0.1249 -0.2490 -0.1002
20648W        W36542   5.764  11.140  15.526  0.0880  0.1273  0.0583
20649W        W36543   3.636   4.883  13.381 -0.0651 -0.1032 -0.2247
20650W        W36544  16.936  15.821   5.371  0.3547  0.1744  0.2284
20651W        W36545   6.894   3.742   4.809  0.0875  0.1786 -0.0431
20652W        W36546  14.384   4.394   4.161 -0.2043 -0.1472 -0.0871
20653W        W36547   6.021  14.062   0.943  0.0109 -0.1391  0.0392
20654W        W36548   0.283   1.954  12.964  0.2680 -0.1408  0.0058
20655W        W36549  13.170   7.342   3.334 -0.2322 -0.0125  0.2606
20656W        W36550   7.220   0.605   0.526 -0.0593  0.1030  0.0171
20657W        W36551  15.372  11.729   1.891 -0.1700 -0.2987 -0.2222
20658W        W36552   8.619  10.975   5.628  0.1460 -0.0522  0.0247
20659W        W36553  17.948  16.542  15.350  0.1741 -0.0386 -0.3171
20660W        W36554   7.585  14.211  13.672 -0.1346 -0.1557 -0.0759
20661W        W36555  11.596  12.104   3.495  0.3060 -0.0004 -0.2350
20662W        W36556   3.359  11.369   0.676  0.0482 -0.0422  0.0225
20663W        W36557   4.202  16.824  12.688 -0.2361  0.2082  0.2023
20664W        W36558   0.228  10.855  15.406 -0.3606 -0.1064 -0.5082
20665W        W36559   6.274  16.306   2.919  0.1457  0.0632 -0.2981
20666W        W36560   8.988  11.655  13.199  0.1085 -0.1402  0.1110
20667W        W36561  16.419  12.004   1.903  0.0231 -0.1559  0.3032
20668W        W36562   1.896   5.408   5.730  0.0956 -0.1559  0.3209
20669W        W36563   1.839  16.736   4.302  0.0329 -0.1406  0.1656
20670W        W36564   6.044  16.698  14.078 -0.1759 -0.0761 -0.0846
20671W        W36565   7.299  10.941  10.560 -0.0413 -0.0099 -0.1157
20672W        W36566  11.760   5.463   4.866  0.0900 -0.0356 -0.1636
20673W        W36567   2.698   8.258  11.356  0.0369  0.2251  0.3696
20674W        W36568  16.262   1.565   2.299 -0.0262 -0.1037  0.1418
20675W        W36569   4.904   2.664  11.919 -0.1265  0.0036  0.0208
20676W        W36570   4.620   6.511   3.976  0.1369  0.0995 -0.0818
20677W        W36571   2.225   9.252  11.765 -0.4086  0.0604 -0.0548
20678W        W36572  16.828  14.268   4.869 -0.0052 -0.0153  0.1520
20679W        W36573   6.734   7.322   0.504 -0.2193  0.1848 -0.0764
20680W        W36574  10.657   8.798   5.298  0.1925 -0.0616  0.0587
20681W        W36575   0.174   1.626  11.996  0.1092 -0.0850 -0.0681
20682W        W36576  10.610  12.495   1.093 -0.2873  0.2901 -0.0822
20683W        W36577   4.792   3.119  13.653  0.0980 -0.1687 -0.1173
20684W        W36578   4.396  12.076  12.857 -0.2827  0.0373  0.2288
20685W        W36579   8.598  16.508   3.593  0.2687 -0.0895  0.2430
20686W        W36580  11.466  13.985  13.050 -0.0354  0.0198  0.0856
20687W        W36581  13.668   3.427  12.929 -0.0052  0.0331 -0.0782
20688W        W36582  14.007   7.382   2.135 -0.2282  0.1250  0.1057
20689W        W36583   9.446   6.901  10.255 -0.1234  0.1195  0.0802
20690W        W36584   4.595  12.509  12.861 -0.1830 -0.1976 -0.1009
20691W        W36585  15.099   7.727  15.416 -0.0680  0.2788  0.0214
20692W        W36586   0.944   2.323   2.752 -0.0241  0.0285 -0.1171
20693W        W36587   2.074   3.300  11.639  0.2461 -0.4998 -0.0718
20694W        W36588  14.402   7.470  10.944 -0.0627  0.0195  0.1080
20695W        W36589   2.614   2.548  11.464 -0.0584 -0.3255  0.4247
20696W        W36590   7.599   8.283   2.207 -0.1594 -0.1139  0.0183
20697W        W36591   9.443  10.304  10.589  0.1012 -0.1764 -0.0453
20698W        W36592  12.152  15.331  15.406 -0.0722 -0.1988 -0.2643
20699W        W36593  12.729   5.244   1.122  0.0283 -0.2027 -0.0550
20700W        W36594  12.193  16.826  15.531 -0.4255 -0.0116 -0.1675
20701W        W36595  16.882   9.131  14.546  0.0914  0.1725 -0.1733
20702W        W36596  12.699   3.728   2.738 -0.1560  0.3007 -0.3384
20703W        W36597  10.774   6.178  14.367  0.2218 -0.1524  0.1360
20704W        W36598  11.056   3.770   3.149  0.1285  0.0526 -0.3165
20705W        W36599  15.437   0.576   1.112 -0.1735  0.1534  0.0714
20706W        W36600  17.100   6.287  14.493  0.1694  0.0545 -0.5454
20707W        W36601   4.278  15.314  11.973 -0.0592  0.0850 -0.1636
20708W        W36602  17.955  18.289   0.601  0.0452 -0.2514 -0.1809
20709W        W36603   4.615   2.712  10.997 -0.3385  0.2008 -0.0419
20710W        W36604   1.026  15.276  13.584  0.0529  0.1144  0.1419
20711W        W36605  15.852   1.756   1.834  0.0967  0.0470  0.2715
20712W        W36606   4.151   2.002  12.124  0.1206 -0.2041  0.0829
20713W        W36607   7.104  15.137   3.556 -0.0544  0.3739  0.0038
20714W        W36608  18.185   7.184   1.717  0.1021 -0.0818  0.0524
20715W        W36609   4.568   6.769   4.597 -0.0096  0.0271 -0.2271
20716W        W36610   4.839  18.300   3.496 -0.1209 -0.2833 -0.0130
20717W        W36611   8.990   5.890  15.529 -0.1356 -0.2813  0.0052
20718W        W36612  18.537   4.111   3.258 -0.0563  0.2287 -0.4198
20719W        W36613  11.370   9.387   1.513 -0.1952  0.0604 -0.3603
20720W        W36614   2.935   3.625   4.891  0.0287 -0.0791  0.2347
20721W        W36615   1.944  12.404  11.786 -0.0774 -0.0342 -0.2768
20722W        W36616  16.279   5.554   2.883  0.1018  0.1987 -0.1349
20723W        W36617  17.220   3.945   2.456  0.0564  0.2400  0.0647
20724W        W36618   9.337  18.031  12.711  0.0051 -0.0122 -0.0127
20725W        W36619   5.307   0.075   2.177 -0.0407  0.3893 -0.1126
20726W        W36620   2.889   4.940  12.688  0.0660 -0.0481 -0.1357
20727W        W36621   8.222   8.190   5.883 -0.2559  0.4367  0.3172
20728W        W36622   0.139   4.384   6.012 -0.4732 -0.0012 -0.1158
20729W        W36623  13.181  15.508   1.977 -0.3959  0.1747  0.1163
20730W        W36624   1.529   4.744   2.192 -0.0502 -0.2021 -0.1457
20731W        W36625   8.354  17.366   1.265 -0.0002 -0.2624  0.0757
20732W        W36626  15.510  13.890  13.182  0.1947  0.2700 -0.1655
20733W        W36627   3.446   4.655   2.836  0.1787  0.0669  0.0347
20734W        W36628  16.630  10.667   1.895 -0.0598  0.1161 -0.0487
20735W        W36629  15.398   5.145   3.824 -0.0853  0.0754 -0.5606
20736W        W36630   4.218   6.425  15.244 -0.1095 -0.3749 -0.1398
20737W        W36631   5.459  17.769  13.072  0.1134  0.3484  0.2676
20738W        W36632   3.118  17.665  13.356  0.0299 -0.0620  0.0969
20739W        W36633   1.284   5.598  15.364 -0.0635 -0.0643  0.1719
20740W        W36634   0.349   0.051  14.020  0.2195 -0.2109  0.0600
20741W        W36635  17.273  14.026   3.591  0.4195  0.0653  0.1095
20742W        W36636   9.877  13.361  15.174 -0.0661 -0.3088 -0.2354
20743W        W36637   3.071   1.071  12.075  0.1675 -0.2180 -0.1360
20744W        W36638  13.604   4.396   3.425  0.1376 -0.0987  0.0480
20745W        W36639   1.118  15.466  11.354  0.0833 -0.1327  0.0591
20746W        W36640   9.973   6.504  12.118 -0.0650 -0.0593  0.3262
20747W        W36641  12.005  13.681  11.758 -0.2093  0.1363  0.0569
20748W        W36642   1.961   3.445   3.290  0.0142  0.1867  0.3057
20749W        W36643   5.500   8.559   1.466 -0.2493 -0.0954  0.1863
20750W        W36644  10.408   0.191   3.988 -0.1997  0.1865  0.2702
20751W        W36645  10.886   7.861   0.105  0.1668  0.1500 -0.0168
20752W        W36646   6.745   7.328  11.726 -0.0203  0.2743 -0.1957
20753W        W36647  12.612  11.957  12.721 -0.0075 -0.1369  0.1493
20754W        W36648   4.927   2.497   5.271  0.1779 -0.0092 -0.0517
20755W        W36649  18.190  14.211  14.346  0.0331 -0.3443  0.2922
20756W        W36650   5.504  13.798   4.627 -0.0888 -0.0251  0.1591
20757W        W36651   1.344   7.197   1.316 -0.1842  0.0575 -0.1020
20758W        W36652   7.997   3.208   4.816  0.1921  0.2486  0.1005
20759W        W36653   7.805   8.294  15.387 -0.0493  0.0067 -0.1276
20760W        W36654   1.580  10.401   3.013 -0.3527  0.0108  0.2476
20761W        W36655   3.098   1.969   4.813 -0.0999 -0.0452 -0.0168
20762W        W36656  11.344   5.725  15.445 -0.3442 -0.2295 -0.1255
20763W        W36657  14.613   2.721  15.613  0.5334  0.3339 -0.2195
20764W        W36658   5.533  18.520  10.255  0.3269  0.0373  0.0759
20765W        W36659  13.302   3.879  14.607 -0.1555 -0.0284  0.0665
20766W        W36660   7.931   9.503  15.039  0.0592  0.1692 -0.0119
20767W        W36661  14.596   4.060  15.449 -0.0534 -0.0570 -0.0596
20768W        W36662  17.173  12.848   4.035  0.2859 -0.0283 -0.2381
20769W        W36663   6.264   3.395  14.207  0.2939  0.0073 -0.2512
20770W        W36664  11.420  13.344   0.588  0.1570  0.1015  0.2778
20771W        W36665   9.025  15.077   0.801 -0.0714  0.1016  0.2540
20772W        W36666   3.930   4.842  15.040 -0.3273  0.3678  0.1548
20773W        W36667   8.257  18.242  11.083 -0.0499 -0.1543  0.1801
20774W        W36668   1.779   8.321  14.193  0.1354  0.4000 -0.1506
20775W        W36669  18.303  15.696  12.237  0.1110  0.1608  0.2626
20776W        W36670   5.088  15.428  11.296 -0.0298 -0.2269  0.0021
20777W        W36671   5.860   9.061  13.295 -0.1026  0.0946  0.2148
20778W        W36672   3.227   1.081   4.234 -0.0613  0.0931 -0.1629
20779W        W36673  17.124  13.496  10.212  0.1661 -0.1225  0.5122
20780W        W36674  13.890   0.821  12.182 -0.0941 -0.0330 -0.1663
20781W        W36675  10.349   8.269  15.341  0.2761  0.1672 -0.1277
20782W        W36676  13.238  10.865  14.299 -0.0787  0.0589 -0.2998
20783W        W36677   1.271  12.834   1.877  0.1692  0.1069 -0.1062
20784W        W36678  16.033   6.921  14.002  0.1181  0.0941  0.0918
20785W        W36679  13.841  15.058   2.821  0.0355 -0.4823  0.3578
20786W        W36680  11.725   3.110   0.004  0.0348  0.0042 -0.0646
20787W        W36681   7.626   4.540   4.771  0.1010  0.3473 -0.3050
20788W        W36682  10.915   7.809  12.056 -0.0348 -0.1450 -0.0897
20789W        W36683   8.734   7.300   0.548  0.2012  0.2543  0.1051
20790W        W36684   4.581  13.006  13.918 -0.0121 -0.0243 -0.1125
20791W        W36685   9.739   0.524  12.297  0.2202 -0.0660  0.0409
20792W        W36686  15.675  15.258   2.626  0.2576  0.0955  0.2033
20793W        W36687  11.220  15.686  14.047  0.0445  0.1832 -0.1272
20794W        W36688   2.331   4.687   2.406 -0.3140 -0.6207 -0.0955
20795W        W36689  16.894  12.506   3.094  0.0304 -0.0343  0.0628
20796W        W36690  15.999   1.572  11.573 -0.0474 -0.0972 -0.0748
20797W        W36691   3.605  14.948   2.432  0.2361  0.3014  0.2170
20798W        W36692   4.478  13.261  14.540 -0.1668 -0.3068  0.2673
20799W        W36693   6.822   4.756   0.274 -0.0972 -0.2744  0.2840
20800W        W36694   2.950  11.503   0.948  0.0241 -0.2418 -0.1345
20801W        W36695   2.692   9.843   2.685 -0.0821 -0.1195 -0.2488
20802W        W36696  14.268  16.042   4.930  0.0338 -0.6908  0.0896
20803W        W36697  17.292   9.122  11.144  0.0649 -0.0225 -0.1315
20804W        W36698  11.506   1.962   2.937  0.0694 -0.3806 -0.2224
20805W        W36699   6.773   8.622  13.114 -0.1285  0.1472  0.2510
20806W        W36700  12.847   2.054   3.751 -0.3042  0.1197  0.0714
20807W        W36701  11.009   0.180   4.314 -0.3067  0.0427  0.0714
20808W        W36702  14.181   2.488  12.113  0.0641  0.0348 -0.1069
20809W        W36703  14.996  10.502   5.397  0.1234 -0.1600  0.0850
20810W        W36704  13.361   8.356  13.897 -0.1007 -0.1406 -0.1625
20811W        W36705   2.398   1.252   9.725  0.2574  0.1248 -0.2070
20812W        W36706  12.870  11.294  13.412 -0.3283  0.2169 -0.2118
20813W        W36707   6.468  15.922  12.111 -0.1900  0.2830 -0.2777
20814W        W36708  12.966  10.479  11.622 -0.1089 -0.2666  0.2227
20815W        W36709   2.176  10.049  14.804  0.2257 -0.3739 -0.0472
20816W        W36710   6.840   2.459   4.738 -0.0169 -0.1746  0.0023
20817W        W36711   5.302   4.997   4.097  0.0635  0.2948 -0.0616
20818W        W36712  17.452   2.261  12.316  0.0743  0.0941  0.0614
20819W        W36713  10.102  17.108  10.740 -0.0424 -0.2104  0.0832
20820W        W36714  13.796  14.332   0.676 -0.1769 -0.0045  0.0700
20821W        W36715  15.776  12.722   3.351 -0.3134 -0.0174 -0.2539
20822W        W36716   6.655   4.332   2.097  0.3135  0.0304 -0.2893
20823W        W36717   0.752  10.616   1.829 -0.1163  0.1651  0.2470
20824W        W36718   1.668  16.272   2.402  0.1332  0.1654  0.2289
20825W        W36719   4.680   7.424  14.817  0.0096  0.0982 -0.1356
20826W        W36720   2.154  18.384   3.955  0.0734 -0.1782 -0.1832
20827W        W36721  14.080   9.953   2.336 -0.4082 -0.0907  0.1292
20828W        W36722   6.330  14.035   3.987 -0.0286  0.3139 -0.0078
20829W        W36723  10.135   6.749  11.228 -0.1039  0.0567  0.2694
20830W        W36724   6.920  13.909   0.195 -0.1117 -0.0160 -0.4368
20831W        W36725   2.180   1.175   2.148  0.0017  0.3087  0.0732
20832W        W36726  13.694   9.137   1.745  0.4155  0.0306 -0.0578
20833W        W36727   4.077   4.349   2.134 -0.0453 -0.4758  0.1001
20834W        W36728  14.291  14.146  15.564 -0.1395 -0.0320 -0.0777
20835W        W36729   2.189  10.783  10.955  0.1568 -0.0307 -0.0409
20836W        W36730  18.396   0.937  10.074 -0.2397 -0.0947  0.2856
20837W        W36731   3.672   4.221  14.541 -0.0860  0.2408  0.1149
20838W        W36732  10.248   9.417  12.910 -0.0751  0.2955 -0.1197
20839W        W36733   4.697  17.080  13.754 -0.2937 -0.1694 -0.1347
20840W        W36734  13.414   0.240   3.390 -0.1494 -0.0446  0.1197
20841W        W36735  15.446  14.054  13.742 -0.1274  0.1076  0.0976
20842W        W36736   3.544  17.592   0.045 -0.0719  0.2060 -0.0919
20843W        W36737   9.751   6.012   1.654  0.2829  0.2676  0.0201
20844W        W36738  18.105  12.848   1.423 -0.0002  0.3245 -0.3576
20845W        W36739  14.659   0.401   3.093 -0.0454  0.1115 -0.0823
20846W        W36740   1.459   7.342   9.613 -0.2373 -0.1162  0.0985
20847W        W36741  14.116   9.877   1.768  0.0284 -0.1851  0.1116
20848W        W36742   7.665   3.188   1.260 -0.3067 -0.4941 -0.0108
20849W        W36743   1.475   5.762  10.862 -0.0327  0.2896  0.2652
20850W        W36744   0.973  13.408  12.821  0.0843  0.1032 -0.0670
20851W        W36745   1.610  15.245   1.557  0.0795  0.0754 -0.0098
20852W        W36746   0.911  16.561   0.724 -0.1545 -0.2555  0.0041
20853W        W36747  18.488  16.022   0.703 -0.0206 -0.0322 -0.6018
20854W        W36748  11.368  16.663  11.850  0.2942  0.0431 -0.3607
20855W        W36749  16.986  13.760   2.799 -0.0344 -0.0359  0.1621
20856W        W36750  15.906  10.784   0.328  0.0891 -0.0845 -0.2243
20857W        W36751  18.388   5.873  12.660  0.0754  0.1699 -0.0427
20858W        W36752  11.436  14.007  15.568 -0.0313 -0.3310 -0.0048
20859W        W36753   9.621  17.097  14.759 -0.0181 -0.0245  0.1805
20860W        W36754  16.328  18.736   0.947  0.1730  0.0482  0.1579
20861W        W36755   8.231  17.915   3.587  0.1365 -0.2985 -0.3901
20862W        W36756   5.175  11.613  13.279  0.3438  0.1679 -0.1229
20863W        W36757   1.853   5.981  12.726 -0.3378 -0.0214 -0.1338
20864W        W36758   9.199   2.965   3.971 -0.0510 -0.0648 -0.0406
20865W        W36759   3.137   7.630   9.915  0.1132  0.0977 -0.3984
20866W        W36760   8.219  12.524   3.299  0.3144 -0.1836 -0.2477
20867W        W36761  15.545  18.738   1.924  0.0324  0.1969 -0.1632
20868W        W36762  12.048  17.509   0.630  0.1304  0.0043  0.1281
20869W        W36763   7.845  16.868  11.340 -0.0650 -0.0054  0.0516
20870W        W36764   0.852   8.276   2.178 -0.1371 -0.0896 -0.4191
20871W        W36765  14.891   0.443   4.295 -0.0764  0.3210  0.2609
20872W        W36766   8.355  12.044   5.194  0.1343 -0.2084  0.2258
20873W        W36767  11.205   2.313  11.169 -0.0519 -0.0614  0.1208
20874W        W36768   3.907  13.523  13.607 -0.1848 -0.2384 -0.0120
20875W        W36769  10.096   8.653   0.074 -0.1559  0.0102 -0.0037
20876W        W36770   0.319  13.965  12.635  0.1460  0.0633  0.2387
20877W        W36771  17.566   3.097  13.601  0.3777 -0.1610 -0.0358
20878W        W36772   5.958  11.713   5.071 -0.1420  0.0295  0.0529
20879W        W36773   1.375  10.683  12.298  0.2500  0.1316  0.1290
20880W        W36774   0.488  16.679   5.339 -0.1870  0.0658  0.1995
20881W        W36775  18.214  16.436   1.077  0.0334 -0.0545 -0.3342
20882W        W36776  13.496   0.895   2.658 -0.0543 -0.0110 -0.0299
20883W        W36777   3.223  17.554  14.519 -0.3303 -0.1767  0.0200
20884W        W36778  11.812  10.295  11.358 -0.5950  0.0463  0.1699
20885W        W36779  12.105   7.346  12.124 -0.0154 -0.1242 -0.2581
20886W        W36780   1.189   6.508   5.812 -0.1737 -0.2839 -0.1772
20887W        W36781   6.799  17.896   1.900  0.0899 -0.1497 -0.1453
20888W        W36782  18.330  10.052   4.184  0.0032 -0.0331 -0.0414
20889W        W36783  16.636  11.973   5.343 -0.2657 -0.1887 -0.0829
20890W        W36784   7.974   6.292   1.510 -0.1876 -0.1242  0.0955
20891W        W36785  12.878  13.528   5.304 -0.0256 -0.2966  0.2434
20892W        W36786  13.398   2.458  13.882  0.0338 -0.2530 -0.1525
20893W        W36787  11.306   2.161   1.960  0.0738  0.0097 -0.0675
20894W        W36788   2.457  10.764   2.517 -0.1584 -0.2179 -0.1316
20895W        W36789  16.136  11.242   0.267  0.3188  0.3104  0.2311
20896W        W36790   3.056   5.985   1.532 -0.0560  0.0206  0.2672
20897W        W36791   6.905   4.715  14.862 -0.1518  0.4456  0.2484
20898W        W36792   7.999   8.887  11.789 -0.4623  0.4753 -0.2780
20899W        W36793   3.007   0.748   2.241 -0.2485 -0.1339 -0.0950
20900W        W36794   6.200  14.448  12.809  0.2590  0.1128  0.2407
20901W        W36795   3.886   6.346  13.388  0.4450 -0.1273 -0.2690
20902W        W36796  13.746  11.113  12.702  0.0418 -0.1481 -0.1616
20903W        W36797   4.866   7.228  15.495  0.1564  0.2354 -0.0601
20904W        W36798  10.470   4.255   3.558  0.0985  0.0364  0.2615
20905W        W36799   8.968   2.493  14.955 -0.0327  0.1233  0.1166
20906W        W36800   3.044   1.058  13.265 -0.0149  0.1709 -0.4584
20907W        W36801   1.918   4.385  12.362  0.1978 -0.1866 -0.2693
20908W        W36802  11.271   0.752   1.271  0.0813 -0.0515  0.1429
20909W        W36803  16.260   8.020  12.222 -0.0601 -0.1252 -0.0730
20910W        W36804   8.045  15.336   0.643 -0.0026 -0.1441  0.0472
20911W        W36805   0.954   5.496  13.378  0.0346  0.2885 -0.1016
20912W        W36806   2.088  12.485  13.502  0.3268  0.4153  0.2532
20913W        W36807   5.930   0.352  12.940 -0.3044  0.2867 -0.0440
20914W        W36808  10.158   2.329   4.930  0.1330 -0.1015 -0.0428
20915W        W36809  10.220  13.779   4.720 -0.0002 -0.0018  0.0076
20916W        W36810  17.877  17.770   0.358  0.2989  0.3442  0.2144
20917W        W36811  14.455   4.964   4.185 -0.6414  0.0123  0.2098
20918W        W36812  16.993   8.307   3.647  0.0316 -0.1023 -0.1486
20919W        W36813   8.766  15.439   5.046 -0.1392 -0.1610  0.2623
20920W        W36814  17.002  18.704  14.660  0.0442 -0.1802 -0.1146
20921W        W36815  11.840  10.550  14.643  0.2636  0.1044 -0.0145
20922W        W36816  10.848  13.353  13.122 -0.0364 -0.0381  0.0472
20923W        W36817   1.233   0.327  13.949  0.0905  0.3013 -0.0075
20924W        W36818  11.219  15.544   1.935  0.5764 -0.0477 -0.2900
20925W        W36819   3.998   1.961  13.035  0.4209  0.0846  0.0874
20926W        W36820  11.178   6.642   4.620  0.2013 -0.0151 -0.0939
20927W        W36821   4.644  16.195  15.524  0.1321  0.0517  0.1515
20928W        W36822  15.493   2.531  13.810  0.0527  0.0870  0.1129
20929W        W36823   6.137  13.831  13.219  0.0383  0.2503 -0.0155
20930W        W36824  17.348  13.572   5.162  0.1242  0.4124 -0.1595
20931W        W36825   0.281  16.914  10.862 -0.5203  0.1937 -0.1622
20932W        W36826  17.639   2.318  13.181  0.2124  0.1215 -0.0502
20933W        W36827  13.166   5.905   2.382 -0.2363  0.1474 -0.1722
20934W        W36828   1.930   0.484  15.103  0.2416 -0.0980 -0.3893
20935W        W36829  16.055   9.410  15.128 -0.1053 -0.2194 -0.0653
20936W        W36830  10.447   7.635   0.306  0.0118  0.4694  0.0106
20937W        W36831  15.699   1.978  11.751  0.1985 -0.2433  0.1089
20938W        W36832   9.267   6.700   0.073  0.0660 -0.0015 -0.0210
20939W        W36833   4.711   3.456  12.570 -0.3220 -0.1872 -0.1094
20940W        W36834   6.791  10.768  11.962 -0.0247 -0.0311  0.1811
20941W        W36835  10.304   0.799   5.229 -0.0955  0.1365 -0.0300
20942W        W36836   1.627  18.350   1.979 -0.3303 -0.1568  0.0747
20943W        W36837   3.412  16.922   2.874  0.4187 -0.3014 -0.1330
20944W        W36838  14.838   4.628  14.700 -0.3850 -0.1046 -0.0828
20945W        W36839  12.076   0.535  13.279  0.0317  0.0478  0.3478
20946W        W36840  10.664   5.653  12.852 -0.3278 -0.0548  0.0217
20947W        W36841   3.961  17.707   2.601 -0.0082  0.0922  0.0300
20948W        W36842  15.813   5.241  14.206 -0.2472  0.0581  0.2365
20949W        W36843   9.582  16.027  15.401 -0.0421 -0.0833 -0.1008
20950W        W36844   0.811  14.401   4.150  0.0086  0.0089 -0.1344
20951W        W36845  18.175   3.208   3.014 -0.1719 -0.3634 -0.5880
20952W        W36846   1.268   8.362  14.959  0.3237 -0.2533 -0.2349
20953W        W36847  10.208  11.934   2.405 -0.1655  0.0777 -0.4265
20954W        W36848  16.075   1.898  14.052 -0.0248 -0.0206  0.0692
20955W        W36849  15.621   9.207  13.759 -0.1017  0.3152 -0.4251
20956W        W36850  10.095   1.229  15.236  0.1431  0.0639  0.2752
20957W        W36851  11.845   9.261   1.811 -0.0978  0.0266 -0.4546
20958W        W36852   0.976  18.314   4.800  0.1083  0.2469 -0.4603
20959W        W36853   6.491  17.169  10.979 -0.1153  0.1466  0.1965
20960W        W36854  17.102  12.183   2.681  0.3137 -0.3665 -0.1466
20961W        W36855  14.164  15.312  13.366  0.0188  0.1424  0.0126
20962W        W36856   5.180   1.971  10.480  0.1029  0.1203  0.2231
20963W        W36857   9.409  10.187  14.390  0.1075  0.2758 -0.0781
20964W        W36858  17.370  17.089   2.184  0.2125  0.2662 -0.0945
20965W        W36859   5.418  13.343   0.309 -0.0298  0.0736  0.0648
20966W        W36860  17.293  17.400  14.762  0.1053  0.3685 -0.3186
20967W        W36861   6.464  14.372  11.079 -0.0220  0.0960 -0.2012
20968W        W36862   2.075  11.826   5.158  0.3088  0.1097 -0.1126
20969W        W36863   6.099   1.347   1.521 -0.0544  0.1891  0.1877
20970W        W36864  17.770  11.061  12.741  0.0698 -0.2280 -0.2060
20971W        W36865   4.918  18.758   1.727  0.0364  0.1198  0.2283
20972W        W36866   0.627   0.814   2.800  0.3174 -0.0714 -0.0056
20973W        W36867  15.191  11.186  11.920  0.0798  0.1030  0.1138
20974W        W36868  10.630  16.769   1.380  0.0219  0.0592  0.2425
20975W        W36869  14.527  14.565  11.478  0.0560 -0.1623  0.0896
20976W        W36870   6.265  12.161   0.109  0.2437 -0.1573 -0.1623
20977W        W36871   3.940   7.113   5.108 -0.3144  0.2294  0.0905
20978W        W36872   8.014  17.312   2.464  0.2043  0.1327  0.0054
20979W        W36873   7.480   1.576  11.743 -0.2903  0.1259  0.1174
20980W        W36874  16.179  14.723  11.420  0.0541 -0.0987  0.0623
20981W        W36875   3.289   5.505   0.166 -0.0059 -0.0733 -0.0036
20982W        W36876  12.417  15.968  11.194  0.0827  0.0623 -0.4005
20983W        W36877   7.096  16.111   3.863 -0.1945 -0.0842 -0.0166
20984W        W36878  12.879  13.396   3.228  0.1008 -0.0186  0.0782
20985W        W36879   6.841  17.993   0.895 -0.0984  0.2211 -0.1804
20986W        W36880   1.613  12.887  11.822  0.0789  0.0107  0.0461
20987W        W36881   5.508   7.981  14.350  0.1684 -0.0808 -0.0225
20988W        W36882  15.009   8.715   4.816 -0.2076  0.0538 -0.0779
20989W        W36883  17.537  14.292   4.676  0.0238  0.0916  0.0022
20990W        W36884   1.907   0.434  11.351  0.0594 -0.0583 -0.0259
20991W        W36885  16.290   8.837  13.977 -0.2133  0.1068  0.0911
20992W        W36886   5.306   6.374  13.588  0.4687  0.0623  0.2544
20993W        W36887   1.704   9.043  14.574  0.0410  0.0714 -0.2124
20994W        W36888  16.320  16.659  12.762  0.1636  0.4275 -0.2789
20995W        W36889  15.923   7.215   4.205  0.0273 -0.2733  0.0644
20996W        W36890  11.556   6.357  11.967 -0.0506 -0.0587  0.2439
20997W        W36891  17.545  17.364   4.747 -0.0690  0.0548 -0.3088
20998W        W36892  14.733  13.560   3.578  0.2889  0.0933 -0.2035
20999W        W36893  12.255   1.529  10.704 -0.4181 -0.0187  0.3087
21000W        W36894   8.038   3.520  11.694  0.0299 -0.0066 -0.2068
21001W        W36895   7.901  11.956   5.038 -0.1292  0.2207  0.4922
21002W        W36896   0.215  13.226   3.931  0.0362  0.0911  0.2214
21003W        W36897  11.661   1.959   1.690 -0.2616 -0.2781  0.5116
21004W        W36898   8.144  14.049  13.573 -0.0392 -0.2809 -0.0353
21005W        W36899   7.578   3.685   0.095  0.2180  0.2142 -0.2703
21006W        W36900   2.783  10.015  11.470  0.0948  0.2200  0.0709
21007W        W36901   1.193  18.224  15.480  0.3735  0.1157 -0.4437
21008W        W36902  17.691  11.945  11.717 -0.0751  0.0011  0.1029
21009W        W36903   7.127   3.415   5.444  0.2410 -0.0207 -0.1601
21010W        W36904   8.637   3.856   3.239  0.5650 -0.4237 -0.0762
21011W        W36905  18.759   6.262  11.596 -0.1441 -0.1084  0.1304
21012W        W36906   1.061   1.229  12.891 -0.0641 -0.0148  0.0586
21013W        W36907   3.248  12.489   3.225  0.0056  0.0274  0.2208
21014W        W36908   6.455  12.605   1.693 -0.1240 -0.1926 -0.0447
21015W        W36909   6.134  13.930  10.847  0.2166 -0.2247 -0.1532
21016W        W36910  11.898  17.431   2.297  0.0422  0.1505 -0.1340
21017W        W36911  17.061  14.826  13.405  0.3318 -0.0028  0.0754
21018W        W36912   3.818   2.856  12.497  0.1656 -0.0429 -0.2896
21019W        W36913  14.574   3.595  10.904 -0.2367 -0.3265  0.2181
21020W        W36914   8.791   0.044  10.668  0.1219  0.1712  0.2565
21021W        W36915   7.087  15.382   2.692  0.0355  0.0468 -0.2124
21022W        W36916   7.190   6.435  14.351 -0.4162 -0.0808 -0.1535
21023W        W36917   7.255  17.883  11.864  0.3037  0.3258 -0.0457
21024W        W36918  10.638   4.791  12.046  0.0493  0.0908 -0.0254
21025W        W36919  15.579  12.468   2.489 -0.3662 -0.1431 -0.4057
21026W        W36920  15.743   3.211   3.552  0.0734  0.1617 -0.3172
21027W        W36921  15.816   9.610   4.964  0.0431 -0.3668  0.1519
21028W        W36922   6.889   1.391   4.657  0.0296 -0.0099  0.0748
21029W        W36923  10.912  10.678   1.322  0.1093 -0.0972  0.4230
21030W        W36924   5.659  10.658  13.195 -0.3641  0.1941  0.3681
21031W        W36925   0.670  12.897  14.122 -0.1596 -0.1137 -0.0277
21032W        W36926  12.580  11.862  11.899  0.0754 -0.0164  0.0687
21033W        W36927  17.127  10.300   0.822  0.0465  0.1421 -0.0786
21034W        W36928  10.675  13.342  11.210  0.0056  0.1402  0.0274
21035W        W36929   3.367   1.232  11.220  0.2487  0.1627 -0.1163
21036W        W36930  10.875  13.415   0.580  0.0812  0.1459  0.2548
21037W        W36931   4.190   5.234   1.767  0.0279 -0.1092  0.3965
21038W        W36932  11.672  16.112   0.631 -0.0690  0.2185  0.2251
21039W        W36933  17.445  12.753   0.275 -0.1245 -0.1561  0.1768
21040W        W36934   9.043  15.810  13.222  0.2320 -0.1931 -0.3951
21041W        W36935   0.425  11.029   1.402  0.0103 -0.0022 -0.1072
21042W        W36936  15.799   2.533   2.143  0.1921  0.0918  0.0762
21043W        W36937  13.157   6.938   5.611 -0.2576 -0.3275 -0.0239
21044W        W36938  10.776  17.934   2.352  0.0864  0.2965 -0.2476
21045W        W36939   7.067  15.375  13.116 -0.1281  0.0061  0.1363
21046W        W36940  18.181   2.518  12.876  0.1126 -0.3130  0.1369
21047W        W36941   3.566  11.672  14.030 -0.1281  0.1422  0.0038
21048W        W36942   2.933  12.674  12.378 -0.0192  0.0818 -0.0689
21049W        W36943  14.360  12.159   5.198 -0.1061 -0.1487 -0.4156
21050W        W36944  12.517  10.729  11.577  0.0982 -0.3867 -0.2150
21051W        W36945   0.771  17.359   3.676  0.0241 -0.1550  0.1180
21052W        W36946   0.345   1.274  13.421 -0.1402 -0.2210  0.1965
21053W        W36947   6.124  18.490  10.527 -0.0461  0.1163 -0.1934
21054W        W36948  10.777   6.296   4.531  0.1945  0.1257  0.0862
21055W        W36949  13.547   2.535   2.599 -0.2217 -0.0041 -0.0599
21056W        W36950   8.839  10.853   3.618 -0.3328  0.0175  0.0459
21057W        W36951   0.877  15.773  12.236 -0.0691 -0.1793 -0.0804
21058W        W36952   0.901  10.843  14.586 -0.2225 -0.0449  0.1083
21059W        W36953   6.962   2.659   5.288  0.4034 -0.1047 -0.2475
21060W        W36954   4.257   1.262   3.989 -0.1111 -0.0367 -0.1844
21061W        W36955  17.223   2.471  12.850  0.1304  0.1312  0.0929
21062W        W36956  13.611   5.655  13.205 -0.1184 -0.1281  0.1642
21063W        W36957   1.071   7.126  10.918  0.2714  0.1704  0.0864
21064W        W36958   3.920  13.808   1.057  0.2268  0.2301 -0.0571
21065W        W36959  15.597   9.965   0.661  0.1424 -0.0893  0.5243
21066W        W36960   9.065  11.621  11.140 -0.2467 -0.1115 -0.1519
21067W        W36961   9.958  11.514   4.721  0.1618 -0.1357  0.1326
21068W        W36962   3.215   9.720  11.615 -0.1293 -0.1193 -0.1469
21069W        W36963   9.054   0.793   3.987  0.2479 -0.0369 -0.0711
21070W        W36964   5.785   8.041  11.146  0.1359  0.0238  0.2834
21071W        W36965   5.537   3.245   9.932 -0.1349 -0.0480  0.0364
21072W        W36966   8.919   6.196  12.922 -0.2460  0.0830 -0.1567
21073W        W36967  12.226   0.716  10.995 -0.0591 -0.3505 -0.1073
21074W        W36968  10.425   5.672  13.914 -0.2044  0.0893 -0.1092
21075W        W36969   2.318  13.604  14.986 -0.0152  0.1367  0.0102
21076W        W36970   1.236  11.013   4.198 -0.3625 -0.0034 -0.3702
21077W        W36971  11.815   2.340   2.534  0.0422 -0.0686  0.0232
21078W        W36972   0.507   8.999  14.845  0.1254  0.4456  0.2224
21079W        W36973  11.085   7.646   5.082 -0.2992 -0.1748 -0.1362
21080W        W36974   2.819  17.595  13.790  0.0102 -0.2078 -0.0508
21081W        W36975   0.433  15.459  11.710  0.0686 -0.1670  0.0197
21082W        W36976   6.483   4.932  11.560 -0.4349 -0.1878  0.0028
21083W        W36977  10.210  12.142   1.158  0.2565  0.1306  0.0881
21084W        W36978   4.780   3.115  12.054  0.0389 -0.3091 -0.0434
21085W        W36979  15.758   9.150   2.958  0.0961 -0.0353 -0.0659
21086W        W36980  18.738   4.534  14.936 -0.1320 -0.1082 -0.3576
21087W        W36981   8.881   0.005   3.570  0.1383  0.2996 -0.3302
21088W        W36982   7.634   2.444   3.516  0.2962 -0.2099  0.0001
21089W        W36983  14.657   4.767  11.130  0.3038  0.0772 -0.1267
21090W        W36984  10.063  17.348  11.618  0.1604 -0.1732  0.3182
21091W        W36985  12.134  14.214   5.166 -0.0470  0.4403  0.1007
21092W        W36986   4.299  12.783  14.273 -0.1816 -0.2653  0.1166
21093W        W36987  16.730  14.495  13.651 -0.2566 -0.0634 -0.0987
21094W        W36988   5.151   1.326   0.265 -0.1671 -0.0417  0.3268
21095W        W36989   1.895   1.053  13.481 -0.0028  0.0888 -0.1744
21096W        W36990   8.961   8.120  14.151  0.1909  0.0565 -0.3513
21097W        W36991  10.115   2.981  11.042 -0.0885 -0.1420 -0.0106
21098W        W36992  11.136   9.004   2.384 -0.2571  0.0961  0.0693
21099W        W36993  17.138   5.311  11.509 -0.0727 -0.1009 -0.2025
21100W        W36994  17.524  16.979   0.511 -0.0116 -0.3846 -0.0365
21101W        W36995  10.495  17.185   2.225 -0.0903  0.2991 -0.0036
21102W        W36996   9.103   9.337   3.280  0.3421  0.0041 -0.0514
21103W        W36997  16.597  17.465  11.171 -0.2814  0.2191  0.1574
21104W        W36998  14.757  13.279  11.734  0.1457 -0.2875  0.0534
21105W        W36999  17.929   6.588  13.310  0.2314  0.2421 -0.0362
21106W        W37000  10.600  10.455  12.286  0.0536 -0.0972 -0.0761
21107W        W37001   2.763   4.923   3.475 -0.0743  0.1322 -0.0920
21108W        W37002  17.801  14.167  13.967  0.0029  0.2066  0.0284
21109W        W37003   4.898   9.694  12.003  0.2093  0.0154  0.1369
21110W        W37004   1.206   3.667  14.286 -0.0431  0.2829  0.0017
21111W        W37005   4.808   0.134  11.744 -0.2806 -0.3765  0.1388
21112W        W37006  16.755   3.493  10.741  0.3684  0.0027 -0.1813
21113W        W37007   3.503   8.940   0.685 -0.0014 -0.1001  0.0459
21114W        W37008  13.181   4.478  13.672  0.0643  0.0601  0.2737
21115W        W37009   2.442   2.932  10.410 -0.1082  0.0955 -0.0549
21116W        W37010  16.318   9.872   5.408 -0.0085  0.0655  0.1301
21117W        W37011  10.216   7.328  10.190 -0.2119  0.0521  0.2944
21118W        W37012   1.557   6.468   2.247  0.3847 -0.1785 -0.0076
21119W        W37013  14.869   0.603   5.775 -0.0316 -0.3939 -0.0925
21120W        W37014   0.297  13.729   1.127  0.1743  0.2322 -0.2052
21121W        W37015  10.657  12.079   5.403 -0.2125 -0.3145  0.1125
21122W        W37016   2.498   3.503  13.523  0.1957 -0.0598 -0.2809
21123W        W37017   7.426  10.597  12.548 -0.0335 -0.3065  0.1193
21124W        W37018  16.988   0.085   2.667  0.2294 -0.0344  0.1423
21125W        W37019   8.710  11.648  11.935 -0.3327 -0.2354 -0.1882
21126W        W37020  15.945  18.476   3.196  0.0291 -0.3802 -0.0014
21127W        W37021   3.190   8.802  12.060  0.2189 -0.0388  0.2835
21128W        W37022  18.013  13.638   0.127  0.3211 -0.0678 -0.0009
21129W        W37023   7.709   0.928  12.544 -0.2416  0.1233 -0.1229
21130W        W37024  11.628   5.968   2.352 -0.1331  0.0210  0.1310
21131W        W37025   7.352   6.061  14.662  0.3033  0.4487 -0.1045
21132W        W37026   2.980  17.020  14.722 -0.3003 -0.1160  0.1145
21133W        W37027   8.014  11.685   1.292 -0.2222 -0.1298 -0.3965
21134W        W37028  11.758  17.395  15.034  0.0045 -0.3504 -0.2170
21135W        W37029   3.783   0.552  12.734  0.1272  0.2575 -0.0045
21136W        W37030   4.641  10.620  13.317 -0.0668  0.2475 -0.1717
21137W        W37031   2.774   1.735   2.418 -0.0937  0.0496 -0.0727
21138W        W37032   0.185   2.511  14.664  0.1490  0.0936 -0.3984
21139W        W37033  17.085  15.473  11.544 -0.0455 -0.0543 -0.0744
21140W        W37034   6.479  18.399   3.636 -0.0717 -0.1672  0.2938
21141W        W37035  18.560  14.138  11.769 -0.0574  0.1150 -0.3513
21142W        W37036   8.887   6.919   4.409  0.2488  0.0799 -0.1982
21143W        W37037   9.461  15.555   0.978  0.0170 -0.1819 -0.1329
21144W        W37038   5.205   2.287  15.508 -0.0655  0.2103 -0.1765
21145W        W37039   8.293  11.599   4.992  0.0111 -0.0666 -0.0453
21146W        W37040   4.453  14.079  10.602 -0.3087 -0.0529  0.0381
21147W        W37041  17.402   4.573   3.892 -0.0900  0.1933  0.0646
21148W        W37042   9.513   7.358  12.214  0.2205  0.1534  0.0062
21149W        W37043   9.619  18.564   3.265 -0.1951  0.0013  0.0924
21150W        W37044  13.951  17.078  13.482 -0.3037  0.2668 -0.2353
21151W        W37045   3.384  13.274  15.525  0.0316  0.0053 -0.1224
21152W        W37046   5.107   7.210   3.191 -0.0938  0.1074 -0.3656
21153W        W37047  10.263  14.383   6.081  0.1040  0.1930  0.0921
21154W        W37048   9.195   8.270   3.448  0.0858 -0.1032  0.2840
21155W        W37049   2.610  10.733  12.657 -0.2369 -0.0927  0.3133
21156W        W37050   6.988  17.229   2.408  0.1267 -0.2715  0.2040
21157W        W37051  12.662   7.025  12.454  0.1331  0.4092 -0.2022
21158W        W37052   8.416   8.252   5.001 -0.0466 -0.4049 -0.1271
21159W        W37053   2.547  18.736  13.901 -0.0817 -0.2563 -0.1125
21160W        W37054   6.298  12.106   2.490  0.1637  0.0034 -0.0035
21161W        W37055   4.502   9.293  15.575  0.1232 -0.0715 -0.3266
21162W        W37056  15.046   5.131   4.162 -0.2976 -0.5125  0.0221
21163W        W37057   2.988  11.817  11.172 -0.0112  0.0227  0.1370
21164W        W37058   3.784   5.835   4.817  0.0365  0.0252  0.1754
21165W        W37059  12.246   6.758  13.278  0.2184  0.1936  0.2080
21166W        W37060   3.310   1.600   3.167 -0.1016 -0.0139  0.1452
21167W        W37061   8.005   0.003   3.934  0.3756  0.0512 -0.0370
21168W        W37062   9.935   0.616  11.078 -0.0766 -0.2525 -0.1012
21169W        W37063  18.767   8.845   2.967  0.2118 -0.1269 -0.0936
21170W        W37064  15.350  17.809  12.935  0.1175 -0.1388 -0.1760
21171W        W37065   3.969   9.819   2.660 -0.0970 -0.3943  0.0520
21172W        W37066  13.220   6.391   3.290  0.2156  0.0691 -0.2981
21173W        W37067   9.495  14.490  12.790 -0.0840  0.2668  0.0749
21174W        W37068  11.078  18.025  15.214 -0.0458  0.0008 -0.1144
21175W        W37069  12.684   4.512  13.324 -0.1017  0.2218  0.1835
21176W        W37070   5.783   2.721   4.341 -0.2068 -0.0683  0.1953
21177W        W37071   2.421   6.173   2.408 -0.0229  0.1754  0.1497
21178W        W37072   8.644   0.663   0.918  0.2207 -0.2427 -0.0403
21179W        W37073  14.364   0.752   5.823  0.0824  0.1153 -0.1714
21180W        W37074   2.264   8.824   3.951 -0.1843 -0.2352  0.0718
21181W        W37075  11.096  18.347   4.247 -0.1576 -0.4786 -0.1325
21182W        W37076   0.753  14.476  12.803  0.0343  0.2672  0.2147
21183W        W37077   1.846  17.199   1.063 -0.4592  0.2540  0.1437
21184W        W37078   4.068  16.604   1.570  0.2066  0.1138  0.1272
21185W        W37079   7.854   9.897   2.789 -0.0387  0.0800  0.1270
21186W        W37080   4.792  13.918  10.227 -0.0461  0.0645 -0.1411
21187W        W37081  17.390  14.689  14.787  0.6459  0.0712 -0.0221
21188W        W37082   9.694  17.716   3.665  0.0504 -0.2336 -0.1990
21189W        W37083  13.172   1.878  12.663 -0.0094  0.3426 -0.0809
21190W        W37084   5.085   0.439   5.573  0.3118  0.1505  0.1067
21191W        W37085   8.768  14.914  11.862 -0.1116 -0.1067 -0.0242
21192W        W37086  13.481   8.978   2.782  0.0048 -0.1028  0.0949
21193W        W37087  17.596   4.240  11.506 -0.0390 -0.0555  0.1565
21194W        W37088   1.855   4.250   3.635 -0.2920  0.0598 -0.2715
21195W        W37089   1.021  12.373   0.801 -0.0448 -0.2253  0.0372
21196W        W37090   6.435  15.666   1.736  0.0794  0.2324 -0.0356
21197W        W37091   4.423  10.268   4.211  0.0537 -0.2489  0.2321
21198W        W37092   6.233  17.227   3.045 -0.2461  0.1506  0.0337
21199W        W37093   2.805  16.685   2.048 -0.0030  0.0325  0.1374
21200W        W37094  10.162  15.897   3.274 -0.1853 -0.0993 -0.1578
21201W        W37095  17.823   0.818   0.320 -0.4419 -0.1432  0.2196
21202W        W37096   0.656   2.787  10.921 -0.1281  0.0371  0.0697
21203W        W37097   0.171  10.757   1.032  0.1628 -0.0947  0.1593
21204W        W37098  10.896  10.390   5.853  0.2607 -0.3151 -0.1572
21205W        W37099  11.685  18.022   3.534 -0.1937  0.1581  0.1288
21206W        W37100  16.249  14.690   2.679 -0.1202  0.0597  0.2557
21207W        W37101  14.138   1.397   5.328 -0.3495  0.2245  0.1108
21208W        W37102   6.235  15.805   0.981 -0.0579 -0.0328 -0.1510
21209W        W37103   1.167   7.413   3.809  0.0319  0.0998 -0.3213
21210W        W37104   3.040   6.455  15.400 -0.1506  0.0247 -0.2148
21211W        W37105  14.582  11.616   0.072  0.0565  0.3235  0.2431
21212W        W37106  18.583  17.731   2.488 -0.3251  0.0302  0.1161
21213W        W37107   2.513  11.826   0.076 -0.0253 -0.2874  0.0548
21214W        W37108   1.624   4.045  12.648 -0.4687 -0.2310 -0.0786
21215W        W37109  18.582  10.326   1.946  0.1238  0.1107  0.0967
21216W        W37110  17.527   9.866   1.487 -0.0009  0.1337  0.2872
21217W        W37111  16.376  18.709   5.325  0.2056  0.1630 -0.1466
21218W        W37112  17.388   2.122   4.617 -0.0877  0.2315  0.2328
21219W        W37113   3.805   9.188   4.910  0.0456 -0.1281  0.1175
21220W        W37114  18.013   4.728   2.856  0.2250  0.0537  0.0303
21221W        W37115   4.429   1.168  11.021  0.0609  0.0280  0.1709
21222W        W37116   6.855  12.176   1.652 -0.2542  0.2010  0.0519
21223W        W37117   0.820   0.498  13.645 -0.1858  0.2020  0.1475
21224W        W37118   2.652  13.432  10.954  0.0834 -0.1680  0.1099
21225W        W37119  17.712   7.172   1.245 -0.1377 -0.1475  0.1502
21226W        W37120   9.057   0.391   0.833 -0.1144  0.0678  0.1099
21227W        W37121   2.844  12.774   4.307 -0.1107  0.0398  0.2315
21228W        W37122  11.020  11.327   0.206  0.0701 -0.1073 -0.0939
21229W        W37123  14.011   3.416  15.158  0.2699  0.1480  0.2549
21230W        W37124  13.057  15.984  14.378  0.0704  0.2167  0.0114
21231W        W37125   9.093   2.290   0.835 -0.3311 -0.1870  0.1731
21232W        W37126  17.603   6.441   5.651  0.1640  0.0423 -0.1345
21233W        W37127   9.004   6.860   1.306  0.2246 -0.1734  0.2349
21234W        W37128  11.087  13.363   3.859 -0.0669 -0.0637 -0.1694
21235W        W37129   2.124  12.051   2.572  0.2415  0.1428  0.0903
21236W        W37130   8.810  10.730   2.968  0.2347 -0.2803 -0.2507
21237W        W37131   1.231  16.034  11.989  0.1408 -0.1933 -0.1717
21238W        W37132  18.487   0.143  14.431  0.0047  0.0977  0.3190
21239W        W37133   3.568  16.243   4.520  0.4478  0.2427  0.0082
21240W        W37134   5.148   7.396  12.655  0.3773 -0.2584  0.0750
21241W        W37135   7.984  13.156   3.068  0.0924 -0.1308 -0.3386
21242W        W37136  14.439   2.486  11.637 -0.3567 -0.2642  0.2611
21243W        W37137  14.147  13.180   5.256  0.0442 -0.0407  0.2239
21244W        W37138  10.786  16.108  14.808 -0.1807 -0.1074 -0.0724
21245W        W37139  15.174  16.646  11.296 -0.0078  0.0255  0.0986
21246W        W37140  16.690   2.516  14.933 -0.1003 -0.1072 -0.2211
21247W        W37141   1.928   7.108  14.811  0.0767 -0.0378  0.0881
21248W        W37142  11.050  11.347  14.356 -0.3318 -0.2605 -0.2478
21249W        W37143   2.076   7.641   0.667 -0.3053  0.0603 -0.2599
21250W        W37144   4.179   9.341   4.561  0.1559  0.1955 -0.0956
21251W        W37145  15.457   1.365  14.231  0.3296  0.1991  0.0916
21252W        W37146   7.203   4.996   0.031 -0.1519 -0.3019 -0.2210
21253W        W37147  12.696   2.235  12.070  0.0483 -0.1591 -0.0237
21254W        W37148   4.497  15.764  11.135 -0.0148 -0.1014 -0.1084
21255W        W37149  16.645  18.220   5.458  0.0893  0.1519 -0.0237
21256W        W37150   1.853   9.947  14.355  0.0287  0.2802  0.0010
21257W        W37151  17.766  15.160   0.695  0.0706  0.0387  0.1793
21258W        W37152  13.405  14.156  14.572 -0.1983  0.0594  0.2119
21259W        W37153  16.836  15.266   1.604  0.0919 -0.0257  0.0111
21260W        W37154   8.542   2.772  14.306 -0.1406 -0.2806 -0.0795
21261W        W37155   2.326  17.435   2.769  0.1426 -0.0150 -0.0839
21262W        W37156  17.400  17.498   0.533  0.1319  0.1449  0.0484
21263W        W37157  11.044   4.010   2.731  0.1283 -0.0057  0.2222
21264W        W37158  17.242   1.384   2.480 -0.0969 -0.1097  0.0507
21265W        W37159   1.571   2.600   0.386 -0.0139 -0.1859  0.2200
21266W        W37160  17.127   2.792   5.014  0.0688  0.1320  0.0765
21267W        W37161   5.864   5.290  13.762 -0.0157  0.0265 -0.0221
21268W        W37162  18.668   2.694  13.622  0.1537  0.2160  0.0019
21269W        W37163   7.905  13.282  14.261  0.1403 -0.0291  0.0031
21270W        W37164   8.991  16.656  12.056 -0.1288  0.3780  0.1756
21271W        W37165   5.757   1.036   3.241 -0.2729 -0.1627  0.0977
21272W        W37166   7.968   6.994  13.888  0.4461  0.1645  0.1456
21273W        W37167   6.830   4.666   3.352  0.0407 -0.1542 -0.4471
21274W        W37168   4.971  12.400  14.409 -0.1973 -0.0168  0.0168
21275W        W37169   5.240   8.279   0.110  0.0843  0.3288  0.0062
21276W        W37170   1.132   0.791   3.802  0.3581  0.3274 -0.1074
21277W        W37171   0.402   9.997   2.446 -0.1818  0.1287 -0.2825
21278W        W37172   3.149  14.841   1.792 -0.0353 -0.0170  0.0201
21279W        W37173   8.254  16.183   0.907  0.5348  0.0928 -0.2979
21280W        W37174  11.331   9.931   1.402 -0.2693 -0.0574 -0.1681
21281W        W37175   7.381  11.396  11.793 -0.4397 -0.1447 -0.2303
21282W        W37176   0.907  17.662   2.828  0.1924  0.2288 -0.2576
21283W        W37177   7.287   4.657   1.805  0.3816 -0.0318  0.0245
21284W        W37178  16.407  16.033  11.524  0.0109 -0.0488 -0.2039
21285W        W37179  12.745   8.221   6.367 -0.2346  0.1501  0.2015
21286W        W37180  14.060   6.354   0.206 -0.1139  0.1340  0.0435
21287W        W37181   9.086  16.287  11.223  0.1196  0.5388  0.1631
21288W        W37182  12.202   0.181  10.724  0.1720 -0.2889 -0.1745
21289W        W37183  17.394  15.784   4.127  0.3194  0.0478  0.1094
21290W        W37184   7.511   0.771  13.992 -0.1924 -0.0347  0.0188
21291W        W37185   6.693   9.018   0.785 -0.0555  0.0475 -0.1392
21292W        W37186   8.223   8.767   4.882  0.2072  0.3814 -0.0553
21293W        W37187  18.734  13.160  14.991 -0.1339 -0.0534  0.0828
21294W        W37188  15.704  16.686   0.622  0.0336  0.1859  0.1460
21295W        W37189   0.923   4.630   0.125 -0.0189 -0.0072 -0.2574
21296W        W37190   4.207   5.838   1.784 -0.0651 -0.0965  0.0839
21297W        W37191   8.978  15.190   5.415 -0.2685 -0.3158 -0.3855
21298W        W37192  17.912   7.281   5.841  0.1129  0.1172  0.1656
21299W        W37193   6.466  10.396   5.450  0.3473 -0.2377 -0.2555
21300W        W37194  12.585  16.991   1.968  0.2109  0.1569 -0.0273
21301W        W37195  12.004  12.086   4.919  0.1221 -0.0166  0.0197
21302W        W37196  13.815   3.817  11.031  0.0575  0.0417  0.1623
21303W        W37197  10.273   0.639  11.461 -0.2002 -0.0132 -0.3133
21304W        W37198   7.477   2.958  11.331  0.0795 -0.1044 -0.0441
21305W        W37199   9.162  13.714  12.189  0.1355 -0.2478  0.0341
21306W        W37200  11.005   8.445   4.384 -0.0408  0.0616 -0.0409
21307W        W37201  16.432  13.137   4.327  0.0038  0.4221 -0.2205
21308W        W37202   4.777  11.015   3.057 -0.0602 -0.1704  0.2084
21309W        W37203   5.258  15.460  15.199 -0.0411  0.0063 -0.0073
21310W        W37204   9.784   7.048  11.471 -0.5430  0.0544 -0.0383
21311W        W37205  17.174  11.603   4.781  0.1026  0.2902  0.3537
21312W        W37206   1.363  15.794  12.425  0.2063 -0.2337  0.2209
21313W        W37207  17.398   8.239   0.473 -0.1508  0.0828 -0.0741
21314W        W37208   1.725  13.670  13.754 -0.0414  0.3855  0.0841
21315W        W37209   6.879  18.399  10.291 -0.0597  0.3220 -0.2074
21316W        W37210   7.589  14.277  12.386  0.2687 -0.2741  0.0397
21317W        W37211  12.389  14.467  14.500 -0.1595  0.1054 -0.0045
21318W        W37212  13.487  14.779   4.213  0.1164 -0.3613  0.2057
21319W        W37213  11.751  14.985   2.422  0.0946 -0.1728  0.0574
21320W        W37214  14.062   5.782   0.068  0.0840  0.4572  0.1288
21321W        W37215  18.465  12.587   1.793  0.1619 -0.0460 -0.1903
21322W        W37216  11.757   4.146  10.821 -0.0892 -0.3993 -0.1163
21323W        W37217   5.141   0.258   1.109  0.1680  0.1759  0.1401
21324W        W37218  15.135  10.706   0.216  0.2300  0.1877  0.0511
21325W        W37219   7.878   9.208  14.554 -0.1046  0.0262 -0.1996
21326W        W37220   8.335   9.652   3.891 -0.0970  0.2594 -0.2976
21327W        W37221  14.488   7.004   1.318 -0.1368  0.1207  0.3171
21328W        W37222  17.774  16.405  12.265  0.4502  0.1122  0.1234
21329W        W37223  12.526   3.046   5.358 -0.2239 -0.1108 -0.0981
21330W        W37224  17.691  11.190   2.788 -0.1097  0.1586 -0.0587
21331W        W37225  14.228  15.002  15.177 -0.3092 -0.1534 -0.2747
21332W        W37226   3.753  15.425  12.952  0.0062 -0.1806 -0.1999
21333W        W37227  12.064  11.438   2.940  0.1753  0.2294 -0.1687
21334W        W37228   4.957   9.995   0.450 -0.4825  0.1280 -0.0477
21335W        W37229   3.036   8.073  12.846 -0.3252  0.0182  0.1710
21336W        W37230   1.279  12.884  15.413 -0.0143 -0.1408 -0.0293
21337W        W37231  13.176   3.883   2.924  0.1277 -0.2354  0.0606
21338W        W37232  16.603   5.722  12.165  0.0248  0.0015 -0.1909
21339W        W37233   8.373   7.662   0.267 -0.0362 -0.0199 -0.1492
21340W        W37234   6.330  16.755  11.205 -0.0966 -0.1868 -0.0705
21341W        W37235   0.625   6.561   5.746  0.0144  0.1851  0.1317
21342W        W37236  10.368   3.801  13.163 -0.0302 -0.0922 -0.0702
21343W        W37237   6.686   2.829   1.676 -0.2693 -0.0863  0.3154
21344W        W37238  12.396   1.935  12.966  0.0783  0.5446  0.0057
21345W        W37239   0.405  15.377   3.816  0.4981 -0.0333 -0.0451
21346W        W37240   7.637   8.278  14.178 -0.0771  0.3432 -0.2300
21347W        W37241  10.087  13.535  14.178  0.2273 -0.1062 -0.2264
21348W        W37242   1.042  10.142   1.784  0.2171 -0.0070  0.0808
21349W        W37243   2.510   2.770  10.916 -0.0674 -0.1278 -0.1779
21350W        W37244  12.744  11.545   2.850 -0.1138  0.0856 -0.3891
21351W        W37245  12.208   3.482   2.556  0.0141 -0.0245  0.4469
21352W        W37246  16.238  15.093   5.086  0.3263 -0.0573  0.2776
21353W        W37247   6.082   3.764  10.677  0.1750  0.1656 -0.0540
21354W        W37248   8.506  16.991   3.351  0.1054  0.0555  0.1014
21355W        W37249   7.018  13.547   1.845  0.0213 -0.0202  0.2548
21356W        W37250   7.483  10.513  10.880  0.0246 -0.1926  0.2085
21357W        W37251  16.150   6.089  14.470 -0.0386  0.3060  0.2261
21358W        W37252   6.153   9.077  11.049  0.1091 -0.0900 -0.0297
21359W        W37253   2.307  12.084   1.134  0.1514 -0.0400 -0.2597
21360W        W37254   6.692   0.706   3.629 -0.0906  0.0787 -0.0674
21361W        W37255  16.681  12.774  14.649  0.1678  0.0241 -0.0317
21362W        W37256   9.443   0.807  10.961 -0.2322  0.1410 -0.1061
21363W        W37257   5.736   1.072  15.464  0.1480 -0.2311 -0.4713
21364W        W37258   6.585  10.111   5.087 -0.1535 -0.0116  0.2930
21365W        W37259   7.738  17.033  10.784 -0.0798  0.2161  0.0387
21366W        W37260   1.090   3.781  12.649  0.1319 -0.0381 -0.0254
21367W        W37261  12.829   0.930   2.124  0.2649 -0.3146  0.0648
21368W        W37262  15.172   7.619  14.548 -0.0010  0.0480  0.0749
21369W        W37263   8.246   4.378  12.512 -0.1288 -0.1036 -0.0977
21370W        W37264   7.464   7.087  13.648  0.0897 -0.0546 -0.1874
21371W        W37265  13.799   4.240  15.272 -0.2112  0.1403 -0.0303
21372W        W37266   0.040   8.982  14.684  0.0727  0.2886 -0.3248
21373W        W37267   9.375  18.743   3.673 -0.1027  0.0037 -0.0516
21374W        W37268  10.014   3.395   0.266  0.2827  0.1186 -0.1619
21375W        W37269  15.997  16.031  12.670 -0.1733 -0.0670  0.0923
21376W        W37270  10.921   3.422   4.527 -0.3673 -0.0692 -0.0891
21377W        W37271  17.538   8.807   4.375  0.0983 -0.2261  0.0424
21378W        W37272  15.970   4.812   1.227  0.1359  0.0714 -0.2077
21379W        W37273   5.129  18.746  10.409  0.2713  0.0270  0.1627
21380W        W37274   0.020   6.659   4.213  0.2542 -0.2497  0.2567
21381W        W37275   2.891   6.991   4.413  0.1986  0.1579 -0.2075
21382W        W37276  11.881   4.503   1.975  0.5441  0.0197  0.1688
21383W        W37277  17.983  16.101   4.381 -0.3112  0.1820 -0.1500
21384W        W37278  12.488   2.726   0.691 -0.2031  0.0671  0.3210
21385W        W37279  13.912   8.355   3.182  0.2335  0.1877  0.1370
21386W        W37280   4.650   6.622  12.191 -0.0680 -0.1149  0.2379
21387W        W37281  14.510  11.883  11.372 -0.0212 -0.2608  0.0724
21388W        W37282  13.126   9.843   4.578  0.3357 -0.2463 -0.2143
21389W        W37283   7.970  14.522  11.695 -0.0026  0.1738  0.0590
21390W        W37284   6.990  10.683   1.334 -0.0392  0.3440  0.0535
21391W        W37285  14.492   7.398   0.416  0.4861  0.1489  0.0533
21392W        W37286   6.978  18.145   1.542  0.0351 -0.1023 -0.0196
21393W        W37287   9.927   5.317  11.670 -0.1155 -0.0506 -0.2645
21394W        W37288  10.370   9.272   4.360 -0.0394 -0.0851  0.1152
21395W        W37289  10.246   7.893   2.727 -0.0996  0.2092 -0.0103
21396W        W37290  13.704   0.252  13.650 -0.0394 -0.1108  0.5084
21397W        W37291   7.333  15.612  12.529 -0.0170  0.0597  0.1084
21398W        W37292   0.148  18.104  12.013  0.1857  0.2767 -0.0969
21399W        W37293  12.365   5.074   2.764  0.3417 -0.1325  0.0056
21400W        W37294   5.441   8.104  15.334  0.1214  0.0003  0.1219
21401W        W37295   8.264  11.125   0.860  0.1981 -0.0735  0.0208
21402W        W37296   8.833   6.868  12.368  0.2115  0.2859 -0.1481
21403W        W37297  12.258   8.386  14.837  0.2964 -0.1168  0.0144
21404W        W37298  16.399   5.255  11.495 -0.3831  0.0196 -0.3582
21405W        W37299   0.143  12.784  12.094  0.0413 -0.1219 -0.0136
21406W        W37300   9.719   0.782  12.817 -0.1342 -0.1968  0.0828
21407W        W37301  13.444  16.049  12.581 -0.2381 -0.2937  0.4402
21408W        W37302   7.901   9.368  11.468 -0.1135 -0.1003  0.2254
21409W        W37303   8.971   6.498   1.689  0.1547 -0.1093  0.0792
21410W        W37304  11.433  13.281  11.399  0.1275 -0.2394  0.0286
21411W        W37305   4.567  15.699   2.762 -0.1295  0.2654 -0.1680
21412W        W37306  16.117  11.086   5.211  0.0851 -0.1485 -0.3555
21413W        W37307  13.556  16.479   1.907  0.0833  0.2708 -0.0009
21414W        W37308  16.942   3.035   4.547  0.2932  0.1447 -0.2324
21415W        W37309  11.509   4.745   2.321 -0.1053 -0.0076 -0.5530
21416W        W37310   9.580  17.238  14.254 -0.3560 -0.0759 -0.1198
21417W        W37311   6.487   9.703   5.409 -0.0488  0.0265 -0.0768
21418W        W37312   3.442   7.751   2.958 -0.1132 -0.2249 -0.0743
21419W        W37313  17.579  15.524  10.265 -0.2582  0.0906  0.0026
21420W        W37314   7.563  11.094   2.065  0.0091 -0.0905 -0.2242
21421W        W37315   5.434  18.707   3.054 -0.0386 -0.0168  0.2529
21422W        W37316  13.878  16.037  12.894 -0.0552  0.1520 -0.2914
21423W        W37317   8.839   5.188  12.675 -0.0909  0.3118  0.0803
21424W        W37318  17.451   2.999  11.151  0.0831 -0.3816  0.1962
21425W        W37319   5.828   2.953  11.682  0.0983  0.4718  0.2407
21426W        W37320   1.539  12.517   4.879 -0.0229 -0.0027  0.1308
21427W        W37321   3.388   4.945  14.675  0.1244 -0.1473  0.2191
21428W        W37322  15.943  13.709   1.640 -0.0248  0.0132 -0.0652
21429W        W37323  18.340  14.703  14.630 -0.0389 -0.0833 -0.2336
21430W        W37324   5.483  13.328  12.021 -0.0243 -0.0195  0.0182
21431W        W37325  10.375   9.342   2.424  0.3650  0.1802 -0.2377
21432W        W37326   3.699   4.456  10.589  0.1328  0.2412  0.2927
21433W        W37327  16.714  18.034   3.678  0.2088  0.2214  0.1485
21434W        W37328   4.160  14.329   4.000 -0.0336 -0.2024  0.1854
21435W        W37329   1.979   3.082   2.417 -0.2653  0.2432 -0.3426
21436W        W37330   5.637  14.613   2.972  0.2270  0.1900 -0.2659
21437W        W37331   9.729   0.392  13.344 -0.1467  0.0043 -0.0532
21438W        W37332  12.141  16.054  11.678  0.0824 -0.1786  0.0593
21439W        W37333  15.432  11.596  13.179  0.0838 -0.1182  0.1402
21440W        W37334   5.072   0.817  14.423  0.1412  0.0644 -0.3886
21441W        W37335  18.004   6.677   3.409 -0.3819 -0.1551 -0.2636
21442W        W37336   1.702   5.584   2.663 -0.2183 -0.1221 -0.0163
21443W        W37337   4.688  15.560  11.718  0.0038 -0.1498 -0.0724
21444W        W37338  14.125  16.920  14.463  0.4990  0.3272  0.1557
21445W        W37339  16.552   5.208   2.658  0.1930 -0.3310  0.0359
21446W        W37340   5.289   3.927  11.341  0.3666  0.3753  0.0656
21447W        W37341  11.840  10.061   2.119 -0.1791 -0.0648  0.0160
21448W        W37342  17.792  15.071   4.766  0.0962 -0.0676 -0.1432
21449W        W37343  17.600  14.012   1.098 -0.4081 -0.0423 -0.3013
21450W        W37344  16.561   5.535   4.707 -0.0858  0.0920 -0.0187
21451W        W37345   8.457  10.318   1.222  0.0349 -0.0720 -0.4403
21452W        W37346   1.796  16.583   4.802 -0.1398 -0.0449  0.3028
21453W        W37347   2.712   4.306   2.565  0.3107  0.2411 -0.3788
21454W        W37348  15.145   5.042  10.229  0.0121  0.1739  0.1361
21455W        W37349  12.657  17.787  11.508 -0.0464  0.3483 -0.1067
21456W        W37350   7.645  10.996   0.135  0.2206  0.4650 -0.1723
21457W        W37351   9.760  11.270  14.898 -0.3388  0.0258  0.0165
21458W        W37352  11.560  13.376  13.657  0.1101  0.0051 -0.0307
21459W        W37353   5.727   8.544  10.997  0.1467  0.2519  0.3326
21460W        W37354  16.081   9.953   1.852 -0.1407 -0.4045 -0.1570
21461W        W37355   2.667  12.476  15.039  0.2187  0.0780  0.0764
21462W        W37356  13.645  17.679  11.233 -0.0701 -0.0067  0.0089
21463W        W37357   9.820   9.034   3.755  0.2949 -0.1965  0.0562
21464W        W37358   5.102   0.909  11.612 -0.0195  0.0925 -0.0072
21465W        W37359   3.163   2.384  14.098 -0.2254 -0.1604  0.0859
21466W        W37360   0.423   6.996   0.464  0.1238  0.2544  0.1915
21467W        W37361  16.789   1.481   2.102 -0.0484  0.3044 -0.0166
21468W        W37362  17.978   3.711   5.870  0.0276 -0.0628  0.0755
21469W        W37363  17.057   8.020  12.192 -0.3259  0.1147  0.3532
21470W        W37364  13.105   3.071  13.764 -0.0781  0.1116  0.0427
21471W        W37365   9.467   7.917   4.433 -0.2331 -0.3694  0.0747
21472W        W37366  11.807  14.136  13.937  0.1054  0.0739  0.1086
21473W        W37367   5.340   4.349  11.557  0.2699 -0.2661  0.0283
21474W        W37368  14.597  15.754   3.784  0.2109 -0.0583  0.2256
21475W        W37369   5.640   4.174   0.477 -0.0148  0.0142 -0.0096
21476W        W37370  10.756  16.413  15.219 -0.0172  0.0971 -0.1449
21477W        W37371   6.606   4.793   4.509 -0.0034 -0.1491 -0.1601
21478W        W37372   1.383  11.677   2.111  0.0709 -0.1404 -0.0683
21479W        W37373   8.184  17.062   0.437  0.0050 -0.0744  0.3227
21480W        W37374  14.147  15.453   4.731  0.2267 -0.1227  0.1155
21481W        W37375  11.603  17.106   4.817 -0.2241  0.0039  0.0165
21482W        W37376  12.438  10.238   0.440  0.1229 -0.1265  0.2839
21483W        W37377   2.193  11.639  12.287  0.1824  0.0108 -0.1015
21484W        W37378   5.769   2.170  14.881 -0.2497 -0.0799  0.0184
21485W        W37379   1.276   7.979   2.200 -0.0816  0.1193  0.0832
21486W        W37380   5.112  17.455   0.102 -0.0173  0.3060 -0.1594
21487W        W37381   8.471   6.536   0.377  0.1905  0.3362 -0.1620
21488W        W37382   3.719   1.918  12.399  0.2900  0.0739  0.0545
21489W        W37383   9.924  13.870  11.343 -0.0194  0.2789 -0.1912
21490W        W37384   5.332  11.801   3.621  0.3916 -0.1481 -0.1205
21491W        W37385   1.550   1.072  12.510  0.0189  0.0878  0.0280
21492W        W37386  12.760  17.984   2.347 -0.0703 -0.2356 -0.1227
21493W        W37387   2.077   9.464   1.291  0.2680 -0.0879 -0.1989
21494W        W37388  11.634  14.580  14.157 -0.1103  0.0746 -0.1943
21495W        W37389  18.559  18.138  14.077  0.3946  0.1608 -0.2850
21496W        W37390  18.043   0.505   5.207 -0.2107  0.1549  0.1282
21497W        W37391   9.218  11.637  12.189  0.0428  0.2392 -0.1512
21498W        W37392   0.938  13.067  15.109  0.1768  0.1184  0.1063
21499W        W37393   9.237   8.980   2.896  0.1055 -0.0236 -0.3966
21500W        W37394   3.993  18.387  14.285 -0.0904 -0.0254  0.0522
21501W        W37395   9.666  16.022   4.734 -0.0138 -0.0137  0.1751
21502W        W37396  16.137  16.818   3.542  0.0337  0.0302  0.0382
21503W        W37397   5.998   3.050   0.709  0.0237 -0.0244 -0.2141
21504W        W37398  10.567  13.139   2.242  0.1360  0.0662 -0.4721
21505W        W37399   2.973   7.039   1.598 -0.0980 -0.0730  0.0073
21506W        W37400  15.560   3.014  13.917  0.1446 -0.2170 -0.1657
21507W        W37401   1.465   2.484  11.000 -0.1033  0.0173  0.0467
21508W        W37402   8.415   2.718   0.106  0.4372  0.1987  0.0764
21509W        W37403   0.662   4.816  11.940 -0.2175 -0.2514 -0.1580
21510W        W37404   2.972   8.919  15.415 -0.1069  0.1707 -0.1104
21511W        W37405   6.536   5.620  12.975 -0.2232  0.0086  0.0664
21512W        W37406  18.309   6.319   4.878 -0.1715 -0.0863 -0.1419
21513W        W37407   3.846  11.091   3.270  0.0688  0.2103  0.0704
21514W        W37408   1.951  13.608  10.164  0.1403  0.2800  0.3561
21515W        W37409  16.573   5.674   1.886 -0.2200 -0.1589 -0.0415
21516W        W37410   9.393  14.125   1.565 -0.3222 -0.2122 -0.4534
21517W        W37411   8.387  10.876   2.000 -0.1455  0.1113 -0.0178
21518W        W37412   2.658   3.675  14.575 -0.0257 -0.2766  0.2479
21519W        W37413  13.341  11.154   4.525 -0.1124  0.0902  0.2230
21520W        W37414   5.427  16.069   2.628  0.0002  0.2376  0.2222
21521W        W37415  12.399   2.544  10.985 -0.1411 -0.0156  0.3409
21522W        W37416   5.997   6.231  13.644 -0.0355  0.1971 -0.0619
21523W        W37417   2.103   4.468  15.012  0.1635  0.3140  0.0176
21524W        W37418   0.083   5.081  10.785  0.0750 -0.0599 -0.0518
21525W        W37419   4.407   2.434   4.453 -0.1092 -0.0795  0.3769
21526W        W37420  12.777   0.611  10.898  0.0831 -0.0511  0.2595
21527W        W37421   5.455  11.295   1.668  0.2203  0.0079  0.0333
21528W        W37422   7.358   7.396   3.856  0.2227 -0.2132 -0.0355
21529W        W37423   6.821   8.739  14.402 -0.0932 -0.1652 -0.1946
21530W        W37424   3.740  14.928   0.524  0.0281 -0.1503 -0.3435
21531W        W37425   7.465  17.785  13.181 -0.3522 -0.2713  0.3770
21532W        W37426   2.866  15.098  10.947  0.2409  0.0253  0.1373
21533W        W37427   4.456  12.672   5.366  0.0222  0.2490 -0.0281
21534W        W37428   0.758   0.602   0.613 -0.1445  0.0692 -0.2093
21535W        W37429  11.429   9.372   2.072  0.0389  0.2920 -0.0018
21536W        W37430   6.223  12.111   4.856 -0.1277  0.2491  0.0329
21537W        W37431   4.342   0.367  13.896 -0.3351 -0.1614  0.1908
21538W        W37432  15.587   8.876   2.061 -0.0299 -0.3022  0.1265
21539W        W37433   5.776   4.237  14.513  0.0378 -0.0060 -0.4410
21540W        W37434  12.684  10.986  12.104  0.0413  0.2920 -0.2329
21541W        W37435   8.087   2.541   3.597 -0.2438  0.1632 -0.1305
21542W        W37436   6.533   0.986  10.061 -0.1977 -0.1622 -0.0606
21543W        W37437  12.705   8.216   0.596 -0.1539  0.0782 -0.1676
21544W        W37438  17.313   6.930   3.523  0.1669 -0.2292  0.3094
21545W        W37439  16.109  12.950   4.715 -0.1341 -0.1223  0.0735
21546W        W37440  12.597   2.551   4.125  0.0619 -0.0845  0.1280
21547W        W37441   6.666   8.228  13.481 -0.2344 -0.1673  0.2617
21548W        W37442   5.006  13.375  11.154  0.2203  0.2400 -0.2392
21549W        W37443  15.535  12.129   3.230  0.1573  0.0878 -0.2590
21550W        W37444   0.951   6.556  12.840  0.1549 -0.2625  0.0332
21551W        W37445  12.748   1.789   4.528  0.1836 -0.2650  0.2486
21552W        W37446  11.770   6.890  13.558  0.1165  0.1080 -0.0554
21553W        W37447   4.321   6.798   3.569  0.0230 -0.3522 -0.2337
21554W        W37448   3.467   7.547   4.788 -0.0431 -0.1862 -0.1489
21555W        W37449   4.606   9.776  15.354 -0.1373  0.3519  0.1583
21556W        W37450  14.579   8.210  13.440  0.1745 -0.1974  0.0664
21557W        W37451  18.681   3.831  14.621 -0.0905 -0.1051 -0.1091
21558W        W37452   0.825  18.139   9.858  0.1007  0.0975 -0.0704
21559W        W37453  13.583   9.038  14.873  0.0645 -0.0128 -0.0495
21560W        W37454   7.871  10.220   5.844  0.1015  0.2859 -0.0840
21561W        W37455  11.035  13.080   1.437  0.2985  0.0407  0.0107
21562W        W37456  18.630  10.920   2.502 -0.1102  0.2099 -0.0574
21563W        W37457   2.942  10.955   0.799 -0.0737  0.0569  0.0095
21564W        W37458  16.118  10.065  15.024  0.1671 -0.0518 -0.4279
21565W        W37459   3.875   9.443   1.207  0.0204  0.0705  0.2325
21566W        W37460   1.501   2.066   4.138  0.1915  0.1464 -0.2619
21567W        W37461   2.785  11.143  13.959  0.1866 -0.1922  0.0740
21568W        W37462  17.269   3.108  14.405  0.3605 -0.0565  0.0209
21569W        W37463   4.017   8.447  15.388  0.3209  0.0719  0.0286
21570W        W37464   6.957   7.878   4.672 -0.1819  0.0464 -0.2563
21571W        W37465  10.657  12.525  12.841  0.4556  0.2409 -0.1172
21572W        W37466   9.960   7.284   0.987  0.1383  0.2117  0.2737
21573W        W37467  15.643   8.841  13.058 -0.1394  0.1729  0.2970
21574W        W37468  10.321  11.255   2.554 -0.1192  0.2566 -0.1164
21575W        W37469  13.259   4.945  14.803 -0.0221  0.1265  0.1629
21576W        W37470   0.680   7.230   3.638 -0.1931 -0.1610 -0.1618
21577W        W37471   8.543  12.206  14.491 -0.0409  0.0721  0.1495
21578W        W37472   3.879   0.771  13.809 -0.1639  0.0404  0.0705
21579W        W37473   1.512   9.836   3.367 -0.0115  0.0793  0.1469
21580W        W37474   9.424   8.948  13.130 -0.1958 -0.0289  0.2133
21581W        W37475  11.533  14.864   4.147  0.0615  0.0455 -0.2102
21582W        W37476  13.220   6.399   4.546 -0.2238 -0.1048  0.2686
21583W        W37477   8.618  13.859  12.928 -0.1556  0.2987 -0.0227
21584W        W37478  15.766  18.248  12.513 -0.0253  0.1326  0.1568
21585W        W37479  14.533  10.486   4.120 -0.5877 -0.1077 -0.1564
21586W        W37480  17.189  18.277  14.460  0.2369 -0.0457 -0.0174
21587W        W37481  18.136  16.551  13.267 -0.0148  0.0319 -0.1541
21588W        W37482  12.851  11.717   0.877 -0.3020 -0.4178  0.2275
21589W        W37483  14.872  10.483   1.749  0.1939 -0.1766 -0.0694
21590W        W37484   2.384   0.791  12.724 -0.0590 -0.3276 -0.1850
21591W        W37485  15.471  17.999  13.768  0.2411 -0.0579 -0.2277
21592W        W37486   0.538  10.441   4.451 -0.3734  0.1298 -0.4294
21593W        W37487  11.433  17.371   3.145 -0.1773  0.0444 -0.2750
21594W        W37488  18.325  13.472   2.775  0.1590 -0.1118 -0.0279
21595W        W37489   5.913   9.481   4.865 -0.0575 -0.1071  0.2170
21596W        W37490  12.472  10.377  13.435 -0.0241  0.0751  0.1501
21597W        W37491  13.730  17.994   1.810 -0.1145 -0.0080 -0.2349
21598W        W37492  16.943   7.706   1.749 -0.1363 -0.1172 -0.1771
21599W        W37493  16.820   0.698   2.681 -0.1317 -0.0943  0.2460
21600W        W37494   3.772  18.586   2.126  0.3051  0.1247  0.2092
21601W        W37495  13.881  12.975  14.924  0.1550 -0.0207 -0.3424
21602W        W37496  16.223  15.856  15.091 -0.3192  0.2847  0.0763
21603W        W37497   2.439  18.065  14.022 -0.0206  0.1472  0.0977
21604W        W37498   6.155   3.091   4.395 -0.1909  0.1319  0.2831
21605W        W37499   9.223   6.557  13.889 -0.0636 -0.0218 -0.0208
21606W        W37500   4.822   5.578   2.955 -0.2027  0.0902 -0.1320
21607W        W37501  14.260   0.307  12.927 -0.1851  0.0762 -0.1825
21608W        W37502  13.660   4.276   0.766  0.0824  0.2710  0.0832
21609W        W37503  18.260   3.427  12.922 -0.1865 -0.1231  0.1657
21610W        W37504  17.775  13.404  15.351  0.1727  0.0954 -0.0065
21611W        W37505   5.512   0.220  13.794  0.3486  0.0939  0.2098
21612W        W37506  15.397   4.454   3.119  0.2338  0.0761  0.1949
21613W        W37507  17.542   5.087   3.624  0.1609  0.1797  0.0139
21614W        W37508  18.571   4.498   4.127  0.0733  0.0619 -0.0924
21615W        W37509   5.304  12.270   3.861 -0.1781 -0.0474  0.1474
21616W        W37510  12.368  13.384  11.344  0.4278  0.0240  0.0345
21617W        W37511  15.784  11.813  15.522 -0.0557  0.2181 -0.0763
21618W        W37512   6.139   6.250   3.250  0.0725 -0.3057 -0.2397
21619W        W37513  11.469   3.536   0.161  0.0999 -0.0756  0.0994
21620W        W37514   0.276   6.577   1.334 -0.1508  0.0171 -0.0439
21621W        W37515   2.895   7.956  10.589 -0.3763 -0.0902  0.1087
21622W        W37516  17.171   6.486   5.282 -0.1477 -0.2715  0.2725
21623W        W37517   2.843   6.020  13.055 -0.1268  0.0393  0.1260
21624W        W37518   4.503   6.614   1.357  0.1358 -0.3609  0.0455
21625W        W37519   0.970  15.399   1.395  0.0966 -0.0270 -0.3672
21626W        W37520   9.437   9.806   3.146 -0.4478  0.5284 -0.0061
21627W        W37521   1.826   6.514  11.351  0.2166  0.2485 -0.1207
21628W        W37522   2.196   3.898   0.053  0.0702 -0.0378  0.1004
21629W        W37523  15.662   4.878  14.527 -0.0385  0.3074 -0.0577
21630W        W37524  18.356  10.289   1.439 -0.1488 -0.1486  0.1795
21631W        W37525  12.894   6.049  15.304 -0.0605  0.0367  0.1759
21632W        W37526   3.133  13.866  13.896 -0.0965 -0.1833 -0.3037
21633W        W37527  10.409   3.402   9.791 -0.1319 -0.3064 -0.0566
21634W        W37528  17.247  18.385   0.610  0.2869 -0.2045 -0.0079
21635W        W37529   2.474  14.022   5.421 -0.1298 -0.1308 -0.0445
21636W        W37530  15.349   3.580   2.508  0.1229  0.2566 -0.3089
21637W        W37531  13.684   2.636   1.653 -0.1410 -0.3378 -0.1899
21638W        W37532  10.450   2.298  15.060 -0.0568 -0.2419 -0.2774
21639W        W37533   9.517  11.894  10.975  0.1724  0.0415 -0.0300
21640W        W37534  15.701  14.338  14.603  0.4267 -0.1500 -0.0044
21641W        W37535  13.286   7.654   5.728  0.1174 -0.3717 -0.1374
21642W        W37536  10.224  17.685  13.529 -0.1157  0.2238 -0.2361
21643W        W37537  11.650  15.901  15.347  0.0828 -0.0186  0.1484
21644W        W37538   4.032   2.042  13.987 -0.0048  0.2290 -0.0242
21645W        W37539   5.710   2.984  14.225  0.2429 -0.1506 -0.0508
21646W        W37540  10.342   9.714  10.218  0.3156 -0.1482 -0.6212
21647W        W37541  12.311   2.936   2.816  0.2990 -0.0059  0.0737
21648W        W37542  17.434  18.388  12.923 -0.1490  0.3983  0.2046
21649W        W37543  12.939  17.099   0.090 -0.0951  0.0212 -0.0063
21650W        W37544   0.796  10.952   2.836  0.0605 -0.1995  0.3874
21651W        W37545   1.165  16.923  12.409  0.0494  0.2339  0.0935
21652W        W37546   4.873   5.636  14.359  0.0516  0.3147 -0.0115
21653W        W37547   5.928  13.439  13.405  0.2899  0.2217 -0.1143
21654W        W37548  10.177  13.688  12.514  0.3802  0.0420  0.1138
21655W        W37549  12.550  12.158  15.603 -0.1572  0.0088 -0.0736
21656W        W37550   0.945   6.029  15.228 -0.1206 -0.0111  0.0963
21657W        W37551   0.977  10.599  13.260 -0.0994  0.3001 -0.0559
21658W        W37552   2.794  18.418   4.603  0.2286 -0.1438  0.0598
21659W        W37553   4.625   6.669  15.545  0.1040 -0.1221 -0.0997
21660W        W37554  13.866   3.878  13.211 -0.0320  0.3039  0.0290
21661W        W37555   5.552  12.434  13.420 -0.1781  0.3416  0.1578
21662W        W37556   9.841   0.608  14.965  0.0716  0.1993 -0.2801
21663W        W37557   5.331  14.156   2.873  0.0514 -0.2092  0.0307
21664W        W37558  13.649   0.364   3.847 -0.0734  0.3677  0.0655
21665W        W37559  18.759  11.618   1.501 -0.0302  0.2963 -0.0919
21666W        W37560  18.121  10.044  15.070  0.1199  0.0399  0.1067
21667W        W37561   1.410   6.856  15.032 -0.2060 -0.1542  0.0108
21668W        W37562   4.280  10.434   1.991 -0.2285 -0.1034  0.0075
21669W        W37563   8.944  18.373  14.995  0.2620 -0.2588  0.2269
21670W        W37564   0.346  18.336  12.459  0.2361  0.3561 -0.0166
21671W        W37565   7.153  12.964  13.226  0.0553  0.0826 -0.4144
21672W        W37566  14.895   0.518  12.285 -0.2155 -0.0639  0.1058
21673W        W37567   4.933   1.385   2.356  0.0862 -0.1410 -0.2018
21674W        W37568   0.329  13.440   0.084  0.3312 -0.0024  0.1933
21675W        W37569  18.303   7.084   3.444 -0.1432 -0.3365 -0.1118
21676W        W37570  12.615  16.630   5.875 -0.2612 -0.1915  0.0559
21677W        W37571   3.087  11.939  10.337  0.4026  0.3097  0.0653
21678W        W37572  18.074   2.355  14.201 -0.0389  0.0043 -0.1853
21679W        W37573  15.755   0.673   1.612  0.1716  0.0770  0.4056
21680W        W37574   3.667   2.259  11.345 -0.2365  0.2884 -0.1048
21681W        W37575   7.404  17.085  12.237  0.0168  0.0496 -0.0327
21682W        W37576   9.608  13.923   0.759  0.0673 -0.0486  0.1060
21683W        W37577   9.470   5.921   3.390 -0.0473 -0.0954  0.1507
21684W        W37578  17.232   2.612  14.999  0.0952 -0.0262  0.0767
21685W        W37579  14.953   0.526   1.335 -0.0127  0.0754  0.2209
21686W        W37580   4.068   0.534   0.618 -0.2828  0.1653 -0.0454
21687W        W37581   6.417   1.793   2.256  0.1036 -0.0674 -0.0385
21688W        W37582  15.029   9.705  13.079  0.1884  0.0757  0.0232
21689W        W37583   8.388   1.098  10.880  0.0918 -0.0205 -0.0937
21690W        W37584  15.861  10.813   1.586 -0.2439 -0.0774 -0.0839
21691W        W37585   7.747  16.954  15.000  0.0774 -0.2883  0.2021
21692W        W37586   0.609  10.664   0.739  0.2708 -0.0913 -0.5442
21693W        W37587  14.979  10.305   3.241  0.0830 -0.0377 -0.1512
21694W        W37588  15.443   4.765  15.397 -0.0446 -0.1564  0.2253
21695W        W37589   5.298   7.368  12.158  0.0125 -0.1701  0.0248
21696W        W37590   1.100  12.001   3.513  0.0805 -0.1987  0.0296
21697W        W37591  13.590  15.718  13.556  0.0011  0.1737  0.0714
21698W        W37592   3.086   8.930   5.614  0.0885  0.1869 -0.0005
21699W        W37593   4.113   7.888  14.329  0.1589 -0.0219 -0.0021
21700W        W37594  18.215   3.677  14.562  0.2599  0.2599 -0.0316
21701W        W37595  13.721  11.291  14.635 -0.1098  0.2983 -0.1355
21702W        W37596  10.146  13.222   0.810  0.1122  0.0819  0.1376
21703W        W37597   8.355  14.414   3.798 -0.0854 -0.0893 -0.1152
21704W        W37598  10.272  14.455  14.915  0.3231 -0.0562 -0.0686
21705W        W37599   7.776   0.949  13.180 -0.1253  0.1122 -0.3265
21706W        W37600  11.191   0.497  10.976 -0.0832  0.0929 -0.2004
21707W        W37601  13.119  13.877   1.144  0.2190  0.1496 -0.0588
21708W        W37602  18.112   7.600   2.577 -0.1868  0.0854  0.1688
21709W        W37603  18.668   4.598  12.425 -0.1107  0.0110  0.0629
21710W        W37604   6.192   2.985   4.879  0.2065 -0.1552 -0.3981
21711W        W37605   4.962   2.099   4.553 -0.4062 -0.0049 -0.0025
21712W        W37606   9.189  10.882   5.542  0.1669  0.0206 -0.0475
21713W        W37607   9.727   7.755  14.143 -0.0507 -0.0625  0.1239
21714W        W37608  13.034  15.571   3.731  0.3034  0.2395 -0.1386
21715W        W37609   2.878   9.961   9.531  0.0029  0.0795 -0.4775
21716W        W37610   7.606   3.094  15.521 -0.0159  0.0606 -0.2032
21717W        W37611  17.160   1.254  14.424 -0.0189 -0.1188  0.1962
21718W        W37612   7.846  12.443  12.624 -0.3071 -0.1921 -0.0935
21719W        W37613   2.945  11.999   5.606 -0.0409  0.0055 -0.1802
21720W        W37614   8.057   3.813   3.356 -0.3868  0.0519  0.2415
21721W        W37615  13.676  10.042  12.301 -0.1730 -0.1606  0.2056
21722W        W37616   1.458   4.650  12.390  0.0548  0.0136 -0.2528
21723W        W37617  12.284   8.217   4.916  0.2170  0.2906  0.1981
21724W        W37618  17.856  15.159   1.585  0.1375 -0.0733 -0.0320
21725W        W37619   7.040  13.216  15.219 -0.1937  0.3302 -0.1145
21726W        W37620   6.597  17.224   2.064  0.3298 -0.0733 -0.0454
21727W        W37621  17.370  18.416   2.191 -0.1678 -0.3189  0.0947
21728W        W37622  10.864   5.745   2.481  0.2299  0.0681  0.0057
21729W        W37623  18.447  13.575  11.416  0.4157 -0.0053 -0.0653
21730W        W37624   5.153   1.645  12.362  0.1891  0.5547 -0.1088
21731W        W37625   2.163  16.726   3.980  0.1231  0.3026  0.1161
21732W        W37626  11.107  16.768  13.533 -0.0543 -0.0851  0.0032
21733W        W37627  17.525   4.863   3.158  0.0364  0.0061  0.1704
21734W        W37628   5.141  16.236  10.711 -0.0217 -0.0057  0.0232
21735W        W37629  17.735  18.537  12.478  0.4292  0.0681  0.0826
21736W        W37630   8.613  10.600  13.294 -0.4094 -0.3261 -0.0926
21737W        W37631   8.610  14.615  14.053 -0.4890 -0.2584  0.0047
21738W        W37632   8.093  17.241  11.030  0.0299  0.1458  0.1502
21739W        W37633   8.732   1.317   0.953  0.0254  0.0867 -0.1153
21740W        W37634   3.945  14.834   1.515  0.0100 -0.0200  0.2486
21741W        W37635  15.202   3.849   2.972  0.0042  0.1726  0.0540
21742W        W37636   3.180  15.548  11.717  0.1719  0.1296  0.4105
21743W        W37637   3.032   7.539  10.968  0.0607  0.0533  0.1322
21744W        W37638   9.258  16.363   1.380  0.1638  0.4145 -0.1066
21745W        W37639  15.092   6.555   4.576 -0.1463  0.0797 -0.1295
21746W        W37640  18.619  18.363   5.154  0.0748  0.2247  0.1793
21747W        W37641   4.529  14.872  10.860 -0.1284 -0.0593  0.2424
21748W        W37642   7.168  17.747   2.811 -0.1488 -0.0488 -0.0027
21749W        W37643  18.110   3.457   3.945  0.3628  0.2689  0.1447
21750W        W37644   6.151  17.142   0.389 -0.0248 -0.0681  0.4301
21751W        W37645   9.969   2.668  15.179 -0.2968  0.0301  0.2947
21752W        W37646  13.950  18.285   2.278 -0.0214 -0.1211  0.2336
21753W        W37647   1.234  10.487  14.043  0.0663 -0.0854 -0.4077
21754W        W37648   5.806   0.285  14.398  0.0136  0.2019  0.0930
21755W        W37649  15.202  10.238  12.343 -0.0589 -0.0418  0.0841
21756W        W37650  17.045  10.883   4.210  0.0189 -0.1310  0.0861
21757W        W37651  11.711   1.414  12.796 -0.0745 -0.2432  0.3239
21758W        W37652  15.595   8.076  15.478 -0.2683 -0.1779  0.0854
21759W        W37653   9.712  10.327  11.088  0.0340  0.2206  0.0775
21760W        W37654  12.349   6.187   3.988 -0.1852  0.1328 -0.1579
21761W        W37655  17.449   4.648   5.668  0.0039  0.1686  0.0505
21762W        W37656   5.738  12.587  12.473 -0.5571  0.3280  0.0130
21763W        W37657  10.912   6.070   5.378 -0.2070  0.2633 -0.3241
21764W        W37658   3.909   0.563  15.316 -0.2112  0.1579  0.2168
21765W        W37659  17.110   5.031  14.740 -0.0343 -0.3087  0.3923
21766W        W37660  15.404  14.442   0.455  0.1459  0.0943 -0.2571
21767W        W37661  16.341  14.998   4.614 -0.2549 -0.0853  0.2457
21768W        W37662  11.867   7.876   4.023  0.2335 -0.0444 -0.2258
21769W        W37663  16.367   6.644   3.625  0.1487 -0.0371  0.1694
21770W        W37664   5.842  16.525   2.060 -0.0350  0.0487  0.0485
21771W        W37665   9.599  12.407   9.926  0.1366  0.0903  0.0213
21772W        W37666   9.547   7.750   3.401  0.0244  0.2352 -0.2039
21773W        W37667   0.088   9.564  15.477 -0.0359 -0.0545  0.2331
21774W        W37668   9.797   9.277  15.000 -0.0907  0.2189  0.2415
21775W        W37669   1.526  11.636  11.766  0.3781  0.1090 -0.1585
21776W        W37670   6.050   1.102  14.957 -0.1022  0.0218 -0.0370
21777W        W37671   9.296   2.359   2.368 -0.1061  0.1118  0.0827
21778W        W37672   9.047   6.215  12.443  0.1654 -0.1168  0.0359
21779W        W37673   1.021  12.248  11.382  0.1566  0.4673 -0.3193
21780W        W37674   0.538   6.682  11.990 -0.0611  0.1453  0.3488
21781W        W37675   9.421   1.088   1.539 -0.2265 -0.1246 -0.5104
21782W        W37676   4.428  13.885   3.884 -0.3934 -0.1224  0.1485
21783W        W37677   3.380   2.823   4.683 -0.1076  0.0263  0.2492
21784W        W37678   2.301  15.491   4.087  0.0962  0.0680  0.0393
21785W        W37679  16.267   2.225  13.030 -0.1319  0.1310  0.1238
21786W        W37680  16.889  13.036   4.493 -0.0908 -0.1417 -0.3045
21787W        W37681  18.678  13.139   0.387 -0.3429  0.0275  0.0032
21788W        W37682  16.086   8.098   3.959 -0.1819 -0.1577  0.0964
21789W        W37683  16.346   0.821  14.451 -0.0940 -0.1077 -0.1102
21790W        W37684   6.156   6.655   0.163  0.0298  0.1106 -0.0882
21791W        W37685   4.101   2.190  11.656 -0.0967  0.1136 -0.0745
21792W        W37686   2.771  15.125  15.051 -0.0024  0.0844 -0.0451
21793W        W37687   2.843   6.914  15.141  0.1201  0.1934  0.3074
21794W        W37688  16.183   2.152   2.694 -0.1400  0.0994  0.1613
21795W        W37689  10.003   9.120  13.744  0.1426 -0.0947 -0.0015
21796W        W37690   0.974  10.918  12.201  0.0461 -0.3373  0.0644
21797W        W37691  18.533   4.046   1.756 -0.0398  0.0577  0.0497
21798W        W37692  15.768   4.657   2.899 -0.0580  0.2159 -0.1210
21799W        W37693  13.011  16.437  13.358 -0.2199  0.1838 -0.5483
21800W        W37694   5.805   9.527  14.715  0.0262  0.0513 -0.0105
21801W        W37695  16.502   5.411  12.598 -0.0848 -0.4139  0.0943
21802W        W37696   7.430   1.993   2.047  0.0125 -0.2457 -0.2284
21803W        W37697   8.447  15.830  11.927 -0.0220  0.0827  0.0591
21804W        W37698  17.165  16.956   0.153 -0.0346  0.0772 -0.1008
21805W        W37699   5.175   9.196  14.160 -0.0858  0.1343 -0.1916
21806W        W37700   5.501  10.577  14.079  0.4511  0.0740  0.0498
21807W        W37701  12.509   1.426   1.752 -0.1140  0.3568 -0.4685
21808W        W37702  11.349   5.269  13.670  0.1423 -0.3696  0.3502
21809W        W37703  18.451   1.657  12.207 -0.0722 -0.1461  0.4606
21810W        W37704  12.234   8.241   3.365 -0.2858 -0.2952  0.1043
21811W        W37705  17.541  17.360  13.150  0.1835 -0.1719  0.1742
21812W        W37706  14.077  18.384  11.411 -0.0149  0.0056  0.1051
21813W        W37707   3.366  13.010   0.934  0.1054  0.1019 -0.1084
21814W        W37708   1.608   1.554   4.225  0.1211 -0.2038  0.0386
21815W        W37709  10.711  10.453   5.087  0.1117 -0.1026  0.1529
21816W        W37710   8.129   8.490   3.284 -0.2432 -0.0922  0.0009
21817W        W37711  11.895  14.571   2.118  0.0280 -0.2763 -0.0574
21818W        W37712   4.751  12.862  14.354 -0.0615  0.3529 -0.3957
21819W        W37713  11.431  16.157   2.058  0.3075  0.0487  0.0204
21820W        W37714   8.614  14.518  10.948 -0.0709 -0.3085  0.0633
21821W        W37715   0.999  13.915   4.290  0.0103  0.0708 -0.0476
21822W        W37716   0.666   4.776   2.900 -0.0112  0.1791 -0.2724
21823W        W37717   9.754  16.913   0.712  0.1505  0.0106 -0.2584
21824W        W37718  10.103   5.168   0.148  0.3261  0.1373  0.0209
21825W        W37719   4.804   1.214   0.701 -0.0054  0.2353  0.3547
21826W        W37720  11.191   2.899   1.384 -0.1333  0.0611  0.1079
21827W        W37721  17.228  11.034   6.095  0.0397  0.1105 -0.0091
21828W        W37722   4.616   4.640  12.399  0.1892  0.1000 -0.0459
21829W        W37723  18.379  14.097   2.429 -0.0316  0.3096  0.0128
21830W        W37724  17.584  18.383  13.421 -0.1906 -0.2870  0.0903
21831W        W37725   3.294  11.933  15.109 -0.0741 -0.0634  0.1846
21832W        W37726  11.303   3.526   2.710  0.0646  0.3147 -0.2432
21833W        W37727   3.067  17.530   4.507  0.0571  0.3866  0.1275
21834W        W37728   8.043  15.912  15.069 -0.4104  0.0219 -0.2965
21835W        W37729   8.250  11.312   0.364 -0.0054  0.1394  0.0797
21836W        W37730  13.928  12.512  11.547  0.1271 -0.1899  0.1400
21837W        W37731   3.112  10.928  13.315 -0.2610  0.3398 -0.0148
21838W        W37732   5.441   9.783  10.298  0.2028  0.0680 -0.0076
21839W        W37733  13.410   7.449  15.107  0.0978 -0.1483  0.0269
21840W        W37734   1.476  12.512   2.219  0.1957  0.0726  0.1172
21841W        W37735   6.099   0.733   1.182  0.4252  0.1047  0.3482
21842W        W37736   5.802   7.767  13.527 -0.1158 -0.3567 -0.1577
21843W        W37737   0.378  14.882  12.885  0.0075 -0.0872 -0.0110
21844W        W37738   3.629   1.958   4.849  0.0763  0.1302  0.2195
21845W        W37739   9.295   5.697   3.774 -0.1404  0.3131 -0.0814
21846W        W37740   5.820   5.691  11.564  0.0318 -0.4649 -0.0122
21847W        W37741  11.588   6.138  15.559 -0.0436 -0.0276  0.1356
21848W        W37742   7.331   0.340   2.719 -0.1718  0.1752 -0.1072
21849W        W37743   1.745  15.769   1.443 -0.1388  0.0576 -0.1457
21850W        W37744   4.369   2.474   0.109  0.1008  0.0667 -0.0097
21851W        W37745   9.010   0.968  11.446  0.0771  0.3265  0.1087
21852W        W37746  10.034  14.312  11.629  0.1184 -0.1547 -0.0599
21853W        W37747  13.203  11.700  14.982  0.3178  0.0471  0.1518
21854W        W37748  16.781   8.772   3.701 -0.0077 -0.0237 -0.2007
21855W        W37749  11.769   4.611  10.703 -0.2588 -0.1877 -0.3057
21856W        W37750  12.106   0.123  14.258  0.1815  0.0423  0.2134
21857W        W37751  18.706   5.241  14.839 -0.0002 -0.2763 -0.1290
21858W        W37752   7.054  10.321  11.890 -0.0741  0.0838 -0.2538
21859W        W37753  17.113   1.689  15.081 -0.0571  0.2704 -0.4471
21860W        W37754   2.437  13.747  15.499 -0.1775 -0.1670 -0.0780
21861W        W37755  14.045   8.723   1.997 -0.2361 -0.0387 -0.0126
21862W        W37756  10.157   9.164   3.351  0.0328  0.0534  0.0958
21863W        W37757   7.458   3.364   1.658 -0.1067  0.2763  0.0168
21864W        W37758   8.317  16.748  11.130  0.2006 -0.4403  0.0501
21865W        W37759   4.902   9.092  10.453 -0.0348 -0.1469  0.1387
21866W        W37760   3.574  11.008  12.916  0.1881 -0.0319 -0.0626
21867W        W37761  18.663  12.848   2.238  0.1061  0.0432  0.0815
21868W        W37762   6.642  10.291   9.944 -0.4058  0.3107 -0.1970
21869W        W37763  18.547  16.558   3.716  0.1362  0.1513 -0.1768
21870W        W37764  10.989  12.487  13.554 -0.0378 -0.1191  0.1180
21871W        W37765   4.282   6.141   1.303 -0.3445  0.0673 -0.2615
21872W        W37766   7.056  12.208   0.306 -0.0444 -0.4139  0.2524
21873W        W37767   9.523   2.779   2.296  0.0482 -0.2462 -0.3983
21874W        W37768   9.575  12.681  11.397 -0.0836 -0.0552  0.0509
21875W        W37769  14.870   4.962  13.112 -0.2792  0.0227 -0.0060
21876W        W37770  18.726  18.250  11.085 -0.1044  0.2141  0.2209
21877W        W37771   7.344  13.888   3.995  0.3833 -0.0719 -0.0922
21878W        W37772  17.189  13.394   4.281 -0.0573 -0.2171 -0.1726
21879W        W37773   9.517   1.001   2.158  0.0642 -0.1523 -0.1842
21880W        W37774  11.386   5.286  12.233 -0.3277  0.3907  0.2821
21881W        W37775   6.751   4.316   4.614  0.1118  0.1808 -0.0355
21882W        W37776  12.268  16.619  12.799 -0.0330  0.1432 -0.2448
21883W        W37777  17.753  11.257   5.363 -0.2986  0.0523 -0.1746
21884W        W37778   3.497   2.386  12.465 -0.0178 -0.1785  0.1625
21885W        W37779  15.760   4.890  15.044  0.0473  0.0799 -0.4587
21886W        W37780   9.012   4.779  12.482  0.1034  0.0128  0.1055
21887W        W37781  17.582  11.796  12.339  0.2419  0.0373  0.0097
21888W        W37782  13.824  14.657   1.166 -0.1377  0.0124  0.1723
21889W        W37783   0.538   8.228  13.311  0.1373  0.1058  0.0250
21890W        W37784   1.412   0.663  14.292 -0.2565 -0.1823  0.0108
21891W        W37785   7.380   3.127  12.407 -0.2314  0.4421 -0.0377
21892W        W37786   6.899  14.071  14.726  0.2102  0.1795 -0.1432
21893W        W37787   1.127  13.535   3.206 -0.0315 -0.1884 -0.0230
21894W        W37788   8.129  10.947  14.163 -0.4755  0.0654 -0.1763
21895W        W37789   5.626   4.797  13.764 -0.0332  0.2046  0.0007
21896W        W37790   7.509   2.046  13.974  0.0948  0.4720  0.1812
21897W        W37791   4.166   5.687  10.222  0.0067 -0.0084 -0.2794
21898W        W37792   9.327   5.190  12.493 -0.2600 -0.0786 -0.3059
21899W        W37793  10.770   6.959   1.128 -0.3782  0.2001 -0.2596
21900W        W37794  11.607   0.772  14.125  0.0772 -0.0967 -0.2264
21901W        W37795  12.740   0.003   1.787 -0.1236 -0.3054 -0.0423
21902W        W37796  16.150  17.877  10.850 -0.1852 -0.2682  0.1739
21903W        W37797   0.611  17.061  13.014  0.1073 -0.1216  0.0515
21904W        W37798   3.296  12.223   1.055 -0.0176  0.1895 -0.3726
21905W        W37799   0.933   6.320  11.822 -0.3040 -0.1941  0.0078
21906W        W37800   9.815  17.964  14.089  0.1121 -0.0836  0.0001
21907W        W37801  10.795  14.658  12.462  0.1417 -0.0256  0.2978
21908W        W37802  11.081   7.248  15.175 -0.0557  0.1140  0.1491
21909W        W37803  16.242   8.970  12.932  0.1396  0.1748 -0.1892
21910W        W37804   3.369  10.272  12.379  0.0570 -0.0149 -0.1216
21911W        W37805   6.951   5.981  10.475  0.0542 -0.2237 -0.1175
21912W        W37806   1.868   3.349   4.277 -0.1228  0.1601  0.1429
21913W        W37807  13.948  14.231  15.205  0.2872  0.0787  0.0796
21914W        W37808  17.725  11.422   0.656 -0.0381 -0.0710  0.2656
21915W        W37809  14.950   3.295   0.796 -0.1674 -0.1121  0.1532
21916W        W37810   4.091   4.134   5.690  0.0452 -0.3968 -0.0280
21917W        W37811  12.385   7.074  14.261  0.1904 -0.3181 -0.0983
21918W        W37812  11.534   2.671  11.463 -0.0951 -0.1235  0.5230
21919W        W37813  16.503   5.118   1.777 -0.0588 -0.1526  0.1610
21920W        W37814   0.606   1.356  15.169  0.1840  0.1593 -0.1197
21921W        W37815   4.172  11.437  14.713  0.1620  0.0423  0.1003
21922W        W37816   6.046   4.466   0.468  0.1444 -0.0301 -0.0246
21923W        W37817  16.226   6.849  15.447  0.1888  0.0151  0.0862
21924W        W37818   2.977  10.359   4.610 -0.1135  0.1690  0.2049
21925W        W37819  16.434  14.716   5.579 -0.2699 -0.1239  0.1559
21926W        W37820   3.987   6.375  12.067  0.1026 -0.0464 -0.1610
21927W        W37821   6.103   4.582  14.371 -0.1226 -0.3690  0.3739
21928W        W37822  17.356   4.947   0.665  0.2520  0.2417  0.0282
21929W        W37823   6.828  16.738  15.406  0.1698  0.0225 -0.2974
21930W        W37824  17.843  16.003  11.413  0.3292 -0.3327  0.0053
21931W        W37825  14.807  14.459   0.224 -0.2015 -0.1471  0.3233
21932W        W37826  10.117  14.662  15.384 -0.2479  0.0116  0.0122
21933W        W37827  14.432  13.982   1.653 -0.0293  0.2982 -0.3933
21934W        W37828  11.165   2.421  11.769  0.0751 -0.0645  0.3168
21935W        W37829   7.934   5.598   2.311 -0.2018  0.1764  0.3919
21936W        W37830   6.071  10.958   2.319 -0.0862 -0.2627 -0.3189
21937W        W37831  16.144   3.922  13.930  0.0396  0.1492  0.0309
21938W        W37832  17.816   3.866   4.112 -0.3023 -0.0479 -0.3964
21939W        W37833   2.316   7.493  14.381 -0.1220  0.1184  0.0117
21940W        W37834   1.902   8.488   3.797  0.0034 -0.1313 -0.1597
21941W        W37835   4.801   4.612   4.068 -0.0423 -0.0838 -0.0442
21942W        W37836   3.316  16.405   0.646  0.2865  0.4489 -0.2295
21943W        W37837  14.894   4.645   4.149 -0.2392 -0.0789 -0.1651
21944W        W37838  11.533  10.785   3.875 -0.2473  0.1061 -0.3286
21945W        W37839  11.451   0.092   2.967  0.2529  0.1933  0.3347
21946W        W37840   0.596   6.165   0.103 -0.1936 -0.2522 -0.1853
21947W        W37841  11.016  11.238  13.830 -0.0929  0.0511  0.0052
21948W        W37842  11.163  15.148  11.836 -0.3200  0.1554 -0.1787
21949W        W37843   2.786   8.415   0.630 -0.0644  0.0049 -0.1409
21950W        W37844  15.460  10.523   4.954  0.0789  0.0038 -0.1000
21951W        W37845   1.434   4.004   3.957  0.0002 -0.3842  0.1155
21952W        W37846   9.837   2.939   4.653 -0.2437 -0.0527  0.2805
21953W        W37847  15.316   0.231   4.798  0.4089 -0.1216 -0.0072
21954W        W37848  11.191   9.233  15.439 -0.2206 -0.1052 -0.4490
21955W        W37849   4.564   4.934  14.176  0.0925  0.1277  0.1074
21956W        W37850  15.652  11.741  14.963  0.0093 -0.0437  0.1155
21957W        W37851  11.583   2.681  14.043 -0.0442 -0.0425  0.0212
21958W        W37852  11.133  11.885   3.927  0.0771  0.0755  0.0487
21959W        W37853   7.661   1.495   0.361 -0.1288 -0.1907 -0.1133
21960W        W37854   6.840   1.544   2.522 -0.0234 -0.0244 -0.0975
21961W        W37855  12.629   0.818   4.535 -0.0628  0.2702  0.1569
21962W        W37856   0.787   4.003  13.469  0.3096 -0.0225 -0.0577
21963W        W37857   6.723   3.169   0.029 -0.0969  0.0525  0.0162
21964W        W37858   5.657   6.203  13.204 -0.2899  0.1847 -0.0911
21965W        W37859   5.879  11.307  12.139 -0.1448  0.3405  0.0159
21966W        W37860  14.714   2.707   1.462 -0.0312 -0.1030  0.0434
21967W        W37861   2.345   0.097  12.235 -0.0015  0.2610  0.0502
21968W        W37862  17.200   9.577   2.790  0.2299  0.3413 -0.2731
21969W        W37863   2.863   1.105   1.762 -0.2701  0.1045  0.1135
21970W        W37864   7.015  18.124  11.478 -0.3077  0.1389 -0.2350
21971W        W37865   4.236  16.281   2.051  0.0017  0.0642 -0.1174
21972W        W37866   2.692   2.322  15.005  0.0702  0.0397 -0.1568
21973W        W37867  14.717  17.826  14.269 -0.2461  0.0188 -0.0846
21974W        W37868  10.453  16.502  11.746  0.0028 -0.1678  0.0970
21975W        W37869  14.580   9.582  11.862  0.0738  0.1479  0.0368
21976W        W37870  14.843   2.271   1.851  0.1044 -0.2377 -0.1026
21977W        W37871   4.442  17.082   0.966 -0.0007  0.3385  0.0751
21978W        W37872   2.292  10.944   0.231 -0.0518 -0.2847 -0.0190
21979W        W37873  11.502   4.606   4.743  0.1350  0.0905  0.1052
21980W        W37874   6.517   3.363  14.732  0.0464  0.0617  0.1775
21981W        W37875   1.557  14.585  13.355  0.1588  0.1954  0.2533
21982W        W37876  13.747  17.261   1.332  0.0186 -0.1215  0.1060
21983W        W37877  15.256   7.218  13.442  0.2865 -0.1963  0.1428
21984W        W37878  16.800  13.017   1.441  0.4409  0.1149  0.1127
21985W        W37879  12.715  16.122   2.580  0.1308  0.0220 -0.1412
21986W        W37880   5.064   5.000  10.213  0.1228 -0.0291 -0.0586
21987W        W37881   8.908   9.509   1.076  0.0703 -0.2579 -0.1320
21988W        W37882   1.924   0.128  13.045 -0.0108 -0.0455  0.0626
21989W        W37883   7.928   2.085   4.208 -0.1555  0.1038 -0.3412
21990W        W37884  14.910   4.000  13.354  0.0747 -0.1359 -0.2191
21991W        W37885   4.754   0.359  14.260  0.4971 -0.0527  0.1227
21992W        W37886  18.256  17.636  11.075  0.3948  0.0354 -0.0690
21993W        W37887   0.593   9.866  15.298 -0.3397 -0.1099  0.1271
21994W        W37888  11.394  18.177   1.801 -0.1091 -0.2703  0.4057
21995W        W37889   0.691  13.998  14.299  0.2138  0.0653 -0.2446
21996W        W37890   5.323   8.598   0.990 -0.0425  0.1549  0.1459
21997W        W37891   0.473   8.764   1.234  0.1362  0.2108 -0.1470
21998W        W37892  15.108   2.152   5.001 -0.3846 -0.1466 -0.1502
21999W        W37893   4.341   1.491  14.182  0.3758  0.2901  0.0216
22000W        W37894   1.249   3.651   4.293 -0.2894  0.4322  0.1840
22001W        W37895  12.326   3.589   4.782 -0.1908 -0.1276 -0.0976
22002W        W37896   0.147  18.462  10.648 -0.1551 -0.0393  0.0605
22003W        W37897   2.433  10.803   4.173 -0.3092 -0.1177 -0.0835
22004W        W37898  16.326  11.244   1.091  0.0769  0.0629  0.0097
22005W        W37899   0.528   0.304  13.264 -0.2558 -0.0840  0.0787
22006W        W37900   1.740   7.252  12.172  0.2566 -0.1014  0.0444
22007W        W37901  13.198   7.671   0.454  0.0579  0.0704  0.1180
22008W        W37902  14.198   2.753   1.610 -0.3786 -0.2631  0.1411
22009W        W37903  18.573   2.307   0.987 -0.0482 -0.4087 -0.2587
22010W        W37904  14.758  14.910   1.582  0.4101 -0.1057 -0.1968
22011W        W37905   9.726  16.710   3.189  0.2181 -0.4318  0.1706
22012W        W37906   8.458   0.318  14.672  0.0805 -0.1558 -0.5067
22013W        W37907   1.209  14.946   4.788  0.1333  0.1280  0.2480
22014W        W37908  15.862   8.893  15.470 -0.2579 -0.0722 -0.1253
22015W        W37909  16.946  16.171  12.273 -0.1290  0.1139  0.1296
22016W        W37910   4.175   2.440  11.188 -0.1287 -0.1265  0.4334
22017W        W37911  14.309  17.971  11.130  0.1191  0.4081 -0.0744
22018W        W37912  15.111  11.398  13.785 -0.1546 -0.0998 -0.0085
22019W        W37913  17.864   9.685   0.867  0.0299  0.1899  0.1387
22020W        W37914   4.750  11.970  14.922  0.3228 -0.3600  0.0663
22021W        W37915   7.976  10.905  13.274  0.2667 -0.0628  0.3233
22022W        W37916  14.131   2.035  15.577 -0.5350  0.0733 -0.3933
22023W        W37917   2.175  14.040   4.611 -0.0730 -0.0450  0.0071
22024W        W37918   0.410   6.406   4.586 -0.1218 -0.0951 -0.0865
22025W        W37919  14.939  12.671   1.674  0.0925 -0.0253 -0.0281
22026W        W37920  11.337  12.155   5.502 -0.0881  0.3385 -0.0042
22027W        W37921  17.387  18.581   2.647 -0.4466 -0.0887  0.2364
22028W        W37922   8.755   6.084  10.974  0.2210 -0.1915 -0.0552
22029W        W37923  10.619   9.080   0.802  0.1229 -0.0696  0.2882
22030W        W37924  10.951  16.063   5.238  0.0950 -0.4043  0.1635
22031W        W37925  13.963   6.584  15.098 -0.0843  0.0115  0.2273
22032W        W37926   2.736   1.733   0.732 -0.0446  0.0969  0.1254
22033W        W37927   1.950   2.846   3.145 -0.2222 -0.3445  0.0643
22034W        W37928  12.545   8.678   4.919 -0.1221  0.0926 -0.3760
22035W        W37929   4.040   0.834   3.727 -0.0359  0.1885  0.1886
22036W        W37930   3.029   4.436   2.949 -0.2188  0.3903 -0.0538
22037W        W37931   5.215   3.046  11.823 -0.4757 -0.0212 -0.1690
22038W        W37932  16.668   6.188   3.890  0.0426 -0.1206 -0.1394
22039W        W37933   7.824   7.839  15.140  0.1263  0.3417  0.1654
22040W        W37934   3.982  12.770  10.451 -0.0802 -0.0912  0.4767
22041W        W37935   4.779  10.268   2.912 -0.0551  0.2560 -0.1483
22042W        W37936   2.780  16.457   3.491 -0.0247  0.2606 -0.2457
22043W        W37937  11.218   7.217   6.119 -0.1254  0.2999  0.0107
22044W        W37938  13.430  16.662  13.410 -0.0921  0.0853 -0.0245
22045W        W37939   5.712   1.407  10.672 -0.0425 -0.3416 -0.2776
22046W        W37940   3.625   6.783   1.025 -0.1458  0.2483  0.2542
22047W        W37941  10.415  13.614   3.468 -0.1581  0.0993  0.0034
22048W        W37942   7.822   5.549   1.246 -0.2324  0.1459 -0.0304
22049W        W37943  14.537   0.376   0.994 -0.1155 -0.0660 -0.1102
22050W        W37944  15.830  16.614   2.642 -0.2054 -0.0296 -0.6910
22051W        W37945   8.449  15.562   2.459  0.1139 -0.0829  0.1111
22052W        W37946   3.765  14.279  11.072  0.2177 -0.1064  0.0722
22053W        W37947  11.840  14.174  11.892  0.2088  0.2151  0.1882
22054W        W37948   6.901   0.947  13.073  0.0124 -0.1349 -0.2814
22055W        W37949  14.862   8.099  12.177  0.0627  0.1231  0.3052
22056W        W37950   8.975  11.955  12.778  0.0814  0.1945  0.1216
22057W        W37951  17.598  10.366   0.554  0.0883  0.1031  0.1319
22058W        W37952   9.328   3.122  13.254 -0.2038 -0.1338  0.0477
22059W        W37953   8.035  13.994   5.044  0.2161  0.1174  0.3179
22060W        W37954  13.255  13.584   6.310  0.0563 -0.1292  0.0452
22061W        W37955   9.646   4.649  15.521 -0.1783  0.1189  0.2067
22062W        W37956   8.638  12.834   3.245  0.0611  0.2067 -0.1731
22063W        W37957   1.589   1.073  13.977  0.1068 -0.1474 -0.1820
22064W        W37958   0.033  17.169  11.646  0.2048  0.0620  0.4393
22065W        W37959   7.987  16.404   4.956 -0.0526  0.0616  0.1200
22066W        W37960   5.337  12.441   3.364 -0.3178 -0.0127  0.1221
22067W        W37961   8.564   8.316  14.484 -0.1625  0.0308  0.1330
22068W        W37962  11.383   0.878   3.736 -0.5004  0.1679  0.0788
22069W        W37963  13.008   8.029   1.428  0.3521  0.2480  0.0052
22070W        W37964   8.708   9.882  11.762  0.1342  0.0728 -0.2094
22071W        W37965  14.855  18.416   1.137  0.1413 -0.1550 -0.2219
22072W        W37966  18.259   5.415  11.504 -0.0405 -0.1889 -0.0268
22073W        W37967  10.538   2.033  14.596  0.2279 -0.2458 -0.2799
22074W        W37968  11.425   8.575  11.022 -0.0614 -0.0771 -0.2189
22075W        W37969   6.103   8.967   2.720 -0.1902  0.3709  0.1399
22076W        W37970  15.513   4.465  10.818  0.0124  0.3402 -0.1385
22077W        W37971  10.653   1.843  15.107  0.0068  0.3260  0.0208
22078W        W37972  17.419   7.060  13.585  0.1720  0.1960  0.0116
22079W        W37973  12.142   3.241  12.922  0.0044  0.0185  0.2902
22080W        W37974   9.171  12.852  12.625 -0.0930 -0.0887  0.1339
22081W        W37975   9.650   4.485   4.134 -0.1028  0.2647 -0.0733
22082W        W37976  15.573   6.138   4.837  0.0416  0.1156  0.0078
22083W        W37977   0.497   0.795  13.347  0.0202  0.0565  0.1047
22084W        W37978   3.339  14.649   0.426  0.0216 -0.1642 -0.2009
22085W        W37979   7.670  13.271  12.843 -0.0878  0.0886 -0.0380
22086W        W37980  15.511   8.653   4.023  0.1199  0.3051 -0.0779
22087W        W37981  12.036  13.253  13.632 -0.1195 -0.3122  0.2467
22088W        W37982   9.037  13.691  13.625 -0.1999  0.0657  0.5444
22089W        W37983  15.261   3.277  10.246  0.2301  0.2890 -0.0632
22090W        W37984  11.667   9.283  15.154  0.0854  0.4229 -0.0609
22091W        W37985  12.624   8.551  13.216  0.2335  0.1005 -0.0621
22092W        W37986   5.604  10.834   4.780  0.1664  0.0599 -0.1016
22093W        W37987   8.097   7.349   4.840 -0.0459  0.0581  0.0228
22094W        W37988  11.736  16.691  11.535  0.1299 -0.0164  0.0286
22095W        W37989   1.523   1.335  11.533  0.0912 -0.1297 -0.1684
22096W        W37990   7.460   1.733  12.653 -0.2616  0.0257  0.2114
22097W        W37991  16.116   5.628  11.672 -0.0221  0.0333 -0.4188
22098W        W37992   7.306   3.204   2.270  0.0906 -0.2316 -0.0318
22099W        W37993   8.920   9.940   3.301  0.1662 -0.0480 -0.0100
22100W        W37994   3.513   7.370  10.174  0.1820  0.0683 -0.1165
22101W        W37995   3.452  15.758  13.114  0.0366  0.0734  0.0383
22102W        W37996  12.255  11.305  13.461 -0.2277  0.2138  0.0771
22103W        W37997   3.329  10.443   2.499 -0.2364  0.1427 -0.0127
22104W        W37998   9.646   1.287   0.574 -0.4114 -0.3166  0.0349
22105W        W37999  15.447   8.689  13.858 -0.0925  0.3082  0.0713
22106W        W38000   4.962   4.204   2.704  0.0463 -0.0247  0.0878
22107W        W38001   5.313   8.915  15.213 -0.2328 -0.0004  0.0290
22108W        W38002  13.691  11.832   3.240  0.0373 -0.1718  0.1299
22109W        W38003  16.621   8.109  15.606  0.2437  0.4177 -0.3125
22110W        W38004  12.783  17.414  12.880 -0.3955  0.1068  0.0675
22111W        W38005   2.841  12.037   0.382 -0.0133  0.0444  0.0683
22112W        W38006   5.228  17.867  12.653 -0.2774  0.1032 -0.2395
22113W        W38007   2.120  12.825  10.741 -0.0030 -0.0545 -0.2483
22114W        W38008  13.408   7.399   3.833  0.2618 -0.0386 -0.0148
22115W        W38009   6.462   4.450   2.555 -0.1721  0.1233 -0.3561
22116W        W38010   2.523   2.578   0.501 -0.0921  0.2186 -0.1107
22117W        W38011  17.532   1.205   4.792  0.1812 -0.0207  0.0635
22118W        W38012  11.934  12.812   1.078 -0.0129 -0.1908  0.2667
22119W        W38013   9.512   3.281  15.171 -0.0057  0.3212 -0.1982
22120W        W38014   5.941   6.758  12.639  0.2215 -0.1719  0.1620
22121W        W38015   4.192  17.411   3.232  0.2491 -0.0113  0.1377
22122W        W38016   5.271   4.162  12.920 -0.2375  0.0867  0.3884
22123W        W38017  11.263   6.860   1.179 -0.0021 -0.2894 -0.0179
22124W        W38018  10.913   1.942  14.261  0.1159 -0.1000 -0.1847
22125W        W38019  11.325   2.776   2.125  0.0871 -0.2411 -0.1314
22126W        W38020  12.115   6.000   2.127  0.0107  0.2016 -0.0137
22127W        W38021   0.458  18.359  11.120 -0.2730  0.1433 -0.1288
22128W        W38022   9.778  14.460  15.118 -0.2258  0.0853  0.1204
22129W        W38023  11.376  15.168  10.988  0.2893  0.1451 -0.0528
22130W        W38024   6.567   0.724   1.305  0.1607 -0.0916 -0.3302
22131W        W38025   9.919   7.582  11.541 -0.1643 -0.2818 -0.1035
22132W        W38026  18.075  15.019   3.757 -0.0528 -0.0146 -0.1702
22133W        W38027  15.925   5.092  11.665  0.1229 -0.2701  0.5178
22134W        W38028  10.727  11.339   4.882 -0.0499 -0.0978  0.0559
22135W        W38029   2.008   8.222   4.361  0.2090 -0.0383 -0.0382
22136W        W38030  12.009   6.990   0.488  0.0061 -0.0258 -0.3044
22137W        W38031   2.627  14.982   3.161  0.0847  0.4830  0.5449
22138W        W38032   4.280   4.975  10.664  0.3404 -0.0335  0.1759
22139W        W38033  18.606   5.091   3.377  0.3376  0.2415  0.0937
22140W        W38034  13.111   3.731  14.156 -0.1332  0.0892 -0.0990
22141W        W38035  16.550   1.170  13.782 -0.1134  0.2750  0.0136
22142W        W38036   8.143   2.604  14.520 -0.1493 -0.0557  0.0904
22143W        W38037  16.397  15.446   2.237  0.1144 -0.0036  0.3986
22144W        W38038  10.463   3.461  14.481 -0.0855  0.2441 -0.4159
22145W        W38039  10.039  17.170   2.573  0.2526 -0.0187 -0.1014
22146W        W38040   5.092  13.001  13.897 -0.1233  0.2502 -0.2516
22147W        W38041   7.066  14.716   1.782  0.0375  0.1569  0.0166
22148W        W38042   8.913   5.990   3.429  0.0857  0.3547  0.2838
22149W        W38043  11.753  13.542   5.197 -0.2046  0.1336  0.1607
22150W        W38044   9.880   1.550   4.966 -0.0864 -0.0766  0.1528
22151W        W38045   2.447  17.551  14.131 -0.1492  0.2255  0.3377
22152W        W38046   3.411   6.403   5.501 -0.1063 -0.1044  0.0974
22153W        W38047  14.052   3.611  14.325  0.1312  0.2249  0.2152
22154W        W38048   1.346   7.198  14.694  0.1783  0.0587 -0.1751
22155W        W38049   3.564  15.399  14.506 -0.0637  0.0807 -0.0369
22156W        W38050   7.597  12.557   1.118 -0.0592  0.1066 -0.1350
22157W        W38051  11.318   4.315  11.445 -0.2580 -0.0886  0.2371
22158W        W38052  15.262  15.199  13.939 -0.1413 -0.0623 -0.0615
22159W        W38053   1.381   7.989  13.766 -0.1152 -0.0039 -0.0339
22160W        W38054  13.610   3.021   2.566 -0.0700  0.3234  0.0555
22161W        W38055   4.673  12.090  11.578  0.0547  0.1483 -0.0760
22162W        W38056  10.384   0.939   5.718 -0.2697 -0.0416 -0.1751
22163W        W38057  13.166  10.954  13.098  0.1148 -0.0701  0.1667
22164W        W38058   3.428   5.266   0.612 -0.1534  0.1241  0.0573
22165W        W38059   5.314   8.526  12.435 -0.0825 -0.2499 -0.0360
22166W        W38060  14.781   9.182  15.212 -0.0311 -0.1200 -0.2339
22167W        W38061   4.309   6.829  11.041 -0.0115 -0.1991 -0.0941
22168W        W38062   5.199   0.830  13.246  0.3877  0.1545 -0.0976
22169W        W38063   9.209   3.851   1.387 -0.4019  0.0387 -0.2162
22170W        W38064   8.754   2.155   2.895  0.0330  0.0680 -0.0892
22171W        W38065  10.147   5.318   0.797 -0.2958 -0.1751 -0.0382
22172W        W38066   4.833   1.258  13.053 -0.0924  0.0896  0.1263
22173W        W38067   1.686  16.086   1.062 -0.0508 -0.3169 -0.2769
22174W        W38068  15.304   3.303  13.595  0.3045  0.0431 -0.0713
22175W        W38069  11.790   7.372  11.750 -0.0352 -0.3191 -0.1776
22176W        W38070  14.214  10.891  12.885 -0.3674 -0.0584  0.0030
22177W        W38071  17.710   4.118   5.573  0.3652 -0.1568  0.0673
22178W        W38072   8.983   0.704  10.065 -0.2159  0.0707  0.0217
22179W        W38073   6.777   6.774   4.041  0.1383 -0.1036 -0.2723
22180W        W38074  13.340  10.019   2.972  0.1093  0.1508 -0.1001
22181W        W38075   9.988   7.306  11.926 -0.3439 -0.0468  0.0963
22182W        W38076  18.394  10.384  13.827 -0.1964  0.0863  0.2225
22183W        W38077   0.250   0.536   2.649  0.3132 -0.0516  0.1541
22184W        W38078   2.219  16.388  11.657  0.3397 -0.1986 -0.1619
22185W        W38079  10.472  17.060  10.367  0.1732 -0.1345 -0.2152
22186W        W38080   3.603  10.686  13.825  0.1268 -0.1765 -0.1310
22187W        W38081  13.783  14.728  15.039  0.1105 -0.4171  0.2028
22188W        W38082  14.595   7.264   2.917  0.0953 -0.0286 -0.2036
22189W        W38083   5.296  18.325  10.669 -0.1461 -0.1561 -0.2146
22190W        W38084   3.430   8.339   5.849  0.1317 -0.3050  0.1144
22191W        W38085   6.966  12.625   4.148  0.3210 -0.1731  0.0233
22192W        W38086  16.251   6.532   5.642 -0.1220  0.4863  0.2190
22193W        W38087  15.181   6.040   1.048  0.0256  0.1459 -0.1430
22194W        W38088   2.082  14.495  11.650  0.0004  0.1469  0.1716
22195W        W38089  11.420  16.115  14.033 -0.2289  0.0842  0.1583
22196W        W38090  15.363  15.167   2.987 -0.2026  0.1130  0.0403
22197W        W38091   8.193   5.656  15.057  0.2031  0.1989 -0.0737
22198W        W38092  17.760   7.846   4.413 -0.3601 -0.1097  0.1579
22199W        W38093  18.312  18.620  14.953 -0.1152  0.2644 -0.1959
22200W        W38094   0.834   2.606  15.057  0.2093  0.2289 -0.2917
22201W        W38095   2.899  18.069  14.932  0.0716 -0.1031  0.0207
22202W        W38096  12.662  15.754  12.581  0.0462 -0.2236 -0.1776
22203W        W38097   4.077  13.981  11.328  0.3801 -0.2450  0.0319
22204W        W38098  15.518  12.048   1.174 -0.1344  0.1240 -0.1990
22205W        W38099   7.529  18.746  11.530 -0.0332  0.1502  0.1194
22206W        W38100  10.323  11.538  12.602  0.1855  0.0351 -0.2544
22207W        W38101  10.797  16.423  13.443 -0.2217  0.1126 -0.2610
22208W        W38102   9.275   7.194   0.140 -0.1492 -0.0692 -0.2680
22209W        W38103   5.063   1.746  13.071  0.2900  0.2390  0.1009
22210W        W38104   1.080   2.102  11.192 -0.4097 -0.1194 -0.3714
22211W        W38105  14.650  11.308  13.657  0.2107 -0.1716  0.0933
22212W        W38106  16.122  17.053   2.596 -0.1459  0.3299 -0.0192
22213W        W38107   0.423   4.231  12.999  0.4075  0.3028 -0.1777
22214W        W38108  11.535  11.257   4.168 -0.1964 -0.0918 -0.0401
22215W        W38109  16.239   2.345  11.473 -0.2854  0.3014  0.0690
22216W        W38110   4.165   5.584  15.584  0.1286 -0.0001  0.2521
22217W        W38111   5.755   3.069  12.155 -0.0184 -0.0896 -0.3375
22218W        W38112   1.466  11.665   3.412  0.0241 -0.2873  0.2890
22219W        W38113  15.276  16.820  11.840 -0.3397  0.2264  0.1763
22220W        W38114   0.936   2.312  14.112 -0.0955 -0.2049 -0.4310
22221W        W38115   2.315  10.004   9.331  0.1309 -0.0010 -0.2564
22222W        W38116   7.600  13.677   5.683  0.1321 -0.1536 -0.2679
22223W        W38117   7.145  14.764  14.926 -0.3368 -0.0473 -0.1421
22224W        W38118  12.807  11.234   4.176 -0.5083 -0.0308  0.2917
22225W        W38119  14.782   3.249   4.663  0.0858 -0.3202 -0.1280
22226W        W38120  10.912  10.997  13.414  0.3744  0.4327  0.1920
22227W        W38121   0.491  17.570   3.190 -0.1258 -0.1820 -0.0745
22228W        W38122   2.498   2.723   1.562 -0.2693  0.0981  0.3176
22229W        W38123  15.835  14.679   1.889  0.1010 -0.0703  0.1750
22230W        W38124   2.228  15.384  13.855 -0.1533  0.0787 -0.1170
22231W        W38125  11.512  18.663  14.855 -0.1006 -0.0292  0.0949
22232W        W38126   0.504  15.503   4.533  0.0268 -0.1764  0.0172
22233W        W38127   3.428   0.060  11.144  0.2133 -0.0652  0.0836
22234W        W38128   2.663  15.836   4.091 -0.1368 -0.0634 -0.2364
22235W        W38129  18.098  13.391  12.413 -0.0734 -0.1953 -0.0779
22236W        W38130  10.403  10.504  14.423 -0.1203 -0.1447  0.0161
22237W        W38131  14.312   9.976  14.386  0.2915 -0.2360  0.0278
22238W        W38132  10.536   0.833  12.823 -0.0692 -0.0827 -0.1993
22239W        W38133  10.684   8.798   4.462  0.2625 -0.2383 -0.1749
22240W        W38134  15.239  14.770   1.722 -0.4057  0.0578 -0.1747
22241W        W38135  18.207  16.793   3.359 -0.2596  0.0130  0.3375
22242W        W38136   7.438   2.663  12.136 -0.3021 -0.0467 -0.0792
22243W        W38137   5.888   2.625   0.475  0.1108 -0.0052 -0.0418
22244W        W38138  10.395   0.776   3.887 -0.1877  0.3200 -0.1503
22245W        W38139   9.332   7.944  13.916 -0.0846 -0.2885 -0.1888
22246W        W38140   5.607  10.370  12.448 -0.1011  0.1917  0.0519
22247W        W38141   6.332   5.967  13.281  0.0056  0.7600 -0.3204
22248W        W38142  14.783  15.258   3.881 -0.1054 -0.2205 -0.2547
22249W        W38143   0.656   3.170  14.416 -0.0203 -0.0517 -0.2504
22250W        W38144   8.248  12.958  15.198  0.0499  0.2327 -0.3538
22251W        W38145   1.282   5.318   4.000  0.0992  0.0705 -0.0734
22252W        W38146   9.615  14.121   3.666 -0.0343  0.0270  0.2436
22253W        W38147  13.602  16.947  10.313  0.1834 -0.1520 -0.3607
22254W        W38148   7.491  15.607  11.447 -0.1809  0.1434  0.1098
22255W        W38149  10.694   8.905   3.517  0.1000 -0.2076  0.1510
22256W        W38150  12.540  17.887  14.059  0.3026  0.0419  0.0771
22257W        W38151  10.693  11.956  12.853 -0.0223 -0.0815 -0.2219
22258W        W38152  16.840  17.016   2.182  0.3766  0.3034 -0.0977
22259W        W38153  16.205  15.237  12.239 -0.1231 -0.2265  0.3619
22260W        W38154   5.587   1.572  12.721  0.0321  0.0724 -0.1130
22261W        W38155   2.172   1.756   1.329 -0.2012  0.0135  0.1735
22262W        W38156  15.196   1.127  13.107 -0.0406 -0.1107  0.0799
22263W        W38157  13.362  15.167  12.640 -0.1088  0.0118 -0.0541
22264W        W38158  13.237   5.053   4.783 -0.2385  0.3217 -0.1460
22265W        W38159   1.358  18.119  14.764 -0.0680 -0.0682 -0.3425
22266W        W38160  13.352  14.748  14.681 -0.0137 -0.0988 -0.2229
22267W        W38161   5.139   4.730  13.570 -0.1739  0.0595 -0.0335
22268W        W38162  14.558   5.287   1.249 -0.2219  0.3372 -0.2621
22269W        W38163  12.185   3.842   1.764 -0.1345  0.1743  0.0723
22270W        W38164  18.200   7.775   5.019 -0.1617 -0.0521 -0.0731
22271W        W38165   5.947  17.671   0.857 -0.1708 -0.3835 -0.1586
22272W        W38166  15.795   6.579  10.900  0.1626  0.0308 -0.0032
22273W        W38167  11.486   0.486   0.924  0.0415 -0.1911 -0.0080
22274W        W38168  13.090  16.877  10.343  0.3888 -0.0241  0.0181
22275W        W38169  17.922   5.331  13.755  0.3334 -0.2941 -0.0890
22276W        W38170   9.987  15.527  11.687  0.0905 -0.0207 -0.1734
22277W        W38171  12.549  16.660   2.885 -0.1157 -0.0942 -0.0641
22278W        W38172  16.742   8.914  12.724 -0.2368 -0.0756  0.3058
22279W        W38173  13.119  17.293   5.195 -0.0042  0.0330  0.1392
22280W        W38174  12.707  10.849   1.228  0.0414 -0.0931  0.0303
22281W        W38175  16.109   8.652  11.286  0.0164  0.1278  0.0410
22282W        W38176  18.377  17.529   2.871 -0.0703 -0.0485  0.1600
22283W        W38177   3.416  10.774   2.108  0.2348 -0.0100  0.0108
22284W        W38178   1.870  11.253  11.943  0.0136  0.1958 -0.1877
22285W        W38179  10.299   3.865  15.112 -0.0419  0.2653 -0.2991
22286W        W38180   8.634  13.988  13.427 -0.3945 -0.1660 -0.1943
22287W        W38181   2.013   0.095   3.144 -0.1918 -0.1044 -0.3482
22288W        W38182   7.756  16.898  13.721 -0.1404  0.2873 -0.0829
22289W        W38183  15.333   0.892  13.507  0.3280  0.1006 -0.0858
22290W        W38184   0.318  17.319  11.201 -0.0826  0.2120 -0.1211
22291W        W38185  10.112  18.475  11.591  0.0546  0.2743  0.0841
22292W        W38186  10.674   3.608  15.492  0.2114  0.0194 -0.1745
22293W        W38187  12.092  10.771   0.761 -0.0024  0.1576  0.1227
22294W        W38188   9.583   3.955   5.070  0.0484  0.3508 -0.0473
22295W        W38189   5.062  18.574   0.845  0.0866  0.1771  0.2298
22296W        W38190   6.974   1.246   5.391  0.2097  0.1554 -0.2422
22297W        W38191  12.883   0.957  12.242 -0.0167  0.0518 -0.1215
22298W        W38192  13.634   7.556   0.778  0.0121  0.1979 -0.1610
22299W        W38193   0.057   8.406  14.253 -0.1578 -0.0710 -0.3872
22300W        W38194  14.205   1.328  10.620 -0.0788  0.2838  0.0272
22301W        W38195   1.871   5.152  14.542 -0.2591  0.0088 -0.3209
22302W        W38196   6.038   0.292   4.411 -0.0933 -0.1459  0.0273
22303W        W38197   6.069  15.286  11.461  0.0791  0.3043  0.3314
22304W        W38198  11.878   5.121   4.459  0.1576  0.4061  0.0968
22305W        W38199   9.488   4.775   2.855  0.0128  0.1887  0.2377
22306W        W38200  15.048  16.483   4.065 -0.0059 -0.2428  0.2265
22307W        W38201   3.655   1.843   5.658 -0.0793  0.0854  0.0984
22308W        W38202  13.512   1.632   3.701  0.1218  0.1495 -0.0998
22309W        W38203  15.548   7.794   0.630  0.0403  0.3196 -0.0018
22310W        W38204   0.736  10.257  14.917  0.1501 -0.2079 -0.3017
22311W        W38205   8.088  12.557   1.588 -0.1085 -0.3342  0.2875
22312W        W38206  14.557   9.387  12.312  0.0174 -0.1120  0.0081
22313W        W38207   5.059  16.456  15.508  0.0830  0.0951 -0.0120
22314W        W38208   2.155  10.435  14.001 -0.2653  0.4853  0.0073
22315W        W38209  11.003   3.057   1.854 -0.1175  0.1849 -0.1823
22316W        W38210  14.765  17.709  11.066  0.0484  0.0930 -0.1836
22317W        W38211   5.856   3.768  15.207  0.0892  0.0928  0.0991
22318W        W38212  16.086   0.610   2.379  0.0864 -0.3471  0.2312
22319W        W38213   1.938   6.228   0.390 -0.2106  0.0405 -0.1636
22320W        W38214   5.175  16.865  13.585 -0.0011 -0.0104 -0.0703
22321W        W38215   4.435   7.306   3.685  0.0102 -0.1730  0.0749
22322W        W38216   9.771   4.339   2.794  0.2645  0.2735  0.2803
22323W        W38217   9.183  12.926  14.901 -0.2990 -0.3076 -0.1574
22324W        W38218   9.738   0.135  11.958  0.0522 -0.2655 -0.0391
22325W        W38219   8.377  10.885   3.292 -0.1291  0.2038 -0.0475
22326W        W38220  14.104   0.732  15.287  0.4072 -0.1860 -0.0118
22327W        W38221   3.128  18.645  14.164  0.0037 -0.2843  0.1249
22328W        W38222  18.586   6.248   3.794  0.1168 -0.0459  0.1537
22329W        W38223   9.640  15.141  12.039  0.0375 -0.0622  0.0442
22330W        W38224   9.789  14.495   3.290 -0.0427 -0.2704  0.0277
22331W        W38225  12.499  17.695   4.101 -0.0713 -0.1314  0.0337
22332W        W38226  15.494  16.603  13.268  0.0556 -0.0875 -0.1395
22333W        W38227   3.481   5.295   2.814 -0.0475 -0.1068  0.2403
22334W        W38228   7.238  16.191   2.452  0.2568 -0.2252  0.0171
22335W        W38229  15.755  15.591  11.137  0.0208  0.6137  0.0005
22336W        W38230   1.071  11.716   3.120  0.1179 -0.0717 -0.1597
22337W        W38231   3.771   4.002   1.099 -0.0389 -0.1706  0.0440
22338W        W38232   4.125  16.641  10.162  0.0716  0.3245  0.1161
22339W        W38233  17.552  13.632   1.493  0.0575  0.1979  0.0050
22340W        W38234  12.295  13.150   0.160 -0.2728 -0.0981 -0.1644
22341W        W38235   0.899   5.915   1.451 -0.0791 -0.0557 -0.2232
22342W        W38236   6.876  18.724   3.518 -0.0071 -0.1439  0.0460
22343W        W38237   5.135   7.793   2.324  0.3527  0.3093 -0.4316
22344W        W38238   8.490  12.738  14.833 -0.1469 -0.0205 -0.0855
22345W        W38239   9.978  11.120   1.816  0.1020 -0.3075  0.1174
22346W        W38240   7.158   3.856  13.498 -0.0577 -0.0257  0.0847
22347W        W38241   4.832  12.747  15.311  0.0096 -0.0768 -0.0659
22348W        W38242   8.751   3.451  13.635  0.1525  0.1089 -0.0425
22349W        W38243   3.936   2.054   1.245  0.0829 -0.1577 -0.3157
22350W        W38244  12.873   2.100  15.360 -0.0162 -0.2107  0.0760
22351W        W38245   1.466  13.087  12.928  0.4007 -0.1579  0.3347
22352W        W38246  12.078   6.251  12.234  0.0982 -0.0154  0.1409
22353W        W38247   7.769   3.876   3.931  0.0612 -0.0058 -0.3748
22354W        W38248  18.524  17.644  14.176  0.1641  0.1704  0.0523
22355W        W38249  13.746   9.801  11.873  0.1677 -0.0155  0.1463
22356W        W38250   6.151  11.348   2.620 -0.0856 -0.3843 -0.1012
22357W        W38251   4.261   7.348  12.568 -0.0562 -0.2511 -0.0651
22358W        W38252  18.350   0.883   5.413 -0.1887 -0.2428 -0.0538
22359W        W38253  13.136  17.303   2.053  0.0544 -0.1867 -0.2260
22360W        W38254  14.723   8.226  14.769 -0.1766  0.1635 -0.3993
22361W        W38255  15.282   2.025  12.735 -0.0411 -0.3948  0.1348
22362W        W38256  10.682   0.530  14.515  0.3111  0.0443 -0.0270
22363W        W38257   0.724   5.351  15.246 -0.0136 -0.2071  0.0038
22364W        W38258   3.843  13.536  14.537 -0.2309  0.2542 -0.0069
22365W        W38259  14.335   8.959   0.301 -0.1644  0.0478  0.3221
22366W        W38260   3.905  15.608  13.932  0.0016 -0.0942 -0.1122
22367W        W38261  13.889   2.817   0.599 -0.1670  0.2269 -0.1607
22368W        W38262   5.627  17.030  10.430 -0.2377 -0.2317 -0.1703
22369W        W38263   5.756   3.622   0.427  0.1961 -0.2777  0.1289
22370W        W38264  16.488   3.428   2.961  0.0228  0.0823 -0.2895
22371W        W38265  18.289   8.252   0.136 -0.1752 -0.2155  0.0551
22372W        W38266   0.789  14.837   1.387  0.0263 -0.4336  0.0989
22373W        W38267   0.173  17.155   4.535 -0.1082  0.0718 -0.2257
22374W        W38268   9.696   9.525   5.725  0.2224 -0.2814 -0.0481
22375W        W38269  11.335   0.514   0.154  0.0062  0.0676 -0.3809
22376W        W38270   4.417   1.957   2.670  0.0969  0.1362  0.2529
22377W        W38271   7.839   0.498   1.196  0.0056 -0.1258 -0.0096
22378W        W38272  10.106   5.518  15.246 -0.1416 -0.1577  0.1736
22379W        W38273   4.503  17.901  13.615 -0.0584 -0.0782 -0.0953
22380W        W38274  15.264  18.194  11.488 -0.0365  0.2014 -0.2141
22381W        W38275  11.812   5.117  10.552 -0.1376  0.0486 -0.0279
22382W        W38276  16.989   2.068   1.697  0.4044  0.1777  0.1521
22383W        W38277  16.262   2.685   0.812  0.0823  0.2484  0.2608
22384W        W38278  13.887   8.005   4.451  0.0148  0.1439 -0.1695
22385W        W38279  12.923   9.526   5.136 -0.1016  0.2287 -0.0991
22386W        W38280   1.758   0.181   4.142  0.0788 -0.1320 -0.2226
22387W        W38281   3.631  12.415  13.186 -0.1076  0.3133  0.0872
22388W        W38282  14.147   5.369   3.818 -0.2594  0.0133  0.0335
22389W        W38283   2.639   3.678  10.988 -0.0545 -0.4508  0.1672
22390W        W38284  14.445  18.680  13.734 -0.0994 -0.1525  0.1237
22391W        W38285  10.124  14.888  12.866  0.1270 -0.3026 -0.0485
22392W        W38286  18.688  11.323   4.782 -0.1644 -0.3371  0.2620
22393W        W38287   4.181   2.323  15.150  0.1313  0.0965  0.1590
22394W        W38288   7.667  13.548  13.929  0.0615 -0.3331  0.3579
22395W        W38289   3.916  14.418   0.747 -0.0515  0.2646  0.0023
22396W        W38290   4.382  15.193   2.604 -0.2706 -0.2057 -0.2317
22397W        W38291   5.339   3.016  14.985  0.0836  0.1970 -0.1457
22398W        W38292  17.894   6.383   2.814  0.1910  0.2816  0.0353
22399W        W38293   2.825  14.464   0.382  0.0685  0.1654 -0.1061
22400W        W38294   9.184   0.925  14.640 -0.0605  0.1619 -0.0080
22401W        W38295  11.695  17.813   0.421  0.1399 -0.1083 -0.0169
22402W        W38296   3.475   1.309   0.261 -0.1451  0.3797 -0.0192
22403W        W38297  13.507  18.501   3.243  0.1287 -0.0728 -0.0728
22404W        W38298   0.291  16.958  13.545  0.1876 -0.0578  0.1190
22405W        W38299   2.531   4.159  13.060  0.1125  0.4629 -0.1985
22406W        W38300  17.676  12.758   3.168  0.1621  0.0095 -0.1499
22407W        W38301  18.034  16.255  13.765  0.2827  0.1804 -0.1386
22408W        W38302   7.780   4.420  10.629 -0.1232  0.0548  0.2850
22409W        W38303  17.845   4.079  14.412 -0.1681 -0.0743  0.0583
22410W        W38304  17.919   1.026   4.540  0.0766  0.4976 -0.5330
22411W        W38305   4.074  13.411  11.050 -0.0482  0.2530 -0.3457
22412W        W38306   2.340  14.637  11.219 -0.0160 -0.1574  0.1403
22413W        W38307   5.373  16.292  12.194 -0.2796 -0.1685  0.0220
22414W        W38308  15.023   0.247  11.831  0.0514  0.0433 -0.3790
22415W        W38309  15.503   7.534  11.800 -0.0899 -0.1159 -0.1518
22416W        W38310   3.095   2.796  14.380  0.0549  0.1585 -0.0152
22417W        W38311  15.103   5.070   4.908 -0.3029 -0.0498 -0.2147
22418W        W38312  12.328   6.353   4.933  0.1319  0.3660  0.2553
22419W        W38313  17.626   0.373   3.962  0.0609 -0.1745 -0.0149
22420W        W38314  17.814  15.269  13.962  0.3033 -0.2046  0.0587
22421W        W38315   1.400   4.308   2.040 -0.0045  0.0011  0.0415
22422W        W38316  18.221   5.577   2.414  0.1944  0.1025  0.0967
22423W        W38317  10.907   3.325   3.093 -0.1975 -0.0880  0.0482
22424W        W38318  12.899  15.899  11.227  0.0639  0.4110 -0.1599
22425W        W38319   0.892  17.958   0.407  0.0590 -0.1113 -0.0212
22426W        W38320   8.439  14.341  12.187 -0.0632 -0.0761 -0.0908
22427W        W38321  12.840   6.809   2.586  0.0017 -0.3634 -0.0180
22428W        W38322   6.120   9.910  11.679 -0.0858  0.0270 -0.0312
22429W        W38323   9.270   9.934   2.044  0.2188  0.4601  0.0704
22430W        W38324   7.285  18.517  14.003  0.0261  0.0534 -0.0990
22431W        W38325   7.223  14.829  14.365  0.0844  0.0037  0.0332
22432W        W38326   5.399   4.841   1.002 -0.0138 -0.2484 -0.1865
22433W        W38327   7.710   6.335   9.478  0.1853  0.0088 -0.0571
22434W        W38328   4.543   8.366  11.202  0.1664  0.2321 -0.0002
22435W        W38329   1.331  11.260   1.813 -0.0980 -0.3510 -0.4558
22436W        W38330   7.074   1.080   2.228 -0.1196  0.2050  0.2058
22437W        W38331  16.408  16.237  15.573 -0.3249 -0.0364 -0.1334
22438W        W38332   0.600   4.825   5.319 -0.1812  0.0750 -0.2938
22439W        W38333   0.617  11.774  13.199 -0.1695 -0.0499 -0.3173
22440W        W38334  14.162  11.109  14.407 -0.1912 -0.0921 -0.2563
22441W        W38335  15.712   9.005   0.326  0.3522 -0.0226  0.1588
22442W        W38336  13.020  17.260  14.668 -0.0442  0.1673  0.0501
22443W        W38337  16.336  13.940  13.011 -0.2720  0.3842  0.0294
22444W        W38338   3.107   5.376   4.817  0.3843  0.0742  0.1651
22445W        W38339   2.459  15.280   1.077 -0.1120 -0.0931 -0.0921
22446W        W38340  13.283  18.136  13.389  0.0756  0.0210 -0.0300
22447W        W38341  13.540  17.319   4.933 -0.1438 -0.1178  0.1208
22448W        W38342   7.201  17.680   4.042  0.1796 -0.3494 -0.2679
22449W        W38343  12.075   2.342  12.946 -0.0288  0.1687 -0.0425
22450W        W38344  18.378  13.248  11.073  0.2800  0.1554  0.1781
22451W        W38345   2.032  17.064  11.916  0.0002  0.1944 -0.1968
22452W        W38346  11.482   1.764  11.068  0.0695 -0.2756 -0.0806
22453W        W38347   1.425  10.887  15.072  0.1889  0.2044  0.0389
22454W        W38348  15.133  17.588   1.067 -0.2222  0.3448 -0.1430
22455W        W38349  10.690  18.455   5.059  0.0903  0.1376 -0.1539
22456W        W38350   9.320  16.478   2.629  0.0889  0.0030 -0.0545
22457W        W38351  13.581   7.913  13.849 -0.1807 -0.4617 -0.0484
22458W        W38352  15.615   6.135  10.792  0.1403 -0.0460  0.1643
22459W        W38353  15.991  14.909   5.523 -0.0548  0.0536  0.1641
22460W        W38354   7.987   4.137   1.162 -0.3091 -0.1845 -0.0636
22461W        W38355  18.603   1.401   2.482 -0.2378  0.0310 -0.2671
22462W        W38356   7.421   3.521   3.977 -0.0076 -0.3701  0.1730
22463W        W38357   8.677   2.853   3.019 -0.0214 -0.1633  0.0188
22464W        W38358   6.858  16.283  11.913 -0.0621 -0.0599  0.1851
22465W        W38359  17.936  17.158   4.369  0.2001 -0.0037 -0.2128
22466W        W38360  11.592  10.613   0.771 -0.2214 -0.3584 -0.1806
22467W        W38361  10.185  14.992  14.407 -0.1792  0.1783 -0.0608
22468W        W38362  16.319   3.873  12.891  0.0082  0.0563  0.0070
22469W        W38363  17.165   6.507   3.189  0.1871 -0.2647 -0.0738
22470W        W38364  12.339   5.008   0.307 -0.1308 -0.0508 -0.0487
22471W        W38365   0.284  17.124  12.143  0.0552 -0.1097 -0.1101
22472W        W38366   0.923  13.303  13.273 -0.0931 -0.1297 -0.2075
22473W        W38367   1.589  13.251   0.745 -0.0478 -0.0661  0.3076
22474W        W38368  11.500   3.901   2.937  0.1668  0.1914 -0.0802
22475W        W38369  14.903   2.196   9.955  0.3709  0.1753 -0.0619
22476W        W38370   9.758  17.022  13.252  0.4785  0.0084  0.1628
22477W        W38371  15.173   2.332   5.730  0.0122  0.1204 -0.1447
22478W        W38372  14.162   0.259  13.513 -0.2661 -0.0617  0.0424
22479W        W38373  16.955  10.914   0.092 -0.4755 -0.0189  0.1286
22480W        W38374  17.848  10.476  11.982  0.1750 -0.3320  0.0010
22481W        W38375   2.614   8.253   2.132  0.0203  0.0495 -0.0991
22482W        W38376  12.382  18.472   1.572  0.3288 -0.3389 -0.0362
22483W        W38377  10.377   4.591  11.113  0.0166  0.0910  0.1404
22484W        W38378   9.868   0.671   2.251 -0.1472 -0.1888  0.1656
22485W        W38379   5.960  10.549  14.157  0.0755  0.1311 -0.2005
22486W        W38380  15.555  12.993   4.502 -0.4032  0.0687 -0.0220
22487W        W38381   6.421   4.020   1.779  0.2212 -0.1044 -0.0206
22488W        W38382  12.388   1.736  11.180 -0.3575 -0.0116  0.1032
22489W        W38383  14.917   8.990  12.229  0.0698 -0.0871 -0.0199
22490W        W38384  11.028   6.263  14.766  0.3387  0.1630  0.1574
22491W        W38385   2.127   7.379   1.716 -0.2156 -0.1176 -0.3263
22492W        W38386  14.372  16.105   1.999  0.0657  0.0630 -0.0726
22493W        W38387   4.564   7.601  13.912 -0.0242  0.1465 -0.1144
22494W        W38388  14.594   3.293  14.223 -0.1199  0.0228 -0.0723
22495W        W38389   1.158   3.233  11.513  0.1471  0.0602  0.1903
22496W        W38390  17.456  15.777  12.863  0.1079 -0.0825 -0.5682
22497W        W38391  14.229   9.222   1.202 -0.1683  0.4588  0.1072
22498W        W38392   4.031  15.557  14.398  0.2351 -0.2167  0.3622
22499W        W38393  15.177  14.702  14.781 -0.0645  0.1758 -0.2402
22500W        W38394  14.290   7.526  12.859  0.0872 -0.3236 -0.0469
22501W        W38395   7.791   4.743  14.285  0.0704  0.0923 -0.1459
22502W        W38396   3.082  13.171  15.129  0.0536  0.1708  0.2399
22503W        W38397   2.383   0.589  14.812 -0.0857 -0.0627 -0.2709
22504W        W38398   3.853  13.256   4.117  0.1208  0.1002 -0.0651
22505W        W38399  16.549   0.370  11.560 -0.0516  0.1652  0.0316
22506W        W38400   5.741  13.250   2.803 -0.2538  0.0309  0.3501
22507W        W38401   2.699   6.032  15.400 -0.5455 -0.1695  0.2126
22508W        W38402   2.774  16.627   4.769 -0.0398 -0.0426  0.2345
22509W        W38403   6.378   1.482  11.715  0.0064  0.3727 -0.1613
22510W        W38404   2.304   2.347  13.814  0.1967  0.2058  0.1464
22511W        W38405   8.879  16.749  11.165 -0.0350 -0.1990  0.1122
22512W        W38406   2.365   0.136  14.550 -0.0185 -0.3158  0.0478
22513W        W38407   8.861   4.982   4.498  0.1112 -0.1082 -0.3334
22514W        W38408   4.630  13.909   3.354  0.1014  0.0157  0.1696
22515W        W38409  16.733  10.484   0.454  0.1197  0.1642  0.0873
22516W        W38410  14.272  18.471   5.174  0.0978 -0.1300  0.0397
22517W        W38411  15.243   3.120  11.442  0.2264 -0.2287 -0.1731
22518W        W38412  18.340  17.120  13.236 -0.2753 -0.0593  0.1207
22519W        W38413   3.224  12.575   1.978  0.0164  0.0152  0.2330
22520W        W38414   0.314  16.555   3.562  0.1266 -0.1725 -0.0343
22521W        W38415   1.798   4.183  13.666  0.1971  0.0740 -0.0009
22522W        W38416  13.299  16.988  12.630 -0.1022  0.2246 -0.1669
22523W        W38417   0.861   7.759  13.457  0.1207 -0.2903 -0.2037
22524W        W38418   9.389  15.965  13.867 -0.0764  0.2061  0.0096
22525W        W38419  15.306   1.843  15.448  0.1072  0.1690  0.3236
22526W        W38420   3.103   1.258   2.215 -0.2374 -0.1290 -0.1137
22527W        W38421  12.572   7.187  13.544 -0.2821 -0.2257 -0.2109
22528W        W38422  16.274  12.092  12.922 -0.4461  0.0737 -0.1015
22529W        W38423   6.640  14.785   2.629 -0.0208  0.2618  0.2872
22530W        W38424  16.766   9.770  13.157 -0.0119 -0.0194  0.3577
22531W        W38425  16.714  15.081   2.055  0.0828  0.0108 -0.2222
22532W        W38426   4.549  15.730  15.319  0.1110  0.0085  0.1325
22533W        W38427   1.889  14.114  10.948 -0.0378 -0.1094  0.0724
22534W        W38428  18.250   7.921   2.217 -0.0184  0.3260 -0.0810
22535W        W38429   4.132  11.622   1.157 -0.0340  0.0792 -0.0638
22536W        W38430   2.614   6.376  12.221  0.0658 -0.1103 -0.1962
22537W        W38431   2.154   6.609   1.078 -0.2254 -0.0204 -0.1406
22538W        W38432   0.214   0.491  11.280 -0.1968  0.1228 -0.3562
22539W        W38433  15.074   9.477   1.414 -0.0208 -0.0375  0.0345
22540W        W38434  16.982  12.713  11.206 -0.1181  0.0346  0.0732
22541W        W38435   6.035   5.584   4.802  0.0323 -0.0626 -0.1232
22542W        W38436   3.148   7.899  14.862 -0.2871 -0.0893 -0.0739
22543W        W38437  14.337   0.606   4.926 -0.2505 -0.1017 -0.0485
22544W        W38438  17.632   3.897   2.716 -0.1779 -0.2359 -0.0337
22545W        W38439   5.930   0.086   1.245  0.0743 -0.0618 -0.1230
22546W        W38440   5.706  15.038   4.485 -0.1414  0.0335 -0.2108
22547W        W38441  12.478  13.764   1.807  0.0250 -0.0023 -0.2364
22548W        W38442  16.913  13.177  13.822 -0.2382  0.1063  0.1435
22549W        W38443  17.727   9.132   4.703  0.1053  0.0689  0.1483
22550W        W38444   2.428   4.722   5.722  0.2269 -0.0430 -0.1525
22551W        W38445  18.453   8.852  13.802 -0.0992 -0.2124 -0.0666
22552W        W38446  12.149  15.829  15.356  0.2600  0.1190 -0.1013
22553W        W38447   2.356   4.618   4.356  0.2057  0.0239 -0.0698
22554W        W38448  12.873   8.207   5.169 -0.1930  0.1576  0.0439
22555W        W38449   6.116  14.974  10.562 -0.0162 -0.1435 -0.0814
22556W        W38450  13.067   1.802  14.969  0.2936  0.2596 -0.0854
22557W        W38451  14.066   8.738   1.473  0.1926 -0.3056  0.0759
22558W        W38452  17.093   5.882   3.376 -0.2618  0.0150 -0.1369
22559W        W38453  16.594   7.275   3.753  0.0779 -0.2247  0.2081
22560W        W38454   2.418   5.182   2.454 -0.3637 -0.0014 -0.1843
22561W        W38455   0.782  16.420   4.223  0.1317  0.0055 -0.0351
22562W        W38456  14.747  14.553   5.283  0.0406 -0.2407 -0.0193
22563W        W38457   1.999   5.431  14.946  0.0234 -0.2131 -0.0291
22564W        W38458   9.942  16.392   4.477  0.1112  0.1765 -0.2848
22565W        W38459  11.631   0.263   2.124  0.1412 -0.0527  0.0647
22566W        W38460  11.449  15.583  12.638  0.0559 -0.0178 -0.1893
22567W        W38461  17.734   3.765   1.221  0.0453 -0.0400 -0.0110
22568W        W38462   4.023  16.164   9.925  0.1528 -0.0663  0.3330
22569W        W38463  10.378  10.887   1.651  0.3097 -0.0557 -0.1458
22570W        W38464  11.529  10.314  13.649  0.2038  0.1317  0.0522
22571W        W38465  13.966   4.071  13.945  0.0120  0.0328  0.5034
22572W        W38466   6.451   9.501  15.339  0.1979 -0.1387 -0.1557
22573W        W38467  12.332  15.861   2.503  0.0958 -0.3692  0.0704
22574W        W38468   9.145  15.368  11.963  0.2763  0.0471 -0.0092
22575W        W38469   4.963  14.627  15.575  0.2633 -0.0133 -0.2297
22576W        W38470   8.784   9.675  12.581 -0.3677  0.0824 -0.0444
22577W        W38471  17.392   1.920  13.702  0.1357 -0.0660  0.1499
22578W        W38472  11.516  13.964  14.415  0.1065 -0.0374 -0.1755
22579W        W38473   5.889  16.118  14.950  0.3037  0.2361  0.0492
22580W        W38474   0.912  12.713   1.377 -0.2752  0.1015  0.1162
22581W        W38475  18.163   3.148  14.189 -0.1099 -0.0728  0.2290
22582W        W38476  10.226   8.405  14.784 -0.1668 -0.1857  0.1909
22583W        W38477  12.300   6.156  11.398  0.1281 -0.1803 -0.0494
22584W        W38478  13.972  18.334   0.856 -0.3667 -0.0997  0.1470
22585W        W38479   2.641   2.068  14.099 -0.0090  0.3049  0.1128
22586W        W38480   1.585  17.013  15.511  0.1231 -0.0743 -0.4325
22587W        W38481   8.475   6.445  13.210  0.1649  0.0861  0.1445
22588W        W38482  12.662   2.241  13.219  0.1090 -0.0399 -0.2248
22589W        W38483   7.689  11.906  12.564  0.0380  0.3029  0.0492
22590W        W38484   7.315  16.157  14.744  0.2923  0.1189  0.2576
22591W        W38485  16.587   2.075  10.880 -0.1484  0.0909 -0.0605
22592W        W38486   8.407   8.914  14.422 -0.2520  0.0236  0.0896
22593W        W38487  11.505   0.939  11.736 -0.4466 -0.2134 -0.0522
22594W        W38488   2.263  12.941  13.298 -0.1244  0.0542  0.3284
22595W        W38489   0.049  16.185  11.107  0.1198  0.0766  0.0724
22596W        W38490  14.971   5.317   0.906 -0.1113 -0.4264 -0.3235
22597W        W38491   1.747   2.209   3.165  0.0025  0.2426 -0.1152
22598W        W38492   8.151   4.525  15.613  0.2053  0.0583 -0.0008
22599W        W38493  11.676  15.409  13.269  0.2425  0.3585  0.0201
22600W        W38494  15.794   6.365   2.855 -0.0010  0.0611 -0.0943
22601W        W38495  17.841  18.166   2.012 -0.0345  0.1223 -0.4927
22602W        W38496   6.821   8.258   2.501 -0.2659  0.2172  0.2298
22603W        W38497  14.153   9.924   3.525  0.1285  0.3372  0.0533
22604W        W38498   0.609   0.872  14.950  0.1031  0.0120 -0.2338
22605W        W38499   4.558   5.504  14.939 -0.2491  0.0716 -0.0598
22606W        W38500  16.002   0.863  12.911  0.0976  0.2872  0.2297
22607W        W38501   3.869  16.743   1.990 -0.0751 -0.0476  0.0443
22608W        W38502  16.453  16.770   0.895  0.1155  0.0892  0.3406
22609W        W38503  15.093  15.403  15.624 -0.0809  0.1230  0.0635
22610W        W38504   5.984   1.351   0.718  0.0948 -0.1456 -0.0467
22611W        W38505   5.983  17.496  12.631 -0.0610 -0.1338 -0.2417
22612W        W38506   6.538  16.910   3.254  0.0225  0.0996  0.1533
22613W        W38507  17.855  11.431   4.926 -0.3045 -0.1402 -0.0155
22614W        W38508   7.040   6.074   2.709  0.0016 -0.0402  0.0948
22615W        W38509  15.596   7.374   4.691  0.0912  0.1627  0.2534
22616W        W38510  16.038  17.051   3.121 -0.1342  0.2042 -0.1801
22617W        W38511  14.571  13.210   0.334  0.2922  0.0060 -0.3318
22618W        W38512  14.650   5.831   4.834  0.2161  0.2412  0.2512
22619W        W38513  16.219  10.567  12.355 -0.2200 -0.2003  0.0042
22620W        W38514   0.277  13.248  11.861  0.1338  0.0998  0.0484
22621W        W38515  13.838  17.261   2.668  0.2152 -0.1653  0.1038
22622W        W38516   9.241   6.982   3.174 -0.2000 -0.1361 -0.1205
22623W        W38517  11.479  14.150  12.578 -0.0463 -0.0702 -0.2776
22624W        W38518  12.735   5.209  15.574 -0.0376  0.1476  0.1082
22625W        W38519  13.521   7.762   3.017 -0.0137  0.2669  0.2593
22626W        W38520   1.046   7.202  15.341  0.0040  0.1184 -0.3108
22627W        W38521   9.883   1.478  14.822  0.2388  0.0150 -0.0537
22628W        W38522   2.501  11.821  12.836 -0.0504  0.0654  0.2228
22629W        W38523  16.333  15.975  14.027 -0.2225 -0.3037 -0.2274
22630W        W38524   6.389  14.256   5.012 -0.2534 -0.2044 -0.2745
22631W        W38525  15.100   2.038   1.374  0.1069  0.0706  0.0334
22632W        W38526   0.104   7.910  11.515 -0.1937 -0.1724  0.0399
22633W        W38527   3.185  11.384   4.830  0.1406 -0.2461  0.2588
22634W        W38528   5.819  16.255  11.412  0.1186  0.0773 -0.1522
22635W        W38529   4.138   2.428  13.183 -0.0369 -0.0213 -0.0080
22636W        W38530  17.766   4.592   3.548  0.0730  0.0802  0.1088
22637W        W38531   7.004  16.548  12.834 -0.0862 -0.0047  0.1344
22638W        W38532   3.632   2.257  14.489  0.0108  0.3321  0.3140
22639W        W38533  18.021  13.055   2.944 -0.3627  0.0355  0.1348
22640W        W38534   8.094   8.173  11.493  0.4394 -0.1190  0.0275
22641W        W38535   1.692  16.197   5.136  0.0450 -0.1179 -0.1669
22642W        W38536   7.859   9.477   3.663  0.4078 -0.0245 -0.1999
22643W        W38537  10.030   8.124  11.686 -0.1559 -0.0755 -0.1285
22644W        W38538   1.814   9.935  11.513  0.2058  0.3233  0.1500
22645W        W38539   9.087   8.038  15.538 -0.1078  0.1322 -0.0000
22646W        W38540   2.516  13.036   1.523 -0.1409 -0.0317 -0.2372
22647W        W38541   3.956   3.193   4.256  0.4217 -0.1050 -0.3178
22648W        W38542  10.083  13.804  11.931 -0.2645  0.0227  0.1394
22649W        W38543  18.671  14.416   0.540  0.1556 -0.1808 -0.0425
22650W        W38544  11.919  10.988  15.598  0.1174 -0.1686 -0.1576
22651W        W38545   2.839   5.128   4.386 -0.1763 -0.1877  0.1144
22652W        W38546  12.843   2.815   1.383 -0.1364  0.0359  0.0123
22653W        W38547   2.267  17.511   5.053  0.2958 -0.0147 -0.0063
22654W        W38548   8.826   2.110  15.240  0.0074 -0.0273 -0.2042
22655W        W38549  17.721  10.781  13.401  0.1042 -0.0892 -0.0722
22656W        W38550   4.236   0.885  14.913  0.2080  0.0887  0.1484
22657W        W38551  11.502  12.567  10.894  0.1951  0.0406  0.1944
22658W        W38552   2.098   1.595   0.412  0.1952  0.1214 -0.2070
22659W        W38553   0.478   7.869  13.778 -0.0779  0.0959 -0.0071
22660W        W38554   8.019   1.806   2.898  0.1624 -0.3873  0.0396
22661W        W38555  17.437  12.896  11.168 -0.2099 -0.2846  0.1875
22662W        W38556   4.898   0.995   3.621  0.3376 -0.1173 -0.3646
22663W        W38557   3.554   7.280   1.194 -0.1971  0.3748  0.0008
22664W        W38558  11.811   0.770  15.278  0.1418 -0.1122 -0.0013
22665W        W38559  15.925   6.406  13.521 -0.1277 -0.1039  0.3196
22666W        W38560   0.094   4.030   5.668  0.0340  0.3233  0.0295
22667W        W38561  10.430   1.018   1.792  0.0459  0.2950 -0.1348
22668W        W38562   5.428   5.980   0.499 -0.1102 -0.0010  0.0083
22669W        W38563   2.850   8.622  12.873 -0.0062  0.1321  0.4443
22670W        W38564  11.036   3.559   1.056  0.0101 -0.1643 -0.0798
22671W        W38565   7.530   3.113   4.612  0.3440 -0.1344  0.0012
22672W        W38566   5.991  17.926   2.881  0.0701 -0.1074  0.1336
22673W        W38567  10.182   3.223  13.232  0.3697  0.2865  0.0889
22674W        W38568  15.907   6.850  11.308  0.0513 -0.1385  0.0165
22675W        W38569   0.449   8.958   2.155  0.0057 -0.3647 -0.1068
22676W        W38570  13.778   7.036   2.414 -0.0983  0.1159 -0.2149
22677W        W38571   9.817   9.129  12.362  0.0841  0.1301  0.1586
22678W        W38572  14.620  10.162   3.709 -0.2571 -0.0295  0.2844
22679W        W38573  16.153  15.667  13.207  0.3167  0.1225 -0.0398
22680W        W38574   5.849   8.636  13.687 -0.0065 -0.0058 -0.0045
22681W        W38575  12.095  15.699  14.453 -0.1826 -0.0364 -0.0849
22682W        W38576   1.847   5.460  11.209  0.2296 -0.2552  0.3562
22683W        W38577   5.769  13.054  13.141  0.1654 -0.2356 -0.0454
22684W        W38578   4.430  10.668   1.235 -0.3227  0.1605 -0.0613
22685W        W38579   5.034   9.840   1.460  0.0721 -0.1083 -0.1201
22686W        W38580  15.085  12.447  14.728 -0.2176 -0.0128  0.2047
22687W        W38581   8.595  17.670  12.890  0.3983 -0.4012  0.0371
22688W        W38582  15.777   8.273   1.425 -0.0426  0.2996 -0.2548
22689W        W38583   6.543   0.880  11.329  0.1596  0.0206 -0.2259
22690W        W38584   5.992  12.535   3.248 -0.2266 -0.2952 -0.0605
22691W        W38585   7.414   8.548   4.336 -0.2934  0.3293 -0.1355
22692W        W38586   2.467   9.913  12.420  0.3805  0.1627  0.2394
22693W        W38587  10.547  10.785   0.894  0.2477  0.2467  0.3690
22694W        W38588   7.196  16.256   3.411  0.0819 -0.1407  0.1099
22695W        W38589   1.872   4.171  11.117 -0.1471  0.2378 -0.1666
22696W        W38590  13.238   8.399   2.425  0.2065  0.0700  0.0999
22697W        W38591  17.902  13.394   1.835 -0.0083 -0.1165  0.2417
22698W        W38592   0.603  10.942   4.208  0.2242  0.2301 -0.0342
22699W        W38593  18.338  12.224  11.056 -0.1983  0.1439 -0.0844
22700W        W38594  12.669  17.447   3.154 -0.2879  0.1040  0.1093
22701W        W38595  15.459   6.993   4.371  0.0465  0.1950  0.1624
22702W        W38596   7.601  16.749   5.642 -0.1444 -0.2096  0.2862
22703W        W38597   7.174  16.132   1.849  0.2948 -0.1597 -0.2536
22704W        W38598   9.737   1.476   1.438 -0.3790  0.2006  0.1077
22705W        W38599   0.947   4.743   0.806 -0.1751 -0.3160  0.0466
22706W        W38600  12.081  11.887   3.506 -0.2880 -0.0048 -0.4509
22707W        W38601  14.692  12.375   4.104  0.2831 -0.0130  0.4372
22708W        W38602  17.441  15.529  13.329 -0.0725 -0.2141  0.0689
22709W        W38603   2.096   8.762  15.205  0.1150 -0.2458 -0.1959
22710W        W38604  11.509   5.991  13.562 -0.0218  0.1068 -0.3239
22711W        W38605   2.713   7.940  11.737 -0.0070 -0.2543 -0.0831
22712W        W38606   3.321   9.074   4.175 -0.1730  0.2044  0.0120
22713W        W38607   9.365   7.336  14.184 -0.0713  0.3881 -0.0413
22714W        W38608  12.937   2.658  12.851 -0.1562  0.1676 -0.1205
22715W        W38609  16.711   7.866   3.806  0.2407  0.2671 -0.1799
22716W        W38610  12.318   0.924   2.054  0.0196  0.0084  0.0027
22717W        W38611   8.920  16.733   1.765 -0.0064 -0.1107  0.1911
22718W        W38612  13.631  14.708  11.279  0.0537 -0.0199 -0.1802
22719W        W38613   8.807   7.189   2.966 -0.1182  0.0387 -0.0835
22720W        W38614  16.649  14.571  15.016 -0.3759  0.2198 -0.0853
22721W        W38615  14.011  13.976   0.371 -0.3425  0.0520  0.1138
22722W        W38616  15.177   9.430   4.310 -0.2288  0.1609 -0.0526
22723W        W38617   5.823  17.735  10.892  0.1831  0.1294 -0.2233
22724W        W38618   5.099   9.095   0.960  0.1076 -0.0898  0.1868
22725W        W38619   8.282   7.841  14.873 -0.0067  0.0814  0.0149
22726W        W38620   4.481  15.768  13.234  0.0811 -0.2344  0.2556
22727W        W38621  17.432  17.535   2.558  0.1473  0.0056 -0.2702
22728W        W38622   7.251  12.050   1.943 -0.0277 -0.1759  0.0374
22729W        W38623   3.311  18.092  13.491  0.0712  0.2831 -0.0627
22730W        W38624   4.829   6.024  11.569  0.0449 -0.1067 -0.1088
22731W        W38625  10.570  11.631   2.731  0.1376  0.1616  0.1967
22732W        W38626   0.968   0.211   5.326  0.0600 -0.0505  0.2815
22733W        W38627   5.642  12.897   3.288 -0.0091  0.1351  0.3309
22734W        W38628  12.970   2.189   2.054  0.0082  0.2144 -0.1567
22735W        W38629   8.420   3.526  12.842  0.1853 -0.0944  0.0138
22736W        W38630   6.519   0.621  15.615  0.4171  0.1384  0.1048
22737W        W38631   7.653   6.739  13.166  0.0579  0.1700 -0.0498
22738W        W38632   8.001   6.899   1.362  0.5053 -0.1475 -0.1055
22739W        W38633  12.770   5.783   0.117  0.2729 -0.3706 -0.0247
22740W        W38634   8.929   7.331   4.752 -0.4180 -0.0569 -0.0218
22741W        W38635   6.411   9.615   4.826  0.1823 -0.1650 -0.2943
22742W        W38636   8.772   0.206  15.504 -0.1030  0.1912 -0.0741
22743W        W38637  15.157  15.820  14.764 -0.2408 -0.2751 -0.1922
22744W        W38638   3.808  16.687  14.816 -0.2562 -0.0710  0.1977
22745W        W38639   6.843   1.673  14.744 -0.0974  0.3288  0.2123
22746W        W38640  13.893   3.190  14.120 -0.0358 -0.0497 -0.4132
22747W        W38641   4.799  13.398   4.764 -0.0076  0.1460  0.2164
22748W        W38642  13.710  12.166   2.791 -0.0081 -0.0664 -0.3688
22749W        W38643   7.729   1.022   1.142 -0.3967  0.4080  0.3941
22750W        W38644  15.721   4.177   1.762  0.3064 -0.0397  0.1331
22751W        W38645  18.386  10.173  11.299  0.1023 -0.0502 -0.1253
22752W        W38646  15.328  13.601   1.912 -0.0534 -0.0602 -0.1856
22753W        W38647   4.786   5.847   3.361  0.0946  0.1398 -0.2938
22754W        W38648  15.725  10.516   0.734 -0.1028 -0.0164 -0.2989
22755W        W38649  10.776  16.935   3.990 -0.0035  0.0211 -0.2543
22756W        W38650   9.111  13.509   4.739 -0.1725  0.0272  0.1495
22757W        W38651   1.853  15.458   0.245  0.0041 -0.1254 -0.1048
22758W        W38652   0.461   8.117   3.963 -0.3797  0.2400  0.1674
22759W        W38653   4.913  18.569  13.297 -0.1428  0.1483  0.1845
22760W        W38654   0.772   3.475   3.603 -0.0353 -0.0374  0.1866
22761W        W38655   2.699  12.315   4.221 -0.1327  0.4355 -0.1004
22762W        W38656  15.986   2.982  10.698  0.2187 -0.0041 -0.1554
22763W        W38657   0.557   4.730   3.690 -0.0011 -0.1612 -0.3469
22764W        W38658   7.064   7.905  11.983  0.2765  0.3582 -0.0865
22765W        W38659   2.475   7.146  12.971  0.0047  0.3719 -0.1875
22766W        W38660  13.652  12.145   1.434 -0.2271  0.3080 -0.1901
22767W        W38661   2.813   3.472   2.729 -0.0919 -0.0246  0.1326
22768W        W38662  10.454  16.314   2.801 -0.1184 -0.1415  0.0339
22769W        W38663  11.804  16.739  12.089  0.1168  0.0677  0.2730
22770W        W38664   7.794  18.698   2.726  0.2802 -0.1940  0.2027
22771W        W38665   1.596   3.717   2.876 -0.1094 -0.0516  0.0103
22772W        W38666  18.260  10.876   0.591 -0.0657  0.0692 -0.1005
22773W        W38667  13.914   2.672  12.524  0.2767 -0.1545  0.0061
22774W        W38668   1.684   2.784  11.390 -0.0291  0.0061  0.3397
22775W        W38669  13.806   7.694   0.348 -0.2422  0.1663 -0.2482
22776W        W38670   3.245  16.435  11.644 -0.1197 -0.2338 -0.1018
22777W        W38671   9.865   9.185  13.298 -0.0360 -0.2108  0.0379
22778W        W38672   6.530   3.182   2.046  0.2133 -0.1840 -0.1025
22779W        W38673  13.966  12.434   4.943  0.2980  0.1375  0.2911
22780W        W38674   9.062   0.267  13.866  0.1509 -0.2456 -0.5473
22781W        W38675   2.776   3.384   3.699  0.2016  0.4459 -0.0467
22782W        W38676  14.203   3.939   4.970 -0.2683  0.2092 -0.4005
22783W        W38677  10.090   3.750  14.214 -0.0000 -0.2383 -0.1429
22784W        W38678   7.205  16.186   0.920 -0.1433  0.1538 -0.1061
22785W        W38679   0.035  12.498   0.476 -0.0809 -0.1966 -0.0518
22786W        W38680   4.638   7.972  10.490 -0.1268  0.0946 -0.0644
22787W        W38681   8.890  17.804  14.952 -0.1335 -0.2225  0.1041
22788W        W38682   5.008  14.715  12.756 -0.1956 -0.2241  0.1736
22789W        W38683   2.698   9.403   2.872 -0.0744  0.1751 -0.0738
22790W        W38684   2.623   7.984  15.097  0.0961  0.0476  0.2173
22791W        W38685  14.375  11.751   4.864 -0.0427  0.3180 -0.2774
22792W        W38686  18.220  14.780   1.610 -0.0524  0.0938 -0.1738
22793W        W38687   4.037  12.966  13.752  0.0083 -0.0276 -0.0067
22794W        W38688  12.470   4.727  15.110  0.1091  0.0132  0.1910
22795W        W38689   0.016  10.775   3.686 -0.0547 -0.0695  0.0006
22796W        W38690  17.563  18.063  15.313 -0.0616  0.1642  0.1438
22797W        W38691   3.273   9.975   0.872 -0.3345  0.2173 -0.1664
22798W        W38692  15.108  16.802   5.461  0.0541 -0.2531  0.1603
22799W        W38693   8.187   4.647   0.526  0.1940 -0.1106  0.2103
22800W        W38694   7.337   9.209  12.906  0.0463 -0.1800 -0.1206
22801W        W38695   4.568  17.600   1.190  0.1474  0.1897 -0.3093
22802W        W38696  13.755  18.022  14.330 -0.0314 -0.0490  0.1479
22803W        W38697  17.205   0.693  15.226 -0.1826  0.3044 -0.0749
22804W        W38698  16.316  16.398   4.326 -0.3547  0.1729 -0.0355
22805W        W38699   4.323  16.832  14.821  0.0546  0.1619  0.1126
22806W        W38700   7.419  13.135   1.280  0.0890 -0.0157  0.3713
22807W        W38701  10.474   6.635   4.221 -0.1039 -0.1057 -0.0486
22808W        W38702   6.743   1.042  10.880 -0.1067 -0.0644  0.1757
22809W        W38703   7.556  13.514   3.031 -0.0410 -0.1436  0.0260
22810W        W38704   4.740   1.052   1.505  0.0505 -0.0556 -0.0535
22811W        W38705   6.712  18.498  11.698  0.0460 -0.1523 -0.0960
22812W        W38706   8.405   0.690   4.048 -0.2630  0.1972  0.0965
22813W        W38707   2.636   9.237   1.966  0.0036 -0.1965 -0.2798
22814W        W38708  17.493   5.380  13.003  0.1829 -0.0913 -0.0570
22815W        W38709  13.211  13.015   3.262  0.2556 -0.3038  0.0987
22816W        W38710  15.985   1.395   4.269 -0.3989  0.1080  0.0901
22817W        W38711  14.213  17.448   2.477  0.1056  0.0377  0.0800
22818W        W38712   2.646   1.785   2.872  0.0999  0.2535 -0.0167
22819W        W38713   9.019   1.434  12.011  0.1578  0.0727 -0.5328
22820W        W38714  15.661   7.329   3.725  0.1772  0.0662 -0.0899
22821W        W38715   1.130  12.502  12.408 -0.0355 -0.0808  0.0464
22822W        W38716   9.308  18.589  11.952  0.0425  0.2223  0.2964
22823W        W38717   6.212   7.877   1.581 -0.0892 -0.1858  0.2807
22824W        W38718   9.503  13.280  12.154 -0.2656 -0.2940  0.1369
22825W        W38719   1.821  17.615  12.152  0.0454  0.2527  0.2663
22826W        W38720   7.746   6.567   1.095  0.1285 -0.0949 -0.0472
22827W        W38721   7.642  13.155  10.993 -0.3043  0.1439  0.0074
22828W        W38722  13.307  13.347  13.826  0.2231 -0.4373  0.1640
22829W        W38723  11.485   0.800  12.181  0.0745 -0.0097 -0.1872
22830W        W38724   7.145  15.889   4.611  0.2148  0.3270 -0.0022
22831W        W38725  10.341   2.255  13.575  0.2492  0.1995  0.0357
22832W        W38726   8.148   7.055   2.239  0.1048 -0.1188 -0.1002
22833W        W38727   6.846   7.338  12.953  0.1119 -0.1197 -0.4188
22834W        W38728  12.866  18.463   5.133  0.2706  0.1604 -0.1174
22835W        W38729   1.463  18.240   0.762  0.0330 -0.0825  0.0458
22836W        W38730   2.410  16.469  11.094 -0.0503 -0.0568  0.0748
22837W        W38731   3.393   0.571  14.673  0.0902  0.1778  0.0984
22838W        W38732   0.417   7.250   9.888 -0.1161  0.0395 -0.0350
22839W        W38733   7.456  11.933   3.989 -0.1133 -0.1310  0.0585
22840W        W38734  13.940  15.674  11.708 -0.0824 -0.3062 -0.5416
22841W        W38735   9.337  13.147  13.021 -0.1502 -0.1354 -0.0949
22842W        W38736   4.901  12.576  13.605  0.1214  0.0552  0.1432
22843W        W38737  18.590   8.651   3.452 -0.2255  0.2054 -0.1889
22844W        W38738   0.093   8.400   1.292 -0.1718 -0.3964 -0.0931
22845W        W38739   4.528   5.151   2.694 -0.1695  0.5285 -0.3057
22846W        W38740  13.270   7.845  12.809 -0.2950  0.0829 -0.1213
22847W        W38741   3.214  16.737   5.044 -0.1696  0.5047  0.0825
22848W        W38742  16.832   4.714  10.588 -0.0353 -0.4480 -0.0136
22849W        W38743   6.631   5.861   2.569 -0.1572  0.1013  0.1317
22850W        W38744   8.328   6.645   6.107 -0.0140 -0.0775 -0.1442
22851W        W38745   6.351  16.475   4.990 -0.0550 -0.0452  0.1435
22852W        W38746   8.102   9.353  12.055  0.4157 -0.0438  0.0073
22853W        W38747   7.803  15.879   1.827 -0.0642 -0.2183  0.0717
22854W        W38748  15.918   1.383   1.526 -0.0600  0.2183 -0.1083
22855W        W38749   9.880   7.735   3.080  0.0965 -0.1825  0.0539
22856W        W38750  14.052  15.362   2.514  0.0109  0.0116  0.1098
22857W        W38751   0.735  14.531   2.467  0.1315  0.0354  0.2429
22858W        W38752   9.450   8.302   2.424  0.0847 -0.0360  0.1336
22859W        W38753  13.267   9.251  12.092  0.2235 -0.0519 -0.0649
22860W        W38754  18.683   4.179  12.132  0.0552 -0.0608 -0.0892
22861W        W38755   6.911  13.687   2.355  0.2403 -0.1198 -0.0002
22862W        W38756  15.534  12.820   1.632  0.0624  0.2982 -0.0592
22863W        W38757  16.284   3.710   4.714  0.0950  0.1645 -0.2795
22864W        W38758  13.194  13.106  14.234 -0.0211  0.0480 -0.2324
22865W        W38759  12.141  11.858  13.558  0.3204 -0.1756  0.0012
22866W        W38760   0.299   4.647  10.568  0.2168  0.2723  0.1638
22867W        W38761   7.490   9.337   5.333 -0.3221  0.0073  0.3524
22868W        W38762  10.841   3.275   2.533  0.1690 -0.1964 -0.2319
22869W        W38763  17.709   2.599   4.001  0.2162  0.1989 -0.1525
22870W        W38764   5.627  17.338   2.172  0.0372  0.1007 -0.1239
22871W        W38765  13.283  18.476  14.272 -0.2509 -0.0736 -0.0673
22872W        W38766   7.844  15.335  11.177 -0.0202 -0.2496  0.1139
22873W        W38767   4.149   5.120   1.230  0.0241 -0.1325  0.2806
22874W        W38768   0.563   8.244  14.158  0.2467  0.0745  0.1732
22875W        W38769  11.794   4.166  12.758 -0.0895 -0.1200  0.2028
22876W        W38770   2.858   1.115   3.945  0.1760 -0.1113  0.3103
22877W        W38771   3.776   6.606  12.967  0.1854 -0.0866 -0.1152
22878W        W38772   2.930  16.090   3.179  0.0160  0.0707 -0.2186
22879W        W38773  13.699   7.780  12.408  0.0257 -0.1409 -0.1412
22880W        W38774   7.188   9.666  10.981  0.2726  0.2181 -0.0465
22881W        W38775  10.310  14.873   6.293  0.1665  0.1360 -0.2062
22882W        W38776   1.470   0.200   1.451 -0.1942  0.0482 -0.0189
22883W        W38777   6.855   4.437  12.386 -0.3668 -0.0428  0.2083
22884W        W38778  16.655   9.577   1.694  0.1653  0.0366  0.2226
22885W        W38779   6.777   4.857   2.220  0.5677  0.0444  0.2495
22886W        W38780  16.023  10.851  13.446 -0.4880  0.0327  0.1056
22887W        W38781   5.515   2.169   3.336 -0.0265 -0.1300  0.2877
22888W        W38782   8.987   6.352   5.179  0.0079  0.2242 -0.1904
22889W        W38783   1.894  12.517   4.530 -0.1725  0.0876 -0.1706
22890W        W38784   3.867  16.395   3.393  0.0235  0.2637  0.0039
22891W        W38785  11.070  11.129   4.448  0.2946  0.2056  0.2436
22892W        W38786  10.452   7.488  11.956  0.4296 -0.6507  0.0129
22893W        W38787  15.241   9.568   3.550 -0.4197  0.0642 -0.0351
22894W        W38788   5.041  13.600  12.040 -0.1292  0.1975 -0.1227
22895W        W38789  16.906   1.980  13.913  0.1573 -0.4070  0.0853
22896W        W38790  16.901   8.648   3.077  0.3927 -0.0282 -0.0546
22897W        W38791  17.565   1.487  15.175 -0.1000 -0.1653  0.1448
22898W        W38792  12.600   6.385   3.507  0.0376 -0.0169 -0.0143
22899W        W38793  10.570   4.969   0.904  0.1991  0.0430 -0.3170
22900W        W38794   8.043  11.205   4.804 -0.0333 -0.2526 -0.0411
22901W        W38795  13.213   9.766  11.042 -0.0547 -0.0800 -0.0267
22902W        W38796  10.961  16.492  10.800  0.1536  0.2123 -0.0988
22903W        W38797   8.972  15.047  10.962 -0.1119  0.0427 -0.0479
22904W        W38798   5.151   7.232  13.314 -0.2819  0.1220  0.0619
22905W        W38799   1.307  17.697   2.504 -0.0319  0.1760 -0.3171
22906W        W38800   6.277  12.876   0.433 -0.1207  0.1576  0.0863
22907W        W38801  11.589  14.874  12.711 -0.1701 -0.5761 -0.0751
22908W        W38802   4.715   2.852   2.745 -0.3185  0.0416  0.1698
22909W        W38803  10.501   5.173  15.140 -0.0297 -0.0303 -0.3732
22910W        W38804   7.188  12.556   1.589 -0.1597 -0.0370 -0.1097
22911W        W38805   1.034  17.686   3.334 -0.3569  0.1137  0.0710
22912W        W38806  12.161  10.063  12.787 -0.2439 -0.0204  0.0679
22913W        W38807  16.994   0.751  13.186  0.0899 -0.1841  0.3210
22914W        W38808   5.304   9.738   3.418  0.1063  0.1443  0.0065
22915W        W38809   4.100  16.558   2.560 -0.0005 -0.5612  0.2899
22916W        W38810   2.103   2.791  13.060 -0.0121 -0.1024  0.0131
22917W        W38811   0.161   7.260   2.872  0.2208  0.2722  0.1308
22918W        W38812   0.457   7.793   1.227 -0.0635 -0.0649 -0.0800
22919W        W38813   7.125   8.309  14.772 -0.2261  0.1296  0.2422
22920W        W38814   9.009  14.201  13.093  0.1405  0.0575  0.1718
22921W        W38815  18.173  13.062  14.621 -0.1791 -0.0965  0.1128
22922W        W38816  18.458   2.859  10.975 -0.1140 -0.0010 -0.0012
22923W        W38817   4.745   7.361   4.610 -0.0681  0.0978 -0.2190
22924W        W38818   1.505   6.918   5.475  0.1299 -0.0395  0.1300
22925W        W38819   1.328  18.596  14.596  0.1305  0.3916 -0.1148
22926W        W38820  12.760  14.533  14.045  0.1087  0.1804  0.3756
22927W        W38821  14.990   7.821  14.096 -0.0475  0.0105  0.1324
22928W        W38822  11.782   4.726  13.879  0.1275 -0.0197 -0.2008
22929W        W38823   2.022   9.658   2.279  0.0027 -0.0698  0.2438
22930W        W38824  18.617   1.675   4.895 -0.0302 -0.0690  0.1682
22931W        W38825  17.241  17.969   4.193 -0.4857  0.1263 -0.1944
22932W        W38826  12.586   9.831  14.707 -0.1729  0.0868  0.1016
22933W        W38827   0.456   9.515   2.326 -0.0302 -0.3639  0.1251
22934W        W38828  17.955   2.067  12.882 -0.0216 -0.3213 -0.3049
22935W        W38829   8.943   2.702  13.005 -0.0039 -0.1013 -0.0548
22936W        W38830   7.662  11.174   4.515  0.1788 -0.1848 -0.0796
22937W        W38831   6.619  15.171   3.384 -0.3592 -0.2057 -0.4102
22938W        W38832   9.548  17.944  13.262  0.0863  0.0994  0.3153
22939W        W38833  10.878  11.810  14.596 -0.2461  0.1067  0.2099
22940W        W38834   6.632  12.714   0.798 -0.0068  0.1016 -0.0853
22941W        W38835  10.377   9.585  11.549  0.2697 -0.0807  0.4007
22942W        W38836   4.474  17.893   4.373 -0.1795  0.4516  0.2206
22943W        W38837  16.795   4.290   3.474  0.0995  0.1313  0.0638
22944W        W38838   2.635  16.812  10.745  0.1705 -0.0927  0.2113
22945W        W38839   2.329  17.188   5.482 -0.6926  0.3590  0.0167
22946W        W38840   1.645   6.188   3.225  0.0520  0.1576  0.0711
22947W        W38841   5.866  11.859  12.837  0.0914  0.2162 -0.0962
22948W        W38842   7.417  13.525  15.168 -0.0290  0.0284  0.0765
22949W        W38843  11.913   8.395   4.143  0.0731  0.1326 -0.0926
22950W        W38844   6.232  12.162  13.415  0.0195 -0.1021 -0.0343
22951W        W38845  15.832   6.689   1.740  0.3538  0.1134  0.2246
22952W        W38846  17.831   3.183   1.552 -0.0743 -0.1329 -0.0622
22953W        W38847   2.945  14.954   3.756  0.1901 -0.0933  0.1831
22954W        W38848   7.353  16.567  13.556  0.1510 -0.1601  0.0757
22955W        W38849   5.055   6.853  11.396  0.0613  0.0718 -0.2288
22956W        W38850   3.738  15.983  14.410  0.0596  0.1114  0.0026
22957W        W38851   8.143  14.520  14.329  0.1903  0.1417  0.1488
22958W        W38852  12.820  12.031   2.701  0.0635  0.0257  0.0566
22959W        W38853   2.253  17.313   3.257 -0.3202  0.0986  0.0659
22960W        W38854   8.121   1.525  15.397 -0.3929 -0.1608 -0.0205
22961W        W38855   5.044   2.372  13.567  0.2793  0.0470  0.0323
22962W        W38856   5.164  16.373  13.681  0.2225 -0.0392  0.0729
22963W        W38857  15.016   2.167  10.852 -0.2115 -0.1173  0.0710
22964W        W38858   0.373   7.225  15.010  0.1817  0.2954  0.1923
22965W        W38859   9.886  18.294   5.565  0.0802 -0.0111 -0.0337
22966W        W38860   1.554  16.570  14.757  0.1926 -0.0753 -0.0079
22967W        W38861   8.336  12.781   2.879  0.4213  0.3951  0.2395
22968W        W38862   7.685  10.307   1.653 -0.1303 -0.0697 -0.1633
22969W        W38863   4.733   5.549   5.311  0.1970  0.0508 -0.1138
22970W        W38864   2.186  10.560   3.412 -0.0980 -0.2024 -0.2302
22971W        W38865   1.419  13.406  11.046  0.0611 -0.0409 -0.0630
22972W        W38866   9.509   2.831  14.522 -0.0113  0.0010  0.3590
22973W        W38867  16.254  13.417  13.021 -0.2806  0.2690  0.1859
22974W        W38868   3.950  12.999  11.501  0.3566 -0.0210  0.3652
22975W        W38869  14.528   6.763  12.328  0.2159  0.0939  0.0554
22976W        W38870  15.833  18.205   3.999  0.0263 -0.1045 -0.0300
22977W        W38871   6.826  14.440  12.909 -0.0334 -0.0830 -0.1695
22978W        W38872  13.265   7.033   2.519 -0.3426  0.1347 -0.1119
22979W        W38873  12.659   7.928   3.579  0.0910 -0.2721  0.3370
22980W        W38874   2.771   3.719   1.726  0.3952  0.0853 -0.1559
22981W        W38875   6.475   2.256  13.576  0.1381  0.0674  0.0429
22982W        W38876  16.275  16.069  11.066 -0.1169  0.0212 -0.0568
22983W        W38877   2.992  12.146   2.924 -0.0958  0.2777  0.0777
22984W        W38878   5.299   1.814   1.609  0.1619 -0.1496  0.2892
22985W        W38879   9.671  13.021   5.140  0.2615  0.1908  0.1453
22986W        W38880   6.125  10.013   2.628  0.0280  0.1724  0.5249
22987W        W38881   1.575  14.601   1.177 -0.2013  0.1160  0.2780
22988W        W38882  17.092   1.780   5.901 -0.0888  0.1831  0.4205
22989W        W38883   6.255   7.574   5.496 -0.1231  0.0329  0.0697
22990W        W38884  12.636   7.836   4.826 -0.3698 -0.0188  0.0023
22991W        W38885   5.903   6.623   1.208  0.1127 -0.0515 -0.0329
22992W        W38886  10.322   4.799  13.332 -0.0401  0.0313 -0.1321
22993W        W38887  13.579  11.564  12.769  0.0035  0.0683  0.2656
22994W        W38888  10.571  10.843  12.653 -0.1673 -0.0232  0.2166
22995W        W38889  16.596   3.955  10.887  0.3787  0.0932  0.0047
22996W        W38890  11.475   3.752  13.606 -0.2820  0.0045  0.0467
22997W        W38891  10.078  16.606   3.707  0.0255  0.0613  0.1048
22998W        W38892   6.853   6.393   0.132  0.2754 -0.0013  0.0429
22999W        W38893   6.874   6.136   5.070 -0.1896  0.0930  0.0713
23000W        W38894  12.089  16.082   5.383  0.0215  0.1981  0.1909
23001W        W38895   5.123  17.521  11.077  0.2577 -0.0446 -0.1217
23002W        W38896  17.874   7.751   3.885 -0.3156 -0.0986 -0.0126
23003W        W38897   8.558   8.472   4.582  0.0543 -0.5163  0.2227
23004W        W38898  10.945  15.091   1.825 -0.0756 -0.1593 -0.0628
23005W        W38899   7.496  18.255   4.689 -0.1885 -0.1698 -0.3274
23006W        W38900  15.185  16.167  11.193  0.2112 -0.0264  0.1096
23007W        W38901  14.683  12.122   2.134 -0.0699  0.1330  0.1137
23008W        W38902   0.942   2.727   3.115  0.1891 -0.1342 -0.2848
23009W        W38903  12.152   3.430   5.324 -0.3982  0.0150 -0.0316
23010W        W38904   3.361   6.656  14.001 -0.2755  0.0329  0.2580
23011W        W38905  10.739  15.406  10.972 -0.2003 -0.1558  0.3172
23012W        W38906   7.569  15.055   3.459 -0.2988 -0.2733 -0.0108
23013W        W38907   5.838   6.117   1.541 -0.1207 -0.1143  0.2563
23014W        W38908   2.751  12.213  14.004  0.3760 -0.2702 -0.0602
23015W        W38909   0.630   9.986  12.148 -0.1953  0.1551  0.0571
23016W        W38910  13.198  11.652   4.053  0.1161  0.1200 -0.0152
23017W        W38911   2.466   2.120   1.042  0.1397  0.3786 -0.1263
23018W        W38912   5.376  11.067  14.012  0.2065  0.1199  0.2181
23019W        W38913   0.337  14.353   3.912 -0.0122  0.0408 -0.1881
23020W        W38914  14.913  17.841   4.713  0.1226 -0.3699 -0.1609
23021W        W38915   3.627   6.659   2.946  0.0647  0.1982  0.3330
23022W        W38916   8.492   8.725  12.543  0.2210 -0.0579  0.0956
23023W        W38917   1.449  11.615   1.037  0.0828  0.1882  0.1620
23024W        W38918   9.565  11.093  15.374 -0.0310  0.1247 -0.1721
23025W        W38919   9.386  12.839   4.217 -0.1917 -0.4461 -0.4899
23026W        W38920   9.882  10.088  12.706 -0.1995 -0.2013 -0.0425
23027W        W38921   1.367   4.256   0.146  0.0947 -0.1476  0.0685
23028W        W38922  12.149   9.900   4.260 -0.1320 -0.0691 -0.1942
23029W        W38923   9.170   0.837   1.037 -0.1129  0.2250  0.0910
23030W        W38924  12.689   4.842   2.082 -0.1795  0.0689  0.0095
23031W        W38925   7.720  14.344  15.518  0.3740 -0.2846 -0.0309
23032W        W38926   9.124  11.940   3.499 -0.5399  0.0271 -0.0431
23033W        W38927  18.292  15.466  13.128  0.0276  0.0503  0.0015
23034W        W38928   1.374  17.457   2.939  0.2787 -0.0962  0.0784
23035W        W38929   8.531  14.517   4.298  0.0145 -0.0023 -0.0077
23036W        W38930  18.369   8.663   1.415  0.1365 -0.1192 -0.3184
23037W        W38931   0.254   3.044  15.410 -0.0568 -0.1149  0.0522
23038W        W38932  13.773  13.560   0.464  0.0627 -0.3866  0.2496
23039W        W38933  10.226   3.882   2.508  0.3896 -0.0268  0.0201
23040W        W38934   5.691   9.040  14.830 -0.1321  0.1953  0.0015
23041W        W38935  15.497   7.449   5.414 -0.2301 -0.1933 -0.0660
23042W        W38936   6.865  12.641   1.942 -0.1743  0.1469  0.0334
23043W        W38937   9.966   9.094   0.268  0.1247 -0.1234 -0.1738
23044W        W38938   7.766   5.738   3.281  0.3104  0.1351  0.1209
23045W        W38939   8.530  11.114  13.448  0.1634  0.0150 -0.1298
23046W        W38940   7.632  15.152  15.404 -0.0817 -0.0924 -0.2634
23047W        W38941  14.898  14.621   2.402  0.1143 -0.1527  0.0413
23048W        W38942   4.061   4.987  13.563  0.1262  0.1101  0.1332
23049W        W38943  13.653   4.529  13.850  0.3863  0.1678 -0.1255
23050W        W38944  11.720   3.441   2.373  0.0268 -0.0304 -0.0772
23051W        W38945   2.941  18.077   3.548 -0.0787  0.1403  0.0450
23052W        W38946  16.254  10.710   4.427  0.1645 -0.2986 -0.0240
23053W        W38947  10.050   2.057  10.128  0.0930  0.1906 -0.1935
23054W        W38948  11.758   3.299  13.845  0.0814  0.0339 -0.4437
23055W        W38949  12.171   7.195   3.400  0.0234  0.0936 -0.1540
23056W        W38950  12.936  17.170  10.751  0.1860  0.0010  0.2162
23057W        W38951  12.878  10.112   0.217 -0.1570 -0.0989  0.1959
23058W        W38952   3.247   4.048  14.968  0.2337  0.0901 -0.1172
23059W        W38953   9.986  14.108  14.691  0.2321 -0.0030  0.3040
23060W        W38954  15.821   8.719  11.767 -0.3380  0.3974  0.2767
23061W        W38955   2.251  12.110   4.383  0.2149 -0.0777  0.2407
23062W        W38956   6.027  17.244  14.045 -0.0149  0.1118  0.0330
23063W        W38957  15.069   8.548  13.412  0.0135 -0.1450 -0.3158
23064W        W38958   3.715   4.113   4.502  0.0807  0.1624  0.0617
23065W        W38959   3.765   0.723   4.517 -0.0321  0.1237  0.1338
23066W        W38960  10.558  11.793   1.141  0.2810  0.0967 -0.1097
23067W        W38961   6.874  11.083   1.714 -0.0443 -0.1224 -0.1891
23068W        W38962   9.362   2.200  13.711 -0.1446 -0.1212 -0.2140
23069W        W38963  16.810   3.081   5.269  0.2438 -0.0216  0.1293
23070W        W38964  11.188  11.017   2.639  0.4613  0.3388  0.0250
23071W        W38965   5.255   4.643  15.059  0.0408 -0.1714 -0.2035
23072W        W38966  15.812  16.368  13.621 -0.0415  0.0321 -0.3173
23073W        W38967   8.941  17.205   4.161 -0.2351  0.2451  0.3303
23074W        W38968   4.066  15.121   4.565  0.1928  0.0677  0.0166
23075W        W38969   5.071   8.466  13.897  0.1270  0.1593 -0.1552
23076W        W38970   0.399   3.096   1.979 -0.0043 -0.0805  0.0234
23077W        W38971   6.689   7.133  15.141 -0.0429  0.0430 -0.0734
23078W        W38972  10.959   3.958  15.413 -0.2005  0.1201  0.2613
23079W        W38973  11.795   8.835  11.414  0.1955  0.2226 -0.0229
23080W        W38974  18.555   1.094  14.155 -0.0063  0.2695  0.3627
23081W        W38975  14.780   2.669   3.406  0.0750 -0.1779  0.0072
23082W        W38976   2.690  11.201   5.439 -0.0337  0.0594  0.1180
23083W        W38977   3.711  15.164   3.501 -0.0732  0.2857  0.2696
23084W        W38978   0.671  13.404   4.005  0.3292  0.2689 -0.1463
23085W        W38979   2.437  11.643   0.905 -0.0220  0.0073  0.2284
23086W        W38980  18.330   9.819  12.049 -0.3067 -0.3453  0.0680
23087W        W38981   7.473  10.452  15.021  0.4838 -0.3024 -0.1029
23088W        W38982   2.368   6.714  12.598  0.0601 -0.1643  0.0696
23089W        W38983   1.937   8.459  13.293 -0.2558  0.0650 -0.2662
23090W        W38984   7.241   0.464   4.959  0.2483  0.0283 -0.0764
23091W        W38985  10.862   8.269   3.052  0.2756 -0.1107  0.0226
23092W        W38986   1.682  11.339  14.916 -0.2231  0.3298  0.2395
23093W        W38987   7.183  15.248  15.076 -0.0521 -0.1186 -0.0293
23094W        W38988   3.879  17.355   4.980 -0.2367 -0.0746 -0.0074
23095W        W38989   6.050  18.532   1.603  0.0027  0.2202 -0.1975
23096W        W38990   6.727  18.517   2.609  0.0489 -0.0631  0.0050
23097W        W38991  18.469   8.186   4.243 -0.1616  0.0901 -0.1056
23098W        W38992  13.660  11.673   0.446 -0.1942 -0.0916  0.0604
23099W        W38993  13.369  16.859   5.039 -0.1428 -0.0430 -0.0610
23100W        W38994   6.682   8.325   0.163  0.1153  0.1191 -0.0154
23101W        W38995   1.649  15.323   4.255  0.0743  0.1681  0.3146
23102W        W38996   7.084   3.919   3.760 -0.1816  0.0718 -0.1423
23103W        W38997  10.663  11.601   5.318 -0.3791 -0.1202 -0.2415
23104W        W38998   9.563   9.944   4.954 -0.1315 -0.1446  0.2762
23105W        W38999  12.832   2.226   0.252 -0.5195 -0.1064 -0.1260
23106W        W39000   2.126  11.449   1.400 -0.3102  0.0991  0.2124
23107W        W39001  15.348  18.692  14.277 -0.1876  0.3600  0.2091
23108W        W39002   8.620   3.586   0.304 -0.1306 -0.2167  0.0468
23109W        W39003  10.604   9.904   0.342  0.1640 -0.0069  0.1738
23110W        W39004  16.464   1.185   4.076 -0.0378 -0.2264  0.0698
23111W        W39005  17.132  14.069   1.850 -0.2131 -0.1275  0.0529
23112W        W39006   8.621  12.819  14.209  0.2269  0.0595  0.0266
23113W        W39007  17.201  13.053   2.352 -0.0594  0.0793 -0.1190
23114W        W39008  16.698   6.058  15.491 -0.0737 -0.2180 -0.0203
23115W        W39009   1.254   7.771  11.606  0.1288  0.1308  0.0141
23116W        W39010   7.195  17.545  15.458  0.2445 -0.0846  0.2364
23117W        W39011   5.047   4.322   0.410  0.0129 -0.0321  0.0834
23118W        W39012  13.057   9.421  14.000 -0.2853 -0.2351  0.2633
23119W        W39013   8.750   0.956   4.355 -0.5411 -0.0838  0.2245
23120W        W39014   7.495  14.376   1.008  0.0984  0.1170 -0.0035
23121W        W39015   9.832  13.862  10.655  0.1585  0.1803  0.2192
23122W        W39016  10.120  10.003   0.182 -0.0250 -0.1837  0.0925
23123W        W39017   9.590  14.959   5.230  0.2235  0.1658 -0.2253
23124W        W39018   4.288   9.814  11.917  0.0495 -0.2679 -0.0059
23125W        W39019   8.118   1.381   0.326 -0.3565 -0.2499 -0.0242
23126W        W39020   3.131   7.100  14.203  0.0014 -0.0271 -0.0929
23127W        W39021  12.391   3.393   3.044  0.1758  0.1843  0.0185
23128W        W39022   9.729   8.538   5.415  0.1755 -0.2284  0.0056
23129W        W39023  10.477  18.107   1.101  0.4444 -0.3628 -0.3030
23130W        W39024   4.609  14.697  13.660 -0.2924  0.0470 -0.0070
23131W        W39025  12.008  16.249  15.085 -0.6345 -0.1518 -0.2437
23132W        W39026  13.322   1.215   0.998 -0.1519 -0.3813  0.2343
23133W        W39027  11.505   0.249  15.414  0.2052  0.1579  0.0993
23134W        W39028   9.353  15.292  15.110 -0.0031  0.1108  0.0266
23135W        W39029   9.541   8.797  15.021 -0.0537 -0.4624 -0.0272
23136W        W39030   7.345   5.316   1.183  0.1546 -0.0557  0.1904
23137W        W39031   9.157   1.037  12.862  0.2197  0.3996  0.0009
23138W        W39032  10.499  14.088  15.309 -0.0268 -0.1695 -0.1151
23139W        W39033  11.836  18.414  13.365 -0.3555 -0.1328  0.0825
23140W        W39034  15.573  17.527  14.539  0.0504  0.0220 -0.1218
23141W        W39035  14.318  15.140   0.898 -0.1814  0.0374 -0.1357
23142W        W39036  18.174  10.759  15.052  0.0953 -0.1016  0.0820
23143W        W39037   8.145   2.550  12.995  0.0810 -0.0655  0.3599
23144W        W39038   7.530  17.056   3.405  0.1683 -0.0359  0.3740
23145W        W39039   2.732  10.230   1.332  0.0846 -0.1216 -0.0019
23146W        W39040   6.926   4.241   1.717  0.1414  0.2773 -0.0939
23147W        W39041   4.427   5.450  10.580 -0.2232  0.2037 -0.2642
23148W        W39042  11.661   7.112  14.793 -0.1572  0.1725  0.2354
23149W        W39043   0.536   7.123   2.500 -0.0894 -0.5404 -0.1434
23150W        W39044  17.685   2.679   1.168  0.1674 -0.2258  0.0219
23151W        W39045   5.652  13.716   5.215  0.1695  0.1508 -0.1069
23152W        W39046  10.301  17.184   1.613  0.1770  0.3226  0.2426
23153W        W39047  16.335  10.332   0.075  0.2335 -0.0488  0.0006
23154W        W39048  12.655  17.856   2.812 -0.0499 -0.2572  0.1406
23155W        W39049  14.400   4.548   9.795 -0.0153 -0.0808  0.1150
23156W        W39050   0.512   8.643   3.959  0.3036 -0.0597 -0.4042
23157W        W39051  12.314   4.044  13.466 -0.2591 -0.1191 -0.0755
23158W        W39052   6.573  14.258   2.811  0.2104  0.1997 -0.0160
23159W        W39053  18.143  18.094   1.632  0.0370 -0.2364  0.0364
23160W        W39054  12.143   9.437   0.930  0.2310 -0.1391 -0.1019
23161W        W39055   5.318  13.255   3.044  0.0864 -0.3721 -0.4585
23162W        W39056   4.809   5.913   4.968  0.2834 -0.0575 -0.0311
23163W        W39057  14.057  15.981  12.427 -0.0683  0.1942  0.0206
23164W        W39058   5.887  15.636   0.126 -0.1501  0.1487  0.2505
23165W        W39059   4.194  12.339   2.603 -0.1273 -0.1349 -0.3038
23166W        W39060  15.735   9.710  15.374 -0.1216 -0.2474  0.2012
23167W        W39061   1.210  16.392   3.687  0.1363  0.1267  0.0164
23168W        W39062   9.512  13.565   3.722 -0.1740 -0.1080  0.0473
23169W        W39063  13.873   0.590   0.215 -0.2611  0.0393 -0.0761
23170W        W39064   3.634   6.091  11.414  0.0193 -0.0564 -0.0437
23171W        W39065   9.046  15.121   1.451  0.0905  0.4158  0.1226
23172W        W39066  15.202   1.660  13.836 -0.2886  0.0532 -0.2921
23173W        W39067   0.746  14.638   4.723  0.0209  0.0730 -0.3605
23174W        W39068   7.612   1.469   2.868  0.1438 -0.0660 -0.0912
23175W        W39069   8.048  15.155   4.095 -0.0053  0.0657  0.1275
23176W        W39070  11.914  14.709   0.815 -0.3022  0.1029  0.2009
23177W        W39071  18.340  17.328  11.994 -0.0567 -0.1356 -0.1913
23178W        W39072   4.499  12.303  14.473 -0.2497  0.3418 -0.3021
23179W        W39073  18.755   2.896   4.224 -0.1624 -0.2182  0.6543
23180W        W39074   0.834  11.221  14.940 -0.0397 -0.0738 -0.2628
23181W        W39075  10.015  16.802   0.259 -0.2431  0.1985 -0.0644
23182W        W39076   5.834   2.037  11.431  0.0284  0.0308 -0.2161
23183W        W39077   1.944  11.157   2.807  0.1431 -0.1863 -0.2214
23184W        W39078   5.634  13.784   3.552  0.0819  0.1720  0.1166
23185W        W39079   3.718   6.977   2.335  0.0186 -0.0623  0.3512
23186W        W39080  18.669  12.024  13.718 -0.0579 -0.0811 -0.1073
23187W        W39081   9.888  16.331  12.539 -0.2484 -0.2732  0.1130
23188W        W39082  17.065  16.954   5.538 -0.0594 -0.0084  0.1556
23189W        W39083   3.618   3.371   3.368  0.3148 -0.3922  0.3125
23190W        W39084   8.161  12.750   2.000 -0.0896 -0.1383  0.0620
23191W        W39085  17.323   8.020  11.757 -0.0595 -0.2697 -0.2603
23192W        W39086  10.196   6.349   3.774 -0.4429 -0.2235 -0.0727
23193W        W39087  18.531  11.521  13.197 -0.0996  0.0550 -0.1210
23194W        W39088   9.379   7.958  14.440  0.0027  0.0985 -0.2835
23195W        W39089  10.877   3.994   1.306  0.3504  0.4535  0.0630
23196W        W39090  14.102  12.390   0.507 -0.1211 -0.0195 -0.2910
23197W        W39091   4.988  10.555  13.808 -0.2177 -0.1558 -0.0732
23198W        W39092   4.758  16.727   0.823 -0.0719 -0.1378  0.1035
23199W        W39093  18.717   9.401   0.945  0.1390  0.3737  0.0692
23200W        W39094  16.033   8.680   4.162  0.2634 -0.1367  0.0471
23201W        W39095   6.535  16.461  14.020  0.3512 -0.0682 -0.0596
23202W        W39096  11.536   2.601  12.126  0.4725  0.1068 -0.2946
23203W        W39097  12.738   1.783   0.488 -0.2081  0.2522  0.1562
23204W        W39098   7.941   8.375   0.758 -0.0666  0.2725  0.1034
23205W        W39099   4.241   3.348  12.759  0.3294 -0.2405 -0.0907
23206W        W39100   8.138  16.279   2.027  0.1765 -0.0383 -0.1658
23207W        W39101   1.605   4.772   3.184  0.2208  0.2044  0.3989
23208W        W39102   2.982  17.343  11.321 -0.0003  0.0276  0.1655
23209W        W39103  13.979   7.239  14.228 -0.0479 -0.1480 -0.1001
23210W        W39104   2.132   9.058  14.194  0.0191  0.1639  0.0878
23211W        W39105  12.965   5.810   1.902  0.3468  0.0283  0.2042
23212W        W39106   8.829   9.944   1.268  0.0472  0.1605 -0.1763
23213W        W39107   1.905   6.814   2.528 -0.3358  0.1549 -0.3184
23214W        W39108   5.563  17.492   4.004 -0.1196  0.0994  0.0248
23215W        W39109   1.573  16.493   0.231  0.0077  0.1511 -0.0376
23216W        W39110  10.810  15.932   1.871 -0.0309  0.1028 -0.1163
23217W        W39111  10.035  11.860   4.388 -0.0609  0.0255 -0.2436
23218W        W39112   5.882  14.743  15.260 -0.1208  0.2402 -0.1974
23219W        W39113   8.331  18.598  10.499 -0.2929  0.0985  0.0840
23220W        W39114   6.433  16.298   0.420 -0.1014 -0.0214  0.1721
23221W        W39115   4.860  17.042  12.547 -0.0926  0.1550  0.1898
23222W        W39116  16.063  11.246  12.830 -0.0391 -0.1731 -0.1356
23223W        W39117  17.046  10.235  11.372 -0.4930  0.2257  0.1306
23224W        W39118   2.909  16.661  11.181  0.1498 -0.2086  0.1607
23225W        W39119   0.966   7.272   0.686  0.0665 -0.0769  0.0297
23226W        W39120  17.545   6.161   3.130 -0.6346 -0.0851 -0.1176
23227W        W39121  13.837  15.171  13.736 -0.0198 -0.2485 -0.3676
23228W        W39122   8.065  17.349   4.980  0.0023  0.0051 -0.0178
23229W        W39123   0.136   6.599   2.287  0.0311 -0.0656 -0.2040
23230W        W39124   1.703   7.808   4.473  0.0852  0.0922 -0.1842
23231W        W39125   1.314  11.275   5.204 -0.0423  0.0715  0.3500
23232W        W39126   1.276   8.931  13.801 -0.1118 -0.1970 -0.2201
23233W        W39127   3.611  14.785   3.030  0.3468  0.1168 -0.1928
23234W        W39128  11.210   0.198   1.478  0.1110  0.0728  0.2363
23235W        W39129   2.030  17.041   4.667 -0.0100 -0.2562 -0.1031
23236W        W39130  10.031   2.191   1.042 -0.1481 -0.2699 -0.0801
23237W        W39131  11.892   0.752  11.412 -0.0868 -0.1040 -0.1221
23238W        W39132   2.238   3.901   1.784 -0.2003  0.1511  0.0073
23239W        W39133   5.397   8.168  10.811 -0.3110 -0.2143  0.2105
23240W        W39134   8.470  13.331  14.208 -0.0555  0.1023 -0.3751
23241W        W39135  12.698   8.652  12.700 -0.0928  0.3966  0.1047
23242W        W39136   1.943  13.640   0.795 -0.0232  0.2256 -0.1012
23243W        W39137  15.000  17.997  13.665 -0.0739 -0.2432 -0.2369
23244W        W39138   1.114  11.650  14.833  0.2094 -0.0170 -0.1791
23245W        W39139  13.027   8.536  14.160  0.2430  0.2297 -0.3486
23246W        W39140   5.605   7.879   2.071 -0.0245 -0.2178 -0.4483
23247W        W39141   9.638   7.989   2.040  0.2110  0.1008  0.1178
23248W        W39142   1.923  17.471   3.745  0.0122 -0.0673  0.1126
23249W        W39143  18.104  14.771  13.451  0.1419 -0.0144 -0.4598
23250W        W39144   3.900   7.838   4.553 -0.1644  0.1374 -0.4513
23251W        W39145   5.787   6.621   1.766  0.3926  0.1567  0.0273
23252W        W39146  10.997   3.746   4.068  0.3779  0.2212 -0.0268
23253W        W39147  12.611  11.824  13.478 -0.2853  0.0008 -0.1668
23254W        W39148   3.045   2.335  15.503 -0.3245  0.1501  0.3903
23255W        W39149  13.532  16.710   1.382 -0.5325 -0.0749 -0.0008
23256W        W39150  16.040   4.762   5.624 -0.0430 -0.0241 -0.1458
23257W        W39151   5.077   2.281   1.696 -0.1459  0.4326  0.0661
23258W        W39152   1.801   3.613  13.004  0.0449  0.3033 -0.1003
23259W        W39153  17.020   7.574  11.700  0.0913 -0.0505  0.1487
23260W        W39154   8.004   9.607   1.066 -0.0809 -0.1059 -0.1128
23261W        W39155   7.264   3.346   0.231  0.0883 -0.1519 -0.2736
23262W        W39156   9.871  14.947   2.009  0.1096 -0.2543  0.2791
23263W        W39157  14.249   5.268  13.549  0.0509 -0.0308  0.2318
23264W        W39158   5.065   6.942  12.886  0.1573 -0.1995 -0.1721
23265W        W39159   6.461   6.042  12.223  0.2923  0.0513  0.0828
23266W        W39160  13.993   8.440   2.427  0.1832 -0.0880  0.3858
23267W        W39161  13.383   4.035   1.157 -0.0902 -0.2959  0.1510
23268W        W39162   8.428   1.451   5.176  0.0950 -0.0306  0.3031
23269W        W39163   5.979   2.544  14.414  0.0647 -0.0119 -0.1478
23270W        W39164  11.853  14.625  11.641  0.0760 -0.2263 -0.1499
23271W        W39165  16.910   0.628   0.060 -0.0300  0.0752 -0.1936
23272W        W39166  14.729  16.543   3.681 -0.2698 -0.6188 -0.1417
23273W        W39167  13.386   6.374   2.494 -0.4136  0.2006  0.3416
23274W        W39168   2.568   0.450   2.206 -0.1262  0.3214 -0.3985
23275W        W39169  11.099  18.520   4.738  0.1832 -0.1211 -0.1093
23276W        W39170   7.897   2.366  14.096  0.0482 -0.0048  0.1157
23277W        W39171   7.551   4.183  14.738 -0.2211  0.0552 -0.4348
23278W        W39172   3.622   9.362   0.299 -0.1560  0.1048  0.1402
23279W        W39173   9.616  10.822  11.314 -0.1983 -0.1482  0.1920
23280W        W39174  15.798  15.671  10.654 -0.0314 -0.3339 -0.2189
23281W        W39175  16.795  10.144  14.300  0.0034  0.1547 -0.0514
23282W        W39176   4.349   0.483   2.286 -0.0141 -0.1231 -0.0048
23283W        W39177   1.580   9.722   2.494  0.0181 -0.2973  0.2424
23284W        W39178   6.518   1.770  10.324  0.2191 -0.0368 -0.0694
23285W        W39179  18.040   1.244   3.634  0.0102 -0.2217 -0.4178
23286W        W39180  13.533  17.617   9.869 -0.1081 -0.4100 -0.1004
23287W        W39181   6.501   3.229   0.714  0.1741  0.1402 -0.0878
23288W        W39182  10.265  17.585  15.378 -0.1047  0.0488  0.1393
23289W        W39183   3.460   2.291  15.278 -0.0048  0.1372  0.0009
23290W        W39184   7.408  16.884  11.600  0.2449  0.0825 -0.2602
23291W        W39185   4.577  10.953  12.763 -0.1319 -0.0275  0.0280
23292W        W39186  14.327  12.185  14.862 -0.0584  0.0767  0.1296
23293W        W39187   9.842  13.312  12.619 -0.1122  0.2119  0.1838
23294W        W39188   4.252   0.109   0.955  0.2504  0.0083 -0.0158
23295W        W39189  17.409  18.603   4.005 -0.1954  0.1378 -0.1127
23296W        W39190   5.889   4.446  15.472 -0.4076  0.1466  0.2837
23297W        W39191   4.783  10.463   0.494  0.0582 -0.1309  0.0284
23298W        W39192  11.460   0.971  14.892 -0.0894  0.3314 -0.0412
23299W        W39193  12.098   5.712   1.685  0.2738  0.0135  0.1097
23300W        W39194   3.699  16.045  10.957 -0.0306  0.1397 -0.3008
23301W        W39195   8.941  11.719  13.717  0.1624 -0.0795 -0.0300
23302W        W39196  16.759   2.089   3.446  0.3976  0.4003  0.0664
23303W        W39197  13.800   7.557   2.601 -0.2702 -0.0090 -0.2004
23304W        W39198  15.043  10.158   5.002 -0.0001 -0.0018 -0.0742
23305W        W39199   9.279  15.588   2.430  0.0859 -0.0071 -0.1222
23306W        W39200  12.306   9.590  12.994  0.0929  0.1000  0.1710
23307W        W39201   6.748   3.261  11.699  0.0999  0.1679  0.0040
23308W        W39202   6.519  12.486   5.596  0.1574 -0.0343  0.1135
23309W        W39203  11.276   3.017   0.253 -0.3661 -0.0619  0.1155
23310W        W39204   0.191  16.085  14.399  0.0587  0.1905  0.0606
23311W        W39205   9.686   5.580  10.014 -0.3564  0.3038  0.0105
23312W        W39206  15.493   1.582   0.862 -0.0496  0.3705 -0.1697
23313W        W39207   9.230  12.647   5.031  0.0591 -0.0502 -0.0831
23314W        W39208   4.580   6.162  12.421 -0.0520 -0.0885 -0.0102
23315W        W39209  12.303   4.489   2.855  0.0470 -0.0833  0.1067
23316W        W39210  16.817  11.267   1.045 -0.2175  0.5331 -0.1183
23317W        W39211   8.038  18.270   3.025 -0.4549 -0.0360  0.0852
23318W        W39212   8.696   4.100  10.825  0.0063  0.1497  0.1106
23319W        W39213   8.763   1.324   3.308  0.0095  0.2576  0.4671
23320W        W39214   7.363  12.229  13.880  0.1752 -0.1730  0.1349
23321W        W39215   4.749   4.649   2.605  0.0018 -0.1776 -0.1263
23322W        W39216   7.580   2.412   1.760 -0.0426 -0.4142  0.1734
23323W        W39217  15.714   9.305   3.449 -0.0133  0.1568 -0.1465
23324W        W39218   0.249   8.660   0.751  0.0129 -0.1756 -0.0657
23325W        W39219   3.687   4.448   3.246 -0.1678  0.0231 -0.1736
23326W        W39220  12.373  10.028   2.121 -0.1007  0.0079 -0.0792
23327W        W39221  11.827   4.902   3.739 -0.1050  0.1504 -0.1115
23328W        W39222   9.311   6.383  15.326 -0.0130  0.0997 -0.0611
23329W        W39223   0.041   0.926   4.252  0.1093  0.0929 -0.4565
23330W        W39224   9.663   1.092  14.064  0.4476  0.0785  0.4109
23331W        W39225  16.495   0.918   4.511  0.2194  0.0973  0.2987
23332W        W39226  17.860  15.329  12.142 -0.3023 -0.0222  0.3916
23333W        W39227   6.894  11.881   2.501  0.0432  0.2762  0.0028
23334W        W39228   7.955  12.195   1.159 -0.0701  0.2150 -0.0199
23335W        W39229  17.552   2.388   2.460  0.1568 -0.0186 -0.1079
23336W        W39230   8.795   0.551  11.630 -0.3643 -0.0690  0.0083
23337W        W39231   5.210   3.447  12.138  0.3297  0.3855 -0.1086
23338W        W39232  15.670   7.791   3.889 -0.0165  0.1656 -0.2317
23339W        W39233   6.632  18.055  11.205 -0.0107  0.0806 -0.0513
23340W        W39234  14.391   3.062   3.766 -0.2439 -0.1782 -0.2397
23341W        W39235  12.799   5.203   3.015 -0.0702  0.2191 -0.0384
23342W        W39236  11.109   5.667  12.044 -0.3559 -0.0563  0.0912
23343W        W39237  13.079   2.959   0.010 -0.0487  0.3644  0.3505
23344W        W39238  11.897  15.355  12.762 -0.3867  0.1143 -0.1972
23345W        W39239  16.552   9.327   4.513 -0.2921 -0.0960  0.0300
23346W        W39240  12.707   6.227   5.312  0.1271 -0.0106 -0.1321
23347W        W39241   9.165  18.367  10.591  0.2623  0.1516 -0.1912
23348W        W39242   7.654   6.623  10.884  0.1223  0.4139 -0.0018
23349W        W39243   5.437   4.138   1.875  0.2564 -0.0547  0.0665
23350W        W39244  17.035   9.384   1.358  0.3074 -0.0624 -0.1060
23351W        W39245   6.377  10.946   2.777 -0.2573  0.2055  0.0687
23352W        W39246  14.006   7.385  11.223  0.0736  0.1617 -0.3012
23353W        W39247  14.114  12.799  12.904  0.1167  0.2170 -0.0033
23354W        W39248  16.779   2.587   4.305  0.1936 -0.0777  0.0997
23355W        W39249   4.987   1.569   2.893  0.1306 -0.0013 -0.1168
23356W        W39250  13.534   9.283   5.905 -0.2659 -0.0966  0.1470
23357W        W39251   8.108   0.438   1.617 -0.0842  0.1225 -0.2550
23358W        W39252  14.582  11.609   3.339 -0.0608 -0.1672  0.0062
23359W        W39253   5.264  10.739   0.581 -0.1752  0.0913  0.0511
23360W        W39254  12.325   6.566   0.704 -0.0078  0.0469 -0.0768
23361W        W39255  18.088   1.860   1.224 -0.1457  0.0944 -0.1383
23362W        W39256   6.544   5.893  14.750 -0.0133  0.3197 -0.1119
23363W        W39257   9.453   1.337  14.484 -0.2746  0.0821  0.2645
23364W        W39258   9.521   0.364   2.363 -0.0723 -0.0183 -0.0696
23365W        W39259   8.293   8.922   3.583 -0.1818  0.1382  0.3250
23366W        W39260   0.217  15.743  12.732 -0.0663  0.3254  0.2234
23367W        W39261   6.411  14.715  14.269 -0.3669  0.1471  0.3423
23368W        W39262  13.115  14.627   6.187  0.2562 -0.0787  0.1622
23369W        W39263  11.113  18.449   1.409 -0.2154  0.1273 -0.5808
23370W        W39264  16.827   1.328   9.807  0.1413 -0.0193 -0.1907
23371W        W39265   0.014   5.602   4.568 -0.1663  0.3282 -0.2536
23372W        W39266   4.549  11.551  15.615  0.2570 -0.4179  0.0489
23373W        W39267   2.370  18.626   9.819  0.0352  0.1610 -0.1451
23374W        W39268  10.166   1.525  11.442 -0.2632 -0.4178  0.1958
23375W        W39269   3.493   5.391  12.167  0.2861 -0.1121  0.0680
23376W        W39270  16.456   9.262   2.068 -0.1413  0.0250  0.0489
23377W        W39271   2.901   1.066   4.694 -0.4787  0.2949  0.1450
23378W        W39272  16.305  11.640   4.556 -0.2576 -0.2905 -0.1979
23379W        W39273  14.984   6.574  12.006 -0.3248  0.3026 -0.1844
23380W        W39274   9.375  18.397   2.883 -0.0515  0.3376  0.0902
23381W        W39275   6.132   1.787   3.614 -0.0657 -0.0405 -0.3017
23382W        W39276   6.512  14.627   4.749 -0.1384  0.1223 -0.1433
23383W        W39277   3.634   7.237  12.434 -0.1507  0.1216  0.1452
23384W        W39278   6.309   9.424  11.329 -0.1592  0.4286 -0.1240
23385W        W39279  14.464   6.950  13.819  0.1420 -0.3113  0.0854
23386W        W39280   5.173  15.919  13.756 -0.3794 -0.0460 -0.1075
23387W        W39281   0.748   0.125  11.861  0.1643 -0.1435  0.0240
23388W        W39282   2.857  16.244  13.755  0.2012  0.4049  0.0488
23389W        W39283  16.168   4.772  14.320  0.0229  0.0241 -0.3507
23390W        W39284   2.052   4.487   3.244  0.2319 -0.0292 -0.0869
23391W        W39285   8.285   3.354   3.571 -0.0010 -0.1339  0.0130
23392W        W39286   2.796   6.947  12.206  0.1222 -0.0021  0.1543
23393W        W39287  11.513  10.665   2.913  0.1751  0.0047  0.0790
23394W        W39288   7.826  15.824  14.126  0.0089 -0.0080 -0.0283
23395W        W39289   5.417   2.124   1.251  0.0538  0.1410 -0.0568
23396W        W39290  16.500  10.599  13.370  0.0489  0.1723  0.2558
23397W        W39291   6.406  11.128  13.306 -0.0937 -0.0177 -0.0336
23398W        W39292  16.235   8.906   2.380  0.0885  0.2569  0.2836
23399W        W39293  10.006  12.745  13.454 -0.0359  0.1844  0.1373
23400W        W39294  17.213  11.419   1.346 -0.1290  0.0860 -0.1955
23401W        W39295   0.781   9.868   3.710 -0.0544 -0.0821  0.1273
23402W        W39296  10.477  11.316   3.326  0.1089 -0.0115  0.0674
23403W        W39297  16.397   3.247  14.470  0.0505 -0.3076 -0.2683
23404W        W39298  18.055  16.659  12.720  0.2217  0.3526  0.1597
23405W        W39299   7.221   4.577   2.869  0.1523 -0.0438 -0.0555
23406W        W39300   3.253   8.285   3.660 -0.0294  0.0326  0.1562
23407W        W39301   1.709   2.935   1.078  0.1134 -0.0450 -0.0567
23408W        W39302  18.654  12.303   3.936  0.0391 -0.1484  0.1946
23409W        W39303   1.410  13.910  11.884  0.2733  0.1329  0.0346
23410W        W39304   9.151   0.429   2.861  0.1314 -0.2542 -0.0071
23411W        W39305   0.696   9.551  13.463 -0.1965  0.1549  0.0857
23412W        W39306   7.057  14.746  11.126 -0.1113  0.2466 -0.1003
23413W        W39307   9.186   1.805  12.781 -0.2315  0.1525  0.1049
23414W        W39308   7.386  15.574   4.879  0.2680  0.1158  0.2383
23415W        W39309   9.646   1.846  15.139 -0.0201  0.0817  0.1897
23416W        W39310   4.812  14.071  12.993 -0.3347  0.0151 -0.2905
23417W        W39311  12.587  14.116   0.090 -0.4476 -0.1974 -0.1565
23418W        W39312  14.536   0.327  11.908 -0.2238  0.2114  0.0558
23419W        W39313  15.309   5.001   1.313  0.1792 -0.0009  0.1871
23420W        W39314   6.990   6.290   2.126  0.1976 -0.0318 -0.1715
23421W        W39315   4.084   4.259   0.778  0.0185  0.2657 -0.2532
23422W        W39316   1.614  13.263  11.452 -0.1109 -0.1005  0.1787
23423W        W39317   2.905  18.299   2.242  0.0538  0.1496 -0.1442
23424W        W39318  14.463  13.664  12.202  0.0342  0.0996  0.1503
23425W        W39319   5.521   7.441  14.416  0.3018  0.0911 -0.2316
23426W        W39320   5.090   4.203   2.255  0.3546 -0.2440 -0.1643
23427W        W39321  13.227  12.748   2.187  0.1751  0.1471  0.1459
23428W        W39322   9.662   8.286  14.158  0.2787  0.3073 -0.0520
23429W        W39323  14.919  13.086   4.663  0.2597  0.1145 -0.2366
23430W        W39324   1.952   6.561   9.976 -0.4486  0.2024 -0.0409
23431W        W39325  11.394  14.545  11.062  0.1414  0.1111  0.2052
23432W        W39326  14.132   7.765   5.015 -0.0531  0.0416 -0.3042
23433W        W39327  17.941  14.083   4.925  0.1890  0.1002 -0.1156
23434W        W39328   1.963  15.960  11.473  0.3331 -0.2989 -0.0903
23435W        W39329   8.576  11.035  11.301  0.1179  0.1819 -0.0038
23436W        W39330   9.621  14.029   3.183  0.1776 -0.1684  0.2238
23437W        W39331   1.224  15.627   5.693 -0.1951  0.1704  0.1473
23438W        W39332  13.484  11.825   5.416 -0.1845 -0.0780 -0.3702
23439W        W39333  14.171  16.619   5.746  0.3199 -0.0447  0.0374
23440W        W39334   9.149  16.811   4.472 -0.1924  0.0348  0.2430
23441W        W39335  18.203   7.575  14.571 -0.1229 -0.2824 -0.1003
23442W        W39336   6.479   6.383   4.830 -0.0530  0.0067 -0.0691
23443W        W39337  16.398   5.382   4.220  0.0878 -0.0016 -0.1632
23444W        W39338  16.685  14.616  11.345 -0.0070 -0.0013  0.0912
23445W        W39339  16.141  17.515  13.833 -0.1292  0.1029 -0.0172
23446W        W39340   0.957   2.419   2.266  0.1250 -0.1866  0.1406
23447W        W39341  16.126   4.460   0.902 -0.1653 -0.0789 -0.2270
23448W        W39342  16.058   9.454   5.343 -0.0787  0.0454  0.0925
23449W        W39343  15.640  12.509   4.478 -0.2277 -0.0496 -0.2078
23450W        W39344   4.994   9.600  13.212  0.0820  0.0296 -0.1480
23451W        W39345   2.169   4.882  13.263 -0.1692 -0.2754  0.2259
23452W        W39346   0.876   1.628  14.706  0.0413  0.2290 -0.1196
23453W        W39347  17.800   3.333  15.114  0.0818  0.2334  0.0421
23454W        W39348   1.753  17.134   9.652 -0.0456  0.0255 -0.3617
23455W        W39349  18.498  16.525  12.456  0.1460 -0.1181 -0.0512
23456W        W39350   7.768  16.368   4.534  0.0167  0.0799 -0.1235
23457W        W39351  17.787   8.598  15.027  0.2728  0.4200  0.0263
23458W        W39352  14.259   2.716  12.954  0.2279  0.0164  0.0146
23459W        W39353   2.939   4.452   5.108 -0.0565  0.0341 -0.0375
23460W        W39354   1.168   1.960   2.383  0.1706 -0.2131  0.1032
23461W        W39355   2.996  17.044   4.737 -0.2289 -0.1960  0.4775
23462W        W39356   1.839  17.986   4.354 -0.4296  0.2029 -0.1475
23463W        W39357   5.419   4.521   1.383  0.1108 -0.3845 -0.0854
23464W        W39358   6.961  11.036  12.690  0.0526 -0.0965 -0.2683
23465W        W39359   8.403  10.881  12.978 -0.1806  0.0462 -0.1935
23466W        W39360   1.516   6.442   0.910  0.0521 -0.2190  0.1051
23467W        W39361  10.648  14.133   2.133 -0.2877 -0.0244 -0.1956
23468W        W39362  14.667   1.586   5.137  0.6032 -0.1710  0.1892
23469W        W39363  17.609   0.300   1.680 -0.0716  0.0852  0.1527
23470W        W39364  17.563  16.420  14.052  0.2595 -0.0617 -0.1500
23471W        W39365   8.294  10.608   3.719 -0.0819 -0.3045  0.2881
23472W        W39366   8.182  15.678   0.084 -0.1059  0.0763  0.2068
23473W        W39367   4.531   9.438  10.643 -0.1171 -0.0099  0.0516
23474W        W39368  14.159   5.280   0.121 -0.0560 -0.1599 -0.0921
23475W        W39369   2.615  14.550  12.913  0.1471 -0.0059  0.2671
23476W        W39370   1.819   1.335   1.870 -0.0778  0.0814  0.1439
23477W        W39371   8.004  11.650  13.957  0.1297 -0.0670  0.2569
23478W        W39372   1.124   0.687  14.793 -0.0731  0.0999 -0.0322
23479W        W39373   7.784  15.414  11.790  0.0120  0.1810  0.1445
23480W        W39374   6.885   5.971  10.979 -0.1068  0.0005 -0.1197
23481W        W39375   4.020  11.988   4.092 -0.0856 -0.1012  0.0035
23482W        W39376  13.841  13.026   2.575 -0.5280 -0.0109  0.4166
23483W        W39377  13.314   9.147  11.595 -0.2050 -0.3528  0.0612
23484W        W39378   4.825  13.041   2.942  0.1603  0.0697 -0.3069
23485W        W39379   1.154  12.989  14.285  0.1230 -0.1770  0.1361
23486W        W39380  14.678  10.346  15.194  0.1937  0.0591  0.2442
23487W        W39381  17.480  11.723   1.069  0.0172 -0.0950 -0.0094
23488W        W39382  11.098  17.810   1.894  0.0236 -0.2896  0.0483
23489W        W39383  12.585  17.097  15.398  0.1206  0.1976 -0.0786
23490W        W39384  16.853   2.482   5.194 -0.3630  0.1752  0.1110
23491W        W39385   2.120  18.421  13.123 -0.0392 -0.2392 -0.0387
23492W        W39386  18.127   1.604  11.707 -0.4178 -0.1568 -0.2472
23493W        W39387   3.441  17.190   4.836 -0.1901  0.0433 -0.3271
23494W        W39388  17.460  15.822  11.650 -0.1773 -0.0946  0.2761
23495W        W39389   2.492   7.035  13.617  0.0706  0.1684 -0.3367
23496W        W39390  10.034   2.436   4.325  0.0298 -0.4256 -0.4978
23497W        W39391   9.302  14.563   1.907 -0.0359 -0.2488  0.1406
23498W        W39392  18.444  12.764   0.708  0.3783  0.1177  0.1444
23499W        W39393  11.050  16.945   3.455  0.0173  0.0147  0.0827
23500W        W39394   6.824   5.273   1.864 -0.1417 -0.0674 -0.3173
23501W        W39395  17.260   7.450   2.556 -0.0188 -0.3581  0.0025
23502W        W39396   5.645   2.886   2.443 -0.0645  0.0279  0.0848
23503W        W39397  15.101  13.195   3.689  0.0895  0.2621 -0.2969
23504W        W39398   3.392   0.684  13.003 -0.2703 -0.2383 -0.2694
23505W        W39399   8.810   4.503  15.155  0.0826  0.1198 -0.2168
23506W        W39400   3.351   6.343  13.579  0.2849 -0.0958 -0.2313
23507W        W39401  12.360   2.659   4.720  0.0835  0.1733  0.0477
23508W        W39402   9.682  16.771  11.666  0.1449  0.1619 -0.0863
23509W        W39403   9.502   2.053  14.226 -0.1212  0.1163  0.1090
23510W        W39404  17.068  18.334  13.325  0.0335  0.0114 -0.2404
23511W        W39405  13.938  12.836   1.208 -0.0905 -0.0381 -0.1780
23512W        W39406  16.188  17.426   4.333 -0.0948 -0.2345 -0.0586
23513W        W39407   5.129   0.282   4.167 -0.1189  0.1229 -0.1724
23514W        W39408   6.000   2.284  14.000  0.3750 -0.1166  0.0689
23515W        W39409   1.778   6.654   1.750 -0.0479 -0.1423 -0.1892
23516W        W39410  11.252   2.505  14.329  0.3215 -0.1950  0.0176
23517W        W39411   2.143  10.020  13.256  0.2698 -0.1826 -0.2286
23518W        W39412   1.141  13.229  12.356 -0.0632 -0.0106 -0.1671
23519W        W39413   9.995   5.563  14.178 -0.1420  0.4356  0.1832
23520W        W39414  10.259  15.657   5.273  0.0745  0.3753  0.0043
23521W        W39415  16.130  17.433   2.213 -0.0266 -0.0614 -0.0189
23522W        W39416   6.752  10.845   4.510 -0.1325 -0.0146 -0.0627
23523W        W39417   0.562  17.511  12.659  0.2356  0.1535 -0.1007
23524W        W39418   4.258  11.773   2.767 -0.0669 -0.1510 -0.1515
23525W        W39419   5.025  16.367  11.658 -0.1364 -0.0963  0.2709
23526W        W39420   5.280  16.328   4.572 -0.5556  0.0286  0.0345
23527W        W39421   6.554  11.994  11.801  0.1902  0.1907 -0.0880
23528W        W39422  16.054  10.788  11.137 -0.0776 -0.2808 -0.1335
23529W        W39423  11.806  16.567   3.723  0.1761 -0.1416  0.4844
23530W        W39424  10.816   8.427  14.627  0.0358 -0.0089 -0.1337
23531W        W39425  17.832  10.472  13.859 -0.1944  0.1811  0.1944
23532W        W39426   0.513   9.889   4.326  0.0921 -0.3691  0.1296
23533W        W39427  16.913  15.884  13.261 -0.0466 -0.2918  0.1343
23534W        W39428  10.527   0.802   4.432 -0.2743 -0.0554  0.4554
23535W        W39429  12.288   8.350   1.857  0.0209 -0.1121 -0.1158
23536W        W39430   4.955  16.632  14.086  0.0494 -0.1028 -0.2006
23537W        W39431  11.005   0.684  14.921  0.1305 -0.0902  0.3301
23538W        W39432  10.328  16.014  11.707  0.1183  0.2558  0.1947
23539W        W39433   9.428  13.063  11.709  0.1650  0.0484  0.0913
23540W        W39434  10.886  10.183   4.152 -0.1168  0.1902 -0.0459
23541W        W39435   1.784  11.235   0.974 -0.2158 -0.0782  0.0014
23542W        W39436  13.793   3.316   2.192 -0.2654  0.0356 -0.1753
23543W        W39437  15.636  10.616   3.422  0.1721  0.2169 -0.0855
23544W        W39438  15.361   7.116  14.890 -0.1455 -0.2714 -0.0565
23545W        W39439   2.154  14.532   3.981  0.0581  0.1867 -0.4313
23546W        W39440   4.095   9.161   1.579  0.0432 -0.1071  0.0395
23547W        W39441   4.188  15.755  10.749  0.2013  0.0404 -0.1544
23548W        W39442  13.630   1.475   0.688  0.0891 -0.1583 -0.1662
23549W        W39443   5.684  13.530   1.191  0.1408 -0.1014  0.0806
23550W        W39444   7.958   2.301   1.416 -0.0530 -0.1582  0.3854
23551W        W39445  11.231  11.485   4.792  0.3275 -0.3542 -0.1577
23552W        W39446  13.336   2.566   4.672  0.0176 -0.1756 -0.0440
23553W        W39447   6.905  17.718   9.718 -0.0799 -0.3092 -0.0372
23554W        W39448  17.561  17.303   4.036  0.2913 -0.0956 -0.3645
23555W        W39449  13.545  16.270   2.413  0.0772 -0.1882  0.0626
23556W        W39450  18.421  18.295   2.041 -0.0808 -0.1865 -0.1748
23557W        W39451   2.189   2.291  11.610 -0.2677  0.2005 -0.0801
23558W        W39452  15.902  15.097  12.598  0.3334 -0.0279 -0.4920
23559W        W39453   2.311   0.867  10.020 -0.1453 -0.0839  0.0040
23560W        W39454  15.601   9.848   0.181  0.0690 -0.1367  0.3772
23561W        W39455   5.728   1.364   2.863 -0.1170  0.0984  0.0505
23562W        W39456  10.479  11.580   4.123  0.1257  0.1486 -0.3152
23563W        W39457   8.481   7.060   4.695  0.2425  0.1292  0.0519
23564W        W39458   6.204  17.196   2.426  0.2583 -0.1960  0.1597
23565W        W39459   5.190   5.087   3.637  0.2147  0.2723 -0.1510
23566W        W39460   1.629  11.512  12.307  0.3393 -0.1731  0.0416
23567W        W39461   6.705  11.799   3.199 -0.0246  0.1042 -0.0290
23568W        W39462   5.863  11.846  13.824  0.2214 -0.0339 -0.1376
23569W        W39463  12.637  17.442  13.889 -0.1376  0.1651  0.1384
23570W        W39464   6.151   2.397   3.622  0.0816  0.0603  0.0096
23571W        W39465   9.774   2.655  10.856  0.4714  0.0550 -0.2989
23572W        W39466   2.566   5.795  13.416 -0.3929 -0.2293  0.1049
23573W        W39467  14.785   9.131   1.737 -0.3265 -0.0035  0.0047
23574W        W39468   6.816  11.364   1.165 -0.3425  0.1062  0.2834
23575W        W39469   3.885  14.436  11.978 -0.0617  0.0403  0.0516
23576W        W39470  16.699  15.749  11.264 -0.0412 -0.2508  0.1968
23577W        W39471   4.812   1.259  12.335  0.2818 -0.1214  0.0199
23578W        W39472   2.481   1.518   3.884 -0.2316  0.4531 -0.1252
23579W        W39473  16.113  14.682  12.263  0.0976  0.0123 -0.1948
23580W        W39474  13.354  12.274   3.142  0.0187 -0.3742  0.0939
23581W        W39475   0.489  13.126  15.300 -0.1782  0.0473  0.2238
23582W        W39476  18.372  16.250  12.010 -0.2288  0.0478  0.1274
23583W        W39477  16.947  14.866   5.664  0.3202  0.2183 -0.0297
23584W        W39478  13.981   5.287  13.077  0.1411  0.2781 -0.0190
23585W        W39479   9.132   2.661   2.749 -0.0084 -0.0754  0.2903
23586W        W39480  14.269   3.203   0.820 -0.0431 -0.1017  0.1318
23587W        W39481   8.828  11.376  11.538 -0.1176  0.2673 -0.1083
23588W        W39482   5.885   8.688   3.535  0.3249 -0.0607  0.0241
23589W        W39483   6.975   2.755  12.463 -0.3405  0.0884  0.1883
23590W        W39484   6.337   7.522  14.260  0.1692  0.1842  0.1831
23591W        W39485  18.613  18.327  13.543  0.2099 -0.0593 -0.1756
23592W        W39486  17.146   8.659  14.817  0.1806  0.0218 -0.0559
23593W        W39487   9.138  15.145   2.714  0.1278  0.0627 -0.2130
23594W        W39488  10.557   9.678   1.725 -0.1335 -0.1852  0.1708
23595W        W39489   0.479   3.974   2.930 -0.1015  0.2299 -0.1181
23596W        W39490   9.086  12.653  11.663 -0.0613 -0.1293  0.1807
23597W        W39491   0.331  14.727  13.852  0.0327  0.0357 -0.1161
23598W        W39492   3.427   9.059   3.298  0.1393  0.0084  0.0436
23599W        W39493   0.146   7.107  13.231 -0.1945  0.0122  0.2241
23600W        W39494  12.135  14.037   3.534  0.2143 -0.3462 -0.1104
23601W        W39495  18.459   1.247  12.801 -0.0039 -0.0414  0.2587
23602W        W39496  12.919   7.112  15.153  0.0797 -0.2381  0.2579
23603W        W39497  17.177  15.272   2.160 -0.2155  0.0843 -0.0215
23604W        W39498   5.685   8.114  12.802 -0.2290  0.1853  0.0816
23605W        W39499  17.385  12.445   4.227  0.0309 -0.0524 -0.2191
23606W        W39500  12.954   5.111  14.108 -0.0573  0.3881  0.0449
23607W        W39501  17.921  17.279   0.588 -0.1136 -0.1824  0.1058
23608W        W39502  16.140   2.851  13.188  0.1491  0.1447 -0.2133
23609W        W39503  15.684   9.711   5.460 -0.1466  0.1738  0.1529
23610W        W39504  14.769   1.055   2.488 -0.0523 -0.2603  0.0398
23611W        W39505  11.561   6.390   3.877  0.1158  0.1759 -0.3399
23612W        W39506  16.304  12.178  14.364  0.0351 -0.1556  0.0938
23613W        W39507  10.467  13.164  13.879  0.0076  0.1434 -0.2976
23614W        W39508  18.303  14.711   3.385  0.1549 -0.1331 -0.3094
23615W        W39509   4.425  10.243  11.653  0.0951 -0.1949  0.1078
23616W        W39510   1.311  10.865   2.951 -0.0160  0.0558  0.2411
23617W        W39511   7.749   5.893  11.496 -0.1325  0.0750 -0.0152
23618W        W39512  13.367  18.494  14.935  0.0220 -0.1902 -0.2165
23619W        W39513  18.208   2.119   0.227  0.1861  0.0121  0.0418
23620W        W39514  12.771   5.831  14.862 -0.0074 -0.2398  0.1727
23621W        W39515   0.420   0.569   3.785 -0.0554  0.0640  0.0098
23622W        W39516  15.582  11.264  13.595  0.0693  0.0392  0.0302
23623W        W39517   1.588   6.916   2.117  0.2059  0.1426 -0.1411
23624W        W39518   9.821   0.402   0.536  0.1758  0.0482  0.1614
23625W        W39519   9.774  15.726   5.148 -0.0550 -0.0570 -0.1575
23626W        W39520  17.774  13.359   4.488 -0.2930  0.3242 -0.0893
23627W        W39521  15.043  14.499   3.485 -0.0663 -0.1534  0.1324
23628W        W39522  11.045  11.805  11.932 -0.0810  0.2745 -0.2098
23629W        W39523   9.649  17.750  11.263  0.3455  0.1077  0.1187
23630W        W39524   9.383   5.373  11.379 -0.1875 -0.0689 -0.0449
23631W        W39525  16.921   4.555  11.030 -0.1235 -0.1363 -0.1202
23632W        W39526   8.554  16.016  13.508 -0.0264  0.1387  0.2973
23633W        W39527   0.070  13.326  12.399  0.0117  0.1413 -0.1236
23634W        W39528   2.329  12.677   6.073 -0.1039  0.2230 -0.0871
23635W        W39529  10.703   3.077  14.690  0.0644 -0.2218 -0.0312
23636W        W39530   3.183   0.176   4.754  0.0681 -0.1086 -0.1613
23637W        W39531   2.983  13.395   3.740  0.1852 -0.2703 -0.1967
23638W        W39532  11.018  10.916  12.849 -0.0266 -0.1406 -0.0175
23639W        W39533  18.297   5.356  14.979 -0.0200  0.0217 -0.1593
23640W        W39534  17.853   0.292   0.127 -0.0769 -0.1587 -0.0467
23641W        W39535   0.123  10.330   1.435 -0.0740  0.0701  0.0959
23642W        W39536   7.043   4.988   2.654  0.0003 -0.1949 -0.0352
23643W        W39537  11.567   2.584   3.511 -0.1192  0.1106  0.0264
23644W        W39538  18.694  13.665   4.640 -0.0070 -0.2482 -0.1911
23645W        W39539   8.942  17.820   0.717  0.1642  0.2521  0.2483
23646W        W39540   2.440   6.659   2.593 -0.5115 -0.0490  0.0369
23647W        W39541   8.233   6.882   0.828  0.0466  0.0516  0.0449
23648W        W39542  11.866   1.025   2.490 -0.0429  0.2424  0.0291
23649W        W39543   9.808  15.987   0.258  0.2638 -0.0380  0.2002
23650W        W39544   9.606   1.356   3.801  0.2735 -0.0553  0.4072
23651W        W39545   5.825  16.051   2.298 -0.1903  0.1246  0.2987
23652W        W39546   8.884  10.613  14.842 -0.1447  0.1807  0.0239
23653W        W39547  15.138  15.616   3.781 -0.1781 -0.0581 -0.0415
23654W        W39548   5.608   6.704  10.013  0.0919  0.0627 -0.1204
23655W        W39549  13.104   4.399   3.852  0.0589 -0.1397  0.0747
23656W        W39550  12.190   1.590  13.763 -0.1200 -0.0199  0.1573
23657W        W39551   5.565   2.538  13.617 -0.1686  0.2008  0.2596
23658W        W39552  10.209   0.546   1.824 -0.0236  0.3339  0.0696
23659W        W39553   9.971   5.491   2.281 -0.4341 -0.0725  0.0581
23660W        W39554   3.802  18.645   0.247 -0.4095  0.0462  0.3326
23661W        W39555  17.033   4.734   5.143 -0.0420  0.0867 -0.0881
23662W        W39556  11.120   1.310   3.640 -0.0798  0.0967  0.3048
23663W        W39557   3.099  16.143  13.032 -0.0459 -0.2868 -0.3437
23664W        W39558   6.531  14.947  11.760 -0.2113 -0.0018 -0.2263
23665W        W39559  14.581  17.161  12.633 -0.2208  0.0978 -0.0554
23666W        W39560  16.506   4.440  10.832  0.0442  0.2997  0.3327
23667W        W39561   6.248  10.551  15.042  0.1783  0.0962  0.0288
23668W        W39562  13.535   4.863  14.343 -0.1853 -0.1677  0.2774
23669W        W39563   9.063  10.808  11.546 -0.0020  0.3351 -0.2766
23670W        W39564  11.744   5.306   1.678 -0.2706 -0.1446  0.0840
23671W        W39565   3.713  12.566  13.687 -0.2119  0.0237 -0.0909
23672W        W39566   5.364   2.543   0.909 -0.0086  0.1271  0.0270
23673W        W39567  13.176   2.298  14.991 -0.2095  0.0652  0.2360
23674W        W39568   1.337  17.893   4.766  0.0245  0.0710 -0.0722
23675W        W39569   7.328   8.563  15.172 -0.1517 -0.1319 -0.3597
23676W        W39570  14.314   9.514   2.541  0.1525 -0.3038  0.1867
23677W        W39571  11.589   1.913   2.288  0.5042  0.3050 -0.1479
23678W        W39572  18.704   6.255  15.000  0.0128 -0.0094  0.6855
23679W        W39573   5.548  12.213   1.900  0.1327  0.0646 -0.1290
23680W        W39574   5.922  11.055   1.719  0.2666 -0.4401  0.1948
23681W        W39575  12.090   9.119  14.174  0.0820 -0.5407  0.0323
23682W        W39576  16.608   3.023   4.176 -0.0058  0.0547  0.2588
23683W        W39577   5.490  15.184  13.973 -0.4230 -0.0068  0.2055
23684W        W39578  12.323  12.064   4.505  0.1229  0.0956  0.3260
23685W        W39579   9.922  12.473   0.390 -0.3706  0.1837  0.1925
23686W        W39580  15.235   1.107  11.564  0.7263  0.0122 -0.0371
23687W        W39581  12.207  10.341  10.986  0.1506  0.0671 -0.0216
23688W        W39582   0.039  14.694  14.279 -0.2579 -0.1497 -0.4760
23689W        W39583   4.286  17.327  15.517 -0.0311  0.0182 -0.0497
23690W        W39584  16.993  16.063   1.435 -0.1220  0.0403 -0.3519
23691W        W39585  18.478   7.790  12.000 -0.2782 -0.2671 -0.0867
23692W        W39586  16.113   0.411   0.678 -0.0899 -0.0291 -0.0121
23693W        W39587  17.664  14.113  12.996  0.0901 -0.0415 -0.1163
23694W        W39588  16.605  15.547  13.948  0.1344 -0.1496  0.0722
23695W        W39589   3.256   3.749   1.823 -0.2319 -0.0473 -0.1632
23696W        W39590  16.502   8.538  12.965 -0.0532 -0.0481  0.2244
23697W        W39591   5.175  15.278   1.938 -0.4547  0.1677 -0.2711
23698W        W39592   2.402  13.420   4.677  0.1496 -0.0451 -0.1651
23699W        W39593  10.553  11.945  14.225  0.0402 -0.2634 -0.2915
23700W        W39594  16.978   4.689  12.680  0.2111 -0.1640  0.2335
23701W        W39595   7.096   0.328   0.023  0.2837  0.0917  0.0841
23702W        W39596  14.732   3.041   2.219 -0.2355  0.2569 -0.0382
23703W        W39597   1.432  12.160  11.682 -0.0886 -0.1087  0.1080
23704W        W39598  14.728   4.731  14.065  0.0122 -0.1293 -0.2503
23705W        W39599   2.213  15.329  14.866 -0.2217  0.4153 -0.2863
23706W        W39600  15.061  13.327   5.690  0.0084 -0.1930 -0.1799
23707W        W39601  17.253   7.197   4.548 -0.2784 -0.1566  0.0077
23708W        W39602   7.356   7.547  12.992  0.2943  0.1733  0.0469
23709W        W39603   6.919   7.785   0.019 -0.0030  0.0042  0.0991
23710W        W39604   2.704   1.165  12.907  0.0863 -0.0449 -0.0659
23711W        W39605  15.787   3.192  11.268  0.3836 -0.1840 -0.2874
23712W        W39606   0.308   9.996   3.608 -0.1705  0.0674  0.0601
23713W        W39607   9.073  13.437  14.869  0.1187 -0.2238 -0.1124
23714W        W39608   8.331   6.505  15.080  0.2764  0.1535  0.0808
23715W        W39609   6.259   2.295  12.208  0.1466 -0.2023  0.2879
23716W        W39610  13.376   2.732  15.287  0.2722 -0.3469 -0.0609
23717W        W39611   3.270   8.248   4.860 -0.4717 -0.3045 -0.1551
23718W        W39612   9.210   7.562  12.541  0.0855  0.0809  0.0363
23719W        W39613   6.602  14.862  10.694  0.2434 -0.0864  0.2314
23720W        W39614   4.618  11.272  10.998 -0.0373 -0.1037 -0.4536
23721W        W39615   1.440   8.609  14.455  0.1738 -0.1789 -0.0835
23722W        W39616  13.696  10.652  12.852 -0.0919 -0.1608 -0.4607
23723W        W39617   5.210  10.258   2.446 -0.3933  0.1079 -0.1827
23724W        W39618   2.918   0.641  12.310  0.0110 -0.0188  0.0804
23725W        W39619   6.613  13.082   1.882  0.2371  0.0677 -0.2355
23726W        W39620  11.782   6.937   3.615  0.0681  0.1105  0.0935
23727W        W39621   0.608  12.178  15.356  0.1534 -0.0325 -0.0335
23728W        W39622  15.750  18.459  13.642 -0.0108 -0.0737  0.1794
23729W        W39623  13.594  10.774   4.745  0.4269 -0.5040 -0.3237
23730W        W39624   9.406   2.803  13.748 -0.1130  0.1785 -0.2245
23731W        W39625   9.785   6.304   0.941  0.3211 -0.0026  0.0199
23732W        W39626   2.322  18.446  14.798  0.2664  0.0046 -0.0303
23733W        W39627   2.487  15.277  10.337  0.0342 -0.0143  0.0609
23734W        W39628   1.471  17.033  14.467  0.1256  0.0071  0.0559
23735W        W39629   8.238   8.207  12.415  0.0412 -0.2099  0.0186
23736W        W39630   1.625  18.222   3.385 -0.4251 -0.0557 -0.2947
23737W        W39631  14.291  17.079  15.503  0.2709 -0.0349 -0.1134
23738W        W39632  15.163  18.327   4.642 -0.3500 -0.1621 -0.0501
23739W        W39633   5.338   9.413   1.403 -0.0861 -0.0159  0.3117
23740W        W39634   2.287   7.702  14.857 -0.1135  0.2444 -0.0396
23741W        W39635  10.158   3.874   0.047  0.2576 -0.0707 -0.0336
23742W        W39636  15.546  14.615   3.754 -0.0073  0.0239 -0.1919
23743W        W39637  14.982   0.901   4.171  0.0388  0.2251  0.1978
23744W        W39638  17.364   5.303   2.137 -0.1559  0.0146  0.0112
23745W        W39639  11.769   6.482   0.500 -0.0385 -0.0465  0.1905
23746W        W39640  16.999   4.360   2.330  0.0084 -0.0804 -0.2483
23747W        W39641  12.347  10.894  15.398 -0.2724  0.1802 -0.1195
23748W        W39642   8.511  15.663  15.246  0.0604  0.1170 -0.1541
23749W        W39643  10.121   3.794   1.332 -0.0480  0.2859 -0.0528
23750W        W39644   1.657   2.882  14.356 -0.1040 -0.0726  0.3208
23751W        W39645  17.808   1.678   6.178 -0.2734  0.1880  0.1511
23752W        W39646  12.880   0.640  11.825 -0.1088 -0.3898  0.0239
23753W        W39647  10.323  13.101  10.075  0.1940 -0.2809  0.1668
23754W        W39648   3.142  18.255   3.066  0.3458  0.0107 -0.0234
23755W        W39649  15.827  15.095  11.262 -0.1308 -0.0255  0.0019
23756W        W39650   3.080   5.105   2.050  0.0430 -0.3087  0.4333
23757W        W39651   0.212   2.912  12.606  0.2749 -0.1222  0.4595
23758W        W39652  12.580  16.954   3.270  0.0610 -0.1542  0.0992
23759W        W39653   8.117  10.714  14.587  0.0529 -0.3554 -0.0803
23760W        W39654  17.420   2.502   0.643  0.1859  0.1906 -0.1266
23761W        W39655   4.808   3.658  11.707  0.0308 -0.0575 -0.0202
23762W        W39656  13.990   8.253   0.183 -0.0827 -0.0282 -0.4914
23763W        W39657  16.220  16.195   2.615  0.0709 -0.2713  0.0115
23764W        W39658  13.777  11.343   5.666 -0.2886  0.0621 -0.0721
23765W        W39659   3.114   6.595   4.171  0.1462  0.1775 -0.1759
23766W        W39660   7.133  16.117  11.181  0.1864  0.1395  0.3844
23767W        W39661   2.191  10.833  11.874  0.2509  0.0280  0.0995
23768W        W39662  16.807  10.009   5.304 -0.2311  0.2445  0.4072
23769W        W39663   9.135   9.886   5.384  0.1329 -0.0499 -0.3293
23770W        W39664   1.373  13.880   2.508  0.0028  0.0507 -0.1326
23771W        W39665   3.325  14.958   4.600  0.1070  0.4579  0.1388
23772W        W39666  15.360   6.139   2.609  0.1545  0.2233 -0.1767
23773W        W39667  16.945   1.489   4.027 -0.3235  0.0044 -0.0101
23774W        W39668   4.883   9.523   5.030  0.0887 -0.1397  0.1261
23775W        W39669  11.441   2.932  13.627 -0.1026  0.1626 -0.2457
23776W        W39670  10.237  12.635   0.745 -0.0771  0.2658  0.2569
23777W        W39671  11.600   4.508   3.486 -0.3637  0.3740 -0.1236
23778W        W39672   0.981   5.042  11.166 -0.1372 -0.0453  0.1667
23779W        W39673   3.176   3.214  15.235 -0.0301 -0.0069  0.2258
23780W        W39674  16.454  15.914   4.093 -0.2529  0.1193  0.3286
23781W        W39675   5.339  11.022  13.046  0.2264 -0.1805  0.0362
23782W        W39676  16.448  10.794   0.212 -0.1201  0.1546  0.1770
23783W        W39677   8.139  18.068   0.690  0.1147  0.4219 -0.0469
23784W        W39678  13.050   6.361   1.834 -0.0389 -0.2638 -0.0140
23785W        W39679  11.150   1.031   3.201  0.2612  0.0615 -0.2202
23786W        W39680   8.985   8.325  12.515 -0.0817 -0.3742 -0.1415
23787W        W39681   5.623  15.597  14.904 -0.1279 -0.0385  0.0443
23788W        W39682   5.353  11.436   3.301  0.2553 -0.1261  0.3307
23789W        W39683  10.563   3.783   1.600  0.1946 -0.0691 -0.2689
23790W        W39684  14.061  10.644  13.292  0.0727  0.2051 -0.1650
23791W        W39685   6.290   0.130   4.835 -0.0265 -0.0356  0.0108
23792W        W39686   7.615   0.539   0.134  0.0728  0.1401 -0.0400
23793W        W39687   6.573   9.138  14.814 -0.0906 -0.2135  0.1450
23794W        W39688  16.726   8.376  10.893  0.1067  0.0837  0.1923
23795W        W39689   9.472  12.449   3.847 -0.0599  0.0468 -0.1585
23796W        W39690   1.810   3.160  15.030  0.2305 -0.1729 -0.1184
23797W        W39691   0.964   1.097   2.543  0.4443  0.1403 -0.1839
23798W        W39692   5.583   5.934   3.670 -0.1255  0.3003  0.1915
23799W        W39693   5.751   5.574  15.263  0.0652  0.2259  0.1898
23800W        W39694   6.020  15.324  13.902  0.2962 -0.1389  0.0358
23801W        W39695   2.588  13.627   0.751 -0.1496 -0.4250  0.1345
23802W        W39696   9.117  13.175   5.122 -0.2378  0.0579 -0.0722
23803W        W39697   7.777  14.502   2.788  0.0411 -0.2899 -0.1158
23804W        W39698  11.884  13.309  14.196  0.2094  0.0145  0.1241
23805W        W39699   2.772   7.805  13.982 -0.0177 -0.1318 -0.0967
23806W        W39700  17.960  14.944  14.401 -0.0360  0.3886 -0.0371
23807W        W39701  18.076  14.914   1.137  0.3767  0.1334  0.0715
23808W        W39702   1.136   1.007  11.392  0.1371  0.2813 -0.0732
23809W        W39703   0.448   2.392   5.416  0.2664  0.1025  0.0627
23810W        W39704  12.447   9.386  14.460 -0.1073 -0.0590  0.1409
23811W        W39705   5.776  14.856  14.202 -0.3209 -0.2446  0.0272
23812W        W39706  17.327   9.962  13.764 -0.2109  0.1414  0.3815
23813W        W39707  13.506   9.897   3.465 -0.1902  0.0583 -0.2079
23814W        W39708   6.876   6.263   3.428  0.0773 -0.0651  0.0626
23815W        W39709   0.342  10.218   0.305 -0.0491  0.0097 -0.1865
23816W        W39710  15.627  14.761   0.782  0.4638  0.2168 -0.2117
23817W        W39711  14.649   5.221   3.793  0.1003 -0.1390 -0.2746
23818W        W39712   0.350  18.364   4.375 -0.1751 -0.2012 -0.2588
23819W        W39713  10.567   4.316   4.407 -0.0690  0.1746  0.1970
23820W        W39714   5.063  18.097   0.676 -0.0328 -0.0566 -0.2407
23821W        W39715   2.813   0.088   1.926  0.0395  0.0437 -0.1271
23822W        W39716  17.036  13.798  11.843  0.2860  0.2797  0.2230
23823W        W39717  11.881  18.244  12.305  0.2336  0.1071 -0.0036
23824W        W39718   0.098  15.257   0.548  0.0640  0.1247 -0.1025
23825W        W39719  15.939  17.065  12.762 -0.2672  0.0010 -0.0089
23826W        W39720   3.307   6.260   2.711  0.2013 -0.0618  0.1776
23827W        W39721  12.843  13.551  13.979 -0.0120  0.1487 -0.2507
23828W        W39722  14.752   0.828   0.109 -0.3096  0.1362  0.2099
23829W        W39723   7.237  16.142  12.404  0.1114 -0.0759  0.0864
23830W        W39724   8.893   4.122   2.813 -0.1124  0.1668 -0.1264
23831W        W39725   4.096  17.609  12.343 -0.1388  0.0171 -0.1924
23832W        W39726   2.010   5.023   3.342 -0.1618 -0.0786 -0.0238
23833W        W39727   8.249   5.622   3.342 -0.0301 -0.0633 -0.1009
23834W        W39728  12.120  17.353   1.646  0.3474 -0.0621 -0.0164
23835W        W39729   8.360  17.157  12.524  0.1376 -0.1346 -0.2244
23836W        W39730   8.794  13.109  15.153 -0.3367 -0.1029  0.4395
23837W        W39731  16.428   8.619   5.314 -0.0928  0.0702  0.3027
23838W        W39732  10.643   5.829  15.310 -0.2076  0.3305  0.2242
23839W        W39733   4.245  14.654   4.551 -0.0916 -0.0676 -0.1130
23840W        W39734   0.142   1.556  14.939  0.1990 -0.0241 -0.0602
23841W        W39735   4.401   9.266  14.582 -0.0737  0.1978 -0.1305
23842W        W39736   3.339   2.471   1.590 -0.1260 -0.0470 -0.0975
23843W        W39737   6.201   1.716   5.362 -0.0022  0.3498 -0.0368
23844W        W39738  18.723   2.684  13.063  0.0015  0.4486 -0.2233
23845W        W39739  13.148  15.028  12.083  0.2933 -0.2188 -0.0988
23846W        W39740  15.816   9.522  14.142 -0.3915 -0.0862 -0.1708
23847W        W39741   4.739  11.672  14.154  0.3933 -0.1525  0.3659
23848W        W39742   9.970   3.520   0.865 -0.1050 -0.2254  0.0417
23849W        W39743  16.634   2.587   0.400 -0.1622 -0.2522  0.1073
23850W        W39744   2.096  16.013   2.298 -0.2455  0.0492  0.0536
23851W        W39745   1.237  18.617   2.896  0.0514 -0.0082  0.1855
23852W        W39746   3.360   0.177   1.077  0.0857 -0.0241  0.1931
23853W        W39747  10.868   0.674   2.310  0.2231  0.0057  0.0473
23854W        W39748  16.957  17.217  14.419 -0.1042 -0.0818 -0.0743
23855W        W39749  16.279  14.412   1.824 -0.0272  0.1043  0.0614
23856W        W39750   7.096  15.926  10.660 -0.2308  0.0820  0.0553
23857W        W39751   5.204  17.180   1.735  0.3379  0.2712 -0.1544
23858W        W39752  11.163   5.235   5.877 -0.3710 -0.1392  0.0745
23859W        W39753   1.418   6.182   0.521  0.0479 -0.2124  0.0689
23860W        W39754   2.496   3.773   4.871  0.1023  0.2050 -0.0597
23861W        W39755   5.849   5.153   4.070  0.1522  0.0610 -0.1472
23862W        W39756  17.528  10.097   3.698  0.2539  0.0241 -0.0510
23863W        W39757  15.883   3.791  14.386  0.5217 -0.0840 -0.1516
23864W        W39758  11.873  10.983  14.351  0.0174  0.0072  0.0814
23865W        W39759  16.999  13.130   0.846  0.1854  0.0569 -0.1464
23866W        W39760  15.253  17.189  14.421  0.0129  0.1121  0.2885
23867W        W39761  15.344   6.858  12.156  0.0962  0.1678 -0.1907
23868W        W39762  12.961  14.688   5.357  0.2055  0.2087  0.0199
23869W        W39763  10.063   7.010  12.829 -0.1160  0.1378  0.1342
23870W        W39764  10.140   6.983   3.171 -0.1669  0.3920 -0.0776
23871W        W39765  11.592   3.973   3.447 -0.1322 -0.2629  0.2147
23872W        W39766   4.469   2.979  13.058 -0.0386  0.0621  0.2552
23873W        W39767   0.931   0.076   4.773 -0.2558  0.1859 -0.3107
23874W        W39768  10.561  13.371   3.878  0.1709 -0.0017  0.0924
23875W        W39769  17.246  18.071  10.947  0.0654 -0.0874 -0.0005
23876W        W39770  13.676   3.026   4.756 -0.1153  0.5029  0.3754
23877W        W39771  18.071  11.798   0.372 -0.0071  0.1001  0.3365
23878W        W39772  15.689  18.429  11.735 -0.4732  0.1735 -0.0261
23879W        W39773   4.026   9.658  11.417  0.0194  0.1321  0.1472
23880W        W39774  17.638  10.084  14.195  0.0172 -0.3957  0.1475
23881W        W39775  17.175  12.451  13.264  0.0359  0.0508 -0.0607
23882W        W39776   6.949   5.231   4.859  0.0449  0.2588 -0.1916
23883W        W39777  11.095   6.725   2.718 -0.2174 -0.0590  0.1929
23884W        W39778  11.485  13.927  11.111 -0.1789 -0.2031  0.0311
23885W        W39779  10.213  13.354   4.279 -0.2515 -0.2772  0.2756
23886W        W39780  14.098  12.577   2.798  0.0979 -0.0223 -0.0996
23887W        W39781  12.921   8.187  12.736 -0.1719  0.1285 -0.0463
23888W        W39782  13.315  17.478   0.135 -0.1094  0.0994  0.1006
23889W        W39783  17.000   0.973  12.174  0.0405  0.1533 -0.0205
23890W        W39784  11.097   8.088  14.214  0.2106 -0.0114 -0.0103
23891W        W39785   4.252  18.359   2.429  0.1501  0.2223  0.1011
23892W        W39786   2.399  10.336  10.790 -0.0444 -0.2746 -0.2098
23893W        W39787  16.552   8.251   0.901 -0.1566  0.2711 -0.0737
23894W        W39788  10.561   5.975  11.395  0.0094 -0.1436 -0.5035
23895W        W39789  17.904   0.791   1.947 -0.3694 -0.3627  0.3495
23896W        W39790   7.372   2.894   3.632  0.1737  0.0445  0.0328
23897W        W39791   4.032   6.413   3.418  0.0857 -0.1784 -0.0237
23898W        W39792   8.581   9.755  10.516  0.2064  0.0881 -0.2766
23899W        W39793   5.189   1.815   0.048 -0.0249  0.3020 -0.2509
23900W        W39794   2.962  10.085  13.447 -0.0533 -0.0559  0.0632
23901W        W39795   1.639   3.965   5.271 -0.3371 -0.2555  0.0656
23902W        W39796  16.550   2.796   1.273 -0.0873 -0.0017  0.0179
23903W        W39797   7.042   8.051  11.478  0.0663  0.0339 -0.1183
23904W        W39798   7.147  11.929   2.955 -0.3713 -0.3658  0.0432
23905W        W39799  11.743   9.891   5.693  0.0013 -0.1069 -0.1198
23906W        W39800   3.340   2.529  11.654 -0.1097 -0.3890 -0.0739
23907W        W39801   5.567   5.458   5.038  0.0788  0.1141 -0.0336
23908W        W39802   9.158  11.680   3.894 -0.0978  0.2084 -0.3240
23909W        W39803   1.260   0.734   2.313 -0.0027  0.0219 -0.0401
23910W        W39804  14.162   5.015   0.790  0.2195  0.3051  0.1000
23911W        W39805   8.315   0.706  13.188  0.2370 -0.0933 -0.2254
23912W        W39806   0.260   1.391   2.143 -0.3876  0.0355 -0.1526
23913W        W39807   7.652   5.205   3.200 -0.1958 -0.1277 -0.1058
23914W        W39808  13.632  10.191  13.154  0.0991  0.2979  0.0408
23915W        W39809  13.474   7.257   0.339 -0.1378 -0.1416 -0.0400
23916W        W39810   6.371  14.416   0.657 -0.2467 -0.0030  0.2109
23917W        W39811   5.569  17.366  11.352 -0.0970 -0.7157  0.2095
23918W        W39812  11.000  15.040   5.017 -0.0086  0.0235  0.0419
23919W        W39813   1.686  12.607  11.395 -0.0373  0.0625 -0.1391
23920W        W39814   1.991  10.879   2.346 -0.2465 -0.1985 -0.0019
23921W        W39815   5.893  14.241   9.410  0.1583 -0.0335 -0.1364
23922W        W39816   5.320  16.056  14.230  0.1472 -0.0896  0.2464
23923W        W39817  12.833   4.402  15.057  0.2542  0.5234  0.0986
23924W        W39818   0.468  17.743   0.284 -0.2822  0.1402 -0.1392
23925W        W39819   2.604  18.237  13.001 -0.0824  0.1564 -0.0889
23926W        W39820  10.623  12.470   2.852 -0.0570  0.2894 -0.1263
23927W        W39821   8.265  12.444  11.121 -0.0669 -0.0134  0.2023
23928W        W39822  16.574   5.642   5.533 -0.0762 -0.0147  0.1537
23929W        W39823   2.974  10.436   0.484 -0.0055 -0.0617 -0.1315
23930W        W39824   1.657  18.552  10.476 -0.0095  0.1068 -0.0816
23931W        W39825  14.318   9.194  11.485  0.2606  0.3354 -0.0115
23932W        W39826   2.849   1.488  11.800 -0.0359  0.0383  0.1361
23933W        W39827   7.179   2.927  13.486 -0.0158 -0.3415  0.0623
23934W        W39828  15.086  14.768   3.051  0.2915 -0.5445 -0.1156
23935W        W39829   4.461  10.595   3.863  0.4311 -0.0479 -0.0388
23936W        W39830  13.527   2.105  12.293  0.2780  0.0669  0.3530
23937W        W39831   9.327   3.387  13.715  0.3340  0.2518  0.0837
23938W        W39832   4.304   3.830   2.049 -0.4133 -0.4276  0.0493
23939W        W39833  11.802   9.559  11.327 -0.1326  0.1086 -0.3489
23940W        W39834  11.160   5.946   3.901 -0.0265 -0.2960  0.3359
23941W        W39835  18.515  18.395   4.198 -0.0645 -0.1894  0.0775
23942W        W39836   6.906   3.507   2.389 -0.1417 -0.0812  0.0394
23943W        W39837   5.990   2.592   3.128 -0.1486 -0.0854 -0.0367
23944W        W39838  14.085   8.553  14.636  0.4414 -0.1306  0.0355
23945W        W39839   4.885   9.391  14.538 -0.0688 -0.0191 -0.0213
23946W        W39840   1.589  11.372   4.279 -0.0403 -0.2716 -0.1763
23947W        W39841   7.262   4.664   5.709 -0.1590 -0.1314  0.0751
23948W        W39842   7.030   4.888   0.739 -0.2041  0.0391 -0.3062
23949W        W39843   8.041   0.996  11.353  0.3621 -0.2278  0.2871
23950W        W39844  10.519  11.535   0.694  0.0934  0.2367 -0.0280
23951W        W39845   2.801   9.609  13.560 -0.0434 -0.0184 -0.1972
23952W        W39846   9.878  11.955  13.223  0.2432  0.2163  0.3185
23953W        W39847  18.501  13.003  11.484 -0.0018  0.0248  0.1116
23954W        W39848   8.795   8.013   4.568 -0.1046 -0.1069 -0.0729
23955W        W39849   0.595   1.890  15.113  0.0777 -0.1930 -0.0088
23956W        W39850  15.826  10.269   0.289 -0.2736 -0.0682 -0.1008
23957W        W39851   6.064  14.547   2.524 -0.3272 -0.0358 -0.1837
23958W        W39852  13.510   1.167  10.792 -0.1586  0.1835 -0.0111
23959W        W39853  17.154  12.794  14.638  0.2372  0.1208  0.3732
23960W        W39854  16.425  10.896   0.690 -0.1511  0.1702 -0.1157
23961W        W39855  17.701   5.980  11.624  0.2380 -0.1853 -0.2907
23962W        W39856   0.529   7.898  12.428 -0.2243  0.2876  0.1699
23963W        W39857   5.982   6.684   0.666 -0.3465 -0.5454  0.4080
23964W        W39858   5.676   1.287   4.919  0.0281  0.1118 -0.0837
23965W        W39859   0.389   5.491  14.889 -0.1850 -0.1732 -0.0645
23966W        W39860  13.879  10.682   2.648  0.0433  0.0249  0.0667
23967W        W39861  13.943  17.678  12.732  0.1892  0.1975  0.1402
23968W        W39862  18.353  15.928   4.731  0.1134 -0.1588  0.1699
23969W        W39863   5.821   7.382  13.263  0.2096 -0.0723  0.0359
23970W        W39864  12.668   9.815  15.216 -0.1339 -0.0069  0.2120
23971W        W39865  14.443  11.757   1.920 -0.0357 -0.0205  0.1924
23972W        W39866   0.716   9.603  11.287  0.3144 -0.1141  0.0058
23973W        W39867  13.305   0.557   2.976  0.0735 -0.1964  0.0921
23974W        W39868   2.338   0.926   5.484 -0.2015 -0.1364 -0.0213
23975W        W39869   1.908  16.613  13.249 -0.0815  0.2607  0.2265
23976W        W39870  11.435  12.615   3.208 -0.1968  0.4182 -0.1130
23977W        W39871  11.212   6.362   3.069 -0.1626  0.2332 -0.1765
23978W        W39872  18.250   3.052   2.566  0.1416  0.0977  0.1640
23979W        W39873   7.605  17.028   2.947  0.3435  0.2107 -0.2329
23980W        W39874   4.227   9.645   4.123  0.5466  0.1276  0.0742
23981W        W39875   2.133  16.939  11.421 -0.0160  0.0336  0.0130
23982W        W39876  11.162   6.137   2.608  0.1299  0.0496  0.0431
23983W        W39877  15.455   8.088  14.635 -0.2143  0.3062 -0.0755
23984W        W39878   1.176   4.428   3.005 -0.2417 -0.2592  0.1307
23985W        W39879  13.979   4.113  12.460  0.0783 -0.1967 -0.2777
23986W        W39880  13.835  13.160   1.574  0.0181 -0.0274 -0.0817
23987W        W39881   6.573  11.321  12.874 -0.1806 -0.3147  0.0879
23988W        W39882  18.162   2.118  11.793  0.0729 -0.1979 -0.2275
23989W        W39883   4.235  10.438  14.364 -0.0119 -0.2728  0.3367
23990W        W39884   6.393   7.086  10.408  0.2717  0.3041  0.0495
23991W        W39885  10.609   3.378   5.245 -0.3067  0.0385 -0.2050
23992W        W39886  13.128   5.393  14.835 -0.2745 -0.2047 -0.0374
23993W        W39887  18.014   4.608  14.516  0.1166  0.0791 -0.0008
23994W        W39888   0.900  10.219  14.417 -0.2312 -0.0885  0.0446
23995W        W39889  16.513   8.603   2.733 -0.0557 -0.1115  0.3276
23996W        W39890  12.087  17.617   1.199  0.0785 -0.0062 -0.0427
23997W        W39891  11.445  17.770   5.111  0.0154  0.2948  0.3142
23998W        W39892  14.215   8.737   4.121  0.1522  0.1605 -0.0988
23999W        W39893  13.665   3.755   0.841 -0.2318  0.0194  0.1088
24000W        W39894   9.907  11.527  13.406  0.3189  0.0813  0.1236
24001W        W39895   5.907   3.366   1.782 -0.1270  0.0241 -0.0421
24002W        W39896  15.270   4.267   4.470  0.0628 -0.3809 -0.1705
24003W        W39897   2.602   8.991   2.511  0.0879  0.0040 -0.0558
24004W        W39898   3.026  11.115  10.659  0.0382 -0.0137  0.1116
24005W        W39899  17.424  16.108  11.173 -0.1153  0.1530 -0.1616
24006W        W39900  14.963  14.167   0.593  0.1057 -0.1063 -0.2023
24007W        W39901  12.149  16.281  13.107  0.2507 -0.2540 -0.3424
24008W        W39902   8.009   3.474  15.459  0.0162  0.0052 -0.2272
24009W        W39903   3.008  17.084  10.854 -0.1308 -0.1206  0.0773
24010W        W39904  17.339   3.739  13.377  0.0560 -0.2016 -0.0146
24011W        W39905   0.714  12.101   4.933  0.1357 -0.1250 -0.0259
24012W        W39906  12.481   2.852  13.818  0.3101  0.0418 -0.0312
24013W        W39907  14.201  14.335   1.250 -0.0563  0.2557 -0.0281
24014W        W39908   0.646   6.337   2.211 -0.0522 -0.3742 -0.2078
24015W        W39909   7.766  11.439  14.449 -0.1893  0.1150 -0.0276
24016W        W39910  13.928  11.627  14.282 -0.2523  0.2043 -0.1122
24017W        W39911  12.828  16.397   5.424  0.0255 -0.0962 -0.0199
24018W        W39912   9.282   0.172   5.377  0.1263 -0.1407  0.1362
24019W        W39913  15.813   9.341  13.308  0.0130  0.3438  0.0212
24020W        W39914   9.207  10.175   2.862 -0.0537  0.2900  0.0654
24021W        W39915  12.990   4.655  11.795  0.1104  0.0004 -0.4129
24022W        W39916   1.093   4.087  14.469 -0.1257  0.0201  0.2713
24023W        W39917  12.170  16.610  11.736 -0.0610  0.0031  0.0165
24024W        W39918  15.477   5.596  13.785 -0.2733  0.0155  0.2614
24025W        W39919   7.296  16.146  11.635  0.1144  0.2565  0.1327
24026W        W39920  10.862   8.316   0.361 -0.1309 -0.1478  0.2951
24027W        W39921   7.673  10.804  11.233 -0.1115 -0.2025 -0.3831
24028W        W39922  15.300   7.944   5.433 -0.0888  0.1472 -0.0715
24029W        W39923   0.660  12.252  13.264 -0.0025  0.1096 -0.2594
24030W        W39924   6.152   1.271   3.038 -0.0237  0.0166  0.3799
24031W        W39925   5.316  14.925   3.593 -0.0355  0.0682  0.2469
24032W        W39926  13.725  17.585   4.572  0.1851  0.2683 -0.2240
24033W        W39927  17.014  12.500  15.626 -0.0936  0.0399  0.0387
24034W        W39928   6.426   7.702   2.531 -0.0180 -0.0879  0.2668
24035W        W39929  13.979   1.424   3.730  0.2130  0.1406 -0.0289
24036W        W39930   8.282  14.472   1.085 -0.1020 -0.3170  0.0460
24037W        W39931  18.146  11.936  15.531 -0.1378  0.0423 -0.0922
24038W        W39932   7.772   3.245  15.041 -0.1262  0.1996 -0.0782
24039W        W39933   1.338   8.745   1.507  0.2272 -0.1190 -0.3628
24040W        W39934   8.833  12.748   0.914 -0.1359  0.0158 -0.0382
24041W        W39935   7.709  12.310  14.621 -0.0171  0.0519 -0.2599
24042W        W39936   2.510  16.362  12.063 -0.0275  0.2353 -0.0704
24043W        W39937   6.398  16.786  14.831  0.1847  0.1506 -0.1416
24044W        W39938   5.565   8.106  12.328  0.1585 -0.0710  0.1179
24045W        W39939   3.431   8.629   5.343 -0.3087 -0.2759  0.1172
24046W        W39940  14.540  10.474  14.252 -0.1572 -0.0003 -0.0681
24047W        W39941   5.250   2.693  11.524  0.3457  0.1145 -0.1811
24048W        W39942   3.057  13.382   2.188 -0.2149  0.0883  0.2550
24049W        W39943  13.787   6.222   1.210 -0.2718  0.3335 -0.1380
24050W        W39944   5.482   8.174  13.806 -0.0125  0.0754  0.0096
24051W        W39945   4.849  14.202   0.523  0.2795  0.1937  0.0123
24052W        W39946   7.296   9.498   1.882  0.3043  0.0792 -0.0230
24053W        W39947  13.340   1.074   3.082  0.1375  0.1949 -0.0901
24054W        W39948   9.088  17.220  11.428  0.0942 -0.0148  0.0482
24055W        W39949  13.548  15.963  11.655 -0.0636 -0.1912 -0.0394
24056W        W39950   3.031  11.682  12.386 -0.4409  0.2414 -0.2593
24057W        W39951   1.013  16.590  10.806 -0.0825  0.1135 -0.0053
24058W        W39952  14.964   6.219   2.352 -0.0297 -0.4531  0.0187
24059W        W39953  17.192   3.782  12.165  0.2237 -0.0943  0.0026
24060W        W39954   6.769   3.006  14.490 -0.0445  0.0096 -0.1369
24061W        W39955   0.651  15.659  15.007 -0.0861  0.0223 -0.1651
24062W        W39956   3.857  16.516  11.020 -0.1484 -0.0647 -0.0688
24063W        W39957  18.339   9.009  14.834  0.0142  0.3467  0.2805
24064W        W39958  16.812  14.810   4.746 -0.1214  0.1582  0.2656
24065W        W39959   5.362  10.941  15.353  0.1508 -0.0408 -0.3385
24066W        W39960  15.235  12.696  13.571 -0.1579  0.1498 -0.1962
24067W        W39961   6.547   9.849   1.028 -0.0907 -0.0963  0.2390
24068W        W39962  16.746   5.975  13.839  0.2608  0.0312  0.2396
24069W        W39963   0.638   3.255   1.519 -0.0832 -0.0858 -0.2955
24070W        W39964  13.165   4.275  11.467  0.1948  0.0659  0.2080
24071W        W39965   3.753   3.967  14.961  0.1966  0.0819 -0.0563
24072W        W39966   2.712   0.869   1.332  0.3241  0.1106  0.0717
24073W        W39967   4.253   3.038  12.292 -0.0837  0.1628 -0.0770
24074W        W39968  15.897   1.596   4.944  0.0573 -0.0616  0.0068
24075W        W39969   8.839  12.417   3.513 -0.1626 -0.3042  0.0689
24076W        W39970  11.041   2.501  10.680  0.1134 -0.1476  0.2229
24077W        W39971  15.489   0.940   0.814  0.2375 -0.2106 -0.1340
24078W        W39972   3.547   2.627   0.628  0.0651 -0.0877 -0.0649
24079W        W39973  15.283  15.174   3.980  0.2254 -0.0868  0.0947
24080W        W39974  17.759   5.478  11.546  0.0650 -0.2600 -0.0384
24081W        W39975   3.300   3.723   0.958  0.0824  0.0547  0.0955
24082W        W39976  15.469  18.259  15.385  0.3095 -0.4893 -0.1063
24083W        W39977  17.684  12.852  14.578  0.0605 -0.1609 -0.4030
24084W        W39978  11.514   2.096  14.651 -0.0870 -0.1656  0.0567
24085W        W39979   6.666   8.199   4.999  0.0548  0.1118  0.3533
24086W        W39980  13.971  18.614  13.760  0.0933 -0.0591  0.1294
24087W        W39981  15.797   2.447   5.973  0.0208 -0.0939  0.2102
24088W        W39982   3.318  10.996   2.585  0.3247  0.1896  0.0141
24089W        W39983  12.147  17.783  14.904 -0.1154  0.0936 -0.1193
24090W        W39984  18.268   2.863   3.459 -0.2377 -0.0109  0.0306
24091W        W39985   3.993  17.414  10.411 -0.0519 -0.2429 -0.2089
24092W        W39986  10.012   8.965  11.093  0.4216 -0.2346  0.0724
24093W        W39987   0.623   0.027  14.537 -0.1568 -0.0915  0.0317
24094W        W39988  16.618   5.488  14.715  0.1422  0.1178 -0.0856
24095W        W39989  11.789   1.818  11.846 -0.0472  0.0688 -0.0538
24096W        W39990   4.726  11.036   3.724 -0.2761 -0.0289  0.0959
24097W        W39991   3.175   5.074  13.785  0.4045  0.2415  0.0029
24098W        W39992   0.070  18.584   1.529  0.2407 -0.0485  0.0670
24099W        W39993  18.753   1.302   5.558  0.0241  0.2831  0.1271
24100W        W39994   0.987  10.478   5.262  0.2048  0.1327  0.1094
24101W        W39995   6.901   1.145  14.727  0.4109  0.0585 -0.3394
24102W        W39996   9.563   5.105   0.136 -0.2240  0.0410 -0.0846
24103W        W39997   8.929   2.831  12.512  0.2034  0.1218  0.1982
24104W        W39998  17.627   0.983  15.176 -0.0822  0.0148 -0.1100
24105W        W39999  13.845  10.332  15.404 -0.1811 -0.0302 -0.3091
24106W        W40000   4.182  16.237  10.592 -0.0228 -0.0066 -0.0628
24107W        W40001  17.340  16.171   5.136 -0.1307 -0.1357 -0.2928
24108W        W40002   3.108  12.950   3.952  0.1547  0.2227 -0.0222
24109W        W40003   2.029   0.668   0.775 -0.0911  0.2690  0.0383
24110W        W40004  10.977   6.249   4.941  0.0717  0.1242 -0.0632
24111W        W40005   6.821  18.133  12.036 -0.1357  0.2708  0.0624
24112W        W40006   5.801  15.122  14.899  0.1432  0.1572  0.0702
24113W        W40007  18.523   9.026   2.573 -0.4053 -0.1589  0.0904
24114W        W40008   3.559   1.619  12.753  0.1804  0.1754  0.2508
24115W        W40009   2.932   8.781   1.161 -0.3714  0.1102 -0.1227
24116W        W40010   9.037   2.481  13.446  0.1834 -0.3585 -0.2067
24117W        W40011  16.213   9.837   2.674 -0.6060 -0.1292  0.1756
24118W        W40012   2.845  13.489   0.315 -0.2624 -0.1375 -0.0337
24119W        W40013  16.535  15.195   5.656  0.0986  0.2808  0.3712
24120W        W40014   8.642   4.726  12.051  0.2506  0.1282  0.0386
24121W        W40015  11.708  14.283   0.553 -0.1051 -0.3295 -0.0353
24122W        W40016  10.503   3.938  12.700  0.1234 -0.1204  0.4153
24123W        W40017   9.865   8.641   1.468 -0.0418  0.3526 -0.0873
24124W        W40018  14.596   4.626   3.752  0.1173  0.3215 -0.2212
24125W        W40019  16.227  12.003   2.568  0.3467  0.0776  0.3767
24126W        W40020  16.215   6.900   5.218 -0.0443  0.2256  0.0516
24127W        W40021   5.550  15.716   2.127  0.3599  0.0550  0.0761
24128W        W40022  17.802   5.840   4.021  0.2765  0.2261 -0.0751
24129W        W40023  15.478   3.667   0.767 -0.1450  0.2420  0.0249
24130W        W40024   5.352   1.435   2.594 -0.3253 -0.2642  0.4635
24131W        W40025  16.796  10.955  13.628  0.2213  0.0542  0.0536
24132W        W40026  15.997  14.820  13.386 -0.0032 -0.4045  0.0047
24133W        W40027  11.497  18.704   0.215  0.1242 -0.2308  0.1073
24134W        W40028  16.643  18.407   4.960 -0.0198  0.2644  0.0047
24135W        W40029  11.471   8.894   2.842 -0.1247  0.1703 -0.0535
24136W        W40030  10.315  14.324  12.592  0.0161 -0.0075 -0.0247
24137W        W40031   1.579   3.107   3.409  0.0937 -0.1725 -0.1094
24138W        W40032   3.689   2.399   3.742  0.2626 -0.1943  0.1059
24139W        W40033   1.301   7.836   5.071 -0.0040  0.0762  0.2382
24140W        W40034  10.515   4.313  13.256  0.0623 -0.1874 -0.2406
24141W        W40035  18.546  17.053   3.693  0.0113  0.0331 -0.2953
24142W        W40036   8.259   3.539  13.543 -0.0532  0.2557  0.0161
24143W        W40037   4.278  17.816  13.137 -0.1903  0.1056  0.3251
24144W        W40038  12.669  14.080   0.995  0.0251 -0.1010  0.1441
24145W        W40039  15.690  16.276   5.929 -0.1494 -0.0276  0.1287
24146W        W40040   6.748   7.204   4.673  0.0744 -0.1569  0.1298
24147W        W40041   4.464  11.367   1.458  0.1709 -0.1694 -0.0731
24148W        W40042  10.279  18.576  15.018 -0.2137 -0.0456 -0.1167
24149W        W40043  11.094  16.867   0.947 -0.0405 -0.0689 -0.3354
24150W        W40044  17.593  13.668  13.290 -0.1143 -0.0347 -0.0867
24151W        W40045   1.985  16.872   3.449  0.0856  0.0689 -0.2862
24152W        W40046  11.459  12.956   1.735  0.4067 -0.3818 -0.0921
24153W        W40047  17.280   8.691   4.824 -0.3532  0.0940 -0.0046
24154W        W40048   3.457  11.012   1.636  0.1522  0.1562 -0.1199
24155W        W40049   4.146   5.919  12.524  0.3525  0.1272  0.1760
24156W        W40050  13.863  18.119   1.315 -0.0954 -0.1131 -0.2295
24157W        W40051  10.753   1.789   0.703 -0.1274 -0.1466  0.1835
24158W        W40052  18.563   0.120  11.892 -0.0515  0.2728  0.1495
24159W        W40053  17.492   4.987   5.206 -0.1579  0.0289 -0.0757
24160W        W40054  13.358  13.598  13.371 -0.0600  0.3819  0.0515
24161W        W40055   9.404   3.254   0.057 -0.1817 -0.2620  0.0482
24162W        W40056  14.270   6.926   2.452  0.0124  0.0067 -0.1275
24163W        W40057  11.285   0.825  15.365  0.1533  0.0182 -0.0964
24164W        W40058   1.884  18.284   4.803 -0.1361 -0.2146  0.2677
24165W        W40059   4.104  13.543   0.264  0.0585 -0.1409 -0.0863
24166W        W40060   7.572  11.947  11.960  0.1689 -0.0371  0.0690
24167W        W40061   6.089   6.149   5.556  0.2889 -0.0344  0.0449
24168W        W40062  15.446   2.634  14.826  0.1041  0.3059  0.1070
24169W        W40063  16.837  17.253  12.537  0.1164 -0.0117  0.1103
24170W        W40064  14.414  17.514   3.494  0.2640 -0.2191 -0.0405
24171W        W40065  18.339  12.036  14.650  0.5190  0.0143  0.0052
24172W        W40066   0.265   3.114   2.966  0.0241  0.1585  0.5584
24173W        W40067   3.861  10.267  14.785  0.1015  0.2299  0.0253
24174W        W40068  14.222   8.206  11.563 -0.0962  0.0942 -0.0671
24175W        W40069  18.765   7.144   3.716  0.0166  0.1660 -0.0227
24176W        W40070  15.791  16.309   3.638  0.0491 -0.3634 -0.1055
24177W        W40071   3.595   7.303   0.715 -0.0218 -0.1502  0.1704
24178W        W40072   2.073  12.629   5.496 -0.0828  0.1497  0.1210
24179W        W40073  10.213  11.238   1.034  0.1482  0.0336 -0.0532
24180W        W40074   7.495   8.886   4.812 -0.1720  0.0013 -0.1025
24181W        W40075   8.812  11.362   2.283 -0.1700  0.0357 -0.0533
24182W        W40076   4.096   9.015  13.251 -0.2692  0.0641  0.1286
24183W        W40077   2.299   0.447  11.066 -0.1531 -0.0747 -0.3473
24184W        W40078   7.228   8.085  12.822  0.0518  0.0581 -0.0256
24185W        W40079   9.228   2.663   1.211 -0.1058 -0.1722  0.0949
24186W        W40080   0.589  13.799  11.477  0.4099  0.2151 -0.2558
24187W        W40081  14.658  12.255   1.613 -0.1874  0.1029 -0.0905
24188W        W40082  10.090   9.958   1.787 -0.1874  0.1474 -0.0801
24189W        W40083   3.016   2.303  11.331  0.0788 -0.1473 -0.1919
24190W        W40084  12.871   9.952  11.913 -0.2465  0.2979  0.0263
24191W        W40085  12.183   3.270  15.381  0.0620  0.4164 -0.1721
24192W        W40086   6.039  12.599  13.259 -0.0243  0.0921  0.0418
24193W        W40087   3.461   3.497  11.552  0.1304  0.3740 -0.2269
24194W        W40088  17.595   4.529  14.062  0.3276  0.1965 -0.1033
24195W        W40089   1.465   0.308  14.763  0.2435 -0.1521 -0.0186
24196W        W40090   9.083   6.037   4.692 -0.1061  0.1674  0.0067
24197W        W40091  10.931  16.255   3.711  0.1706  0.3885 -0.2981
24198W        W40092  11.994   8.203  12.366  0.1612 -0.1308  0.0178
24199W        W40093   1.405   9.441   0.776 -0.0852  0.2123  0.2648
24200W        W40094   1.055  11.773   5.198 -0.0355 -0.1623 -0.2652
24201W        W40095  15.923   8.465  13.823 -0.0227 -0.1171  0.0421
24202W        W40096   3.585   0.702   2.888  0.0110 -0.0646 -0.2117
24203W        W40097  12.645   0.429  13.496 -0.0044 -0.2330  0.1729
24204W        W40098   1.485   5.674   5.601  0.1470 -0.1257  0.0531
24205W        W40099   6.198  17.326  15.043  0.3545 -0.0735 -0.0177
24206W        W40100  17.886   9.111  14.883 -0.0020  0.1199 -0.0368
24207W        W40101  12.824   4.103  13.886 -0.1781 -0.0492  0.2804
24208W        W40102   8.721   6.866   0.822 -0.0781 -0.0019 -0.0094
24209W        W40103   3.504   2.691   3.382 -0.2120 -0.1153 -0.1478
24210W        W40104  13.162   4.573   2.620  0.1524 -0.3850  0.1319
24211W        W40105  10.391   5.057   2.829  0.0902  0.1129 -0.0402
24212W        W40106  18.122   5.842  11.860 -0.0510  0.2245 -0.2883
24213W        W40107  16.691  17.248  15.611 -0.0384  0.3667 -0.0998
24214W        W40108  13.773   8.314  12.367 -0.0608  0.1008 -0.1245
24215W        W40109   6.809   0.110  14.320  0.0586 -0.0636  0.1548
24216W        W40110  10.919   1.099  15.215 -0.0731  0.0300  0.1187
24217W        W40111   7.096   3.385   1.184 -0.0811 -0.1561  0.0624
24218W        W40112  10.929   6.710  14.994  0.0287  0.1241 -0.0124
24219W        W40113  11.978   1.506  10.276  0.3268 -0.1550  0.1750
24220W        W40114   4.673  13.810   0.209  0.0152  0.0734 -0.1562
24221W        W40115  12.091   6.609   3.969  0.0861  0.4065  0.0443
24222W        W40116   2.196  15.766   1.719 -0.1003 -0.1782 -0.0998
24223W        W40117   2.470   9.481   2.365 -0.0884  0.0025 -0.1227
24224W        W40118  15.884   3.322   4.915 -0.1400  0.1603  0.0542
24225W        W40119   2.173   6.489   3.824  0.0524  0.2633  0.2666
24226W        W40120   3.956   1.407  14.776  0.0766  0.1482  0.2460
24227W        W40121  10.458   2.499   4.077 -0.4150 -0.0374 -0.1721
24228W        W40122   5.473  13.941   1.026 -0.3222  0.2166  0.0943
24229W        W40123   7.176   4.458   0.391  0.0509 -0.2426 -0.3458
24230W        W40124  18.658   3.456  12.524  0.1459 -0.1463 -0.0659
24231W        W40125  13.670   4.480  14.787 -0.1397  0.2129 -0.0954
24232W        W40126   0.013  16.603   4.427  0.3694  0.1523 -0.1852
24233W        W40127   2.822  18.660  14.647  0.0697 -0.0748  0.2725
24234W        W40128   5.300  18.466  15.046 -0.1500  0.1372  0.0284
24235W        W40129   2.125   7.209  13.365  0.1093  0.0821  0.1583
24236W        W40130  12.707   7.926   1.810  0.2281 -0.2929  0.1469
24237W        W40131  18.309  17.008  12.535  0.0459  0.0236  0.0125
24238W        W40132  16.707  10.855   4.545  0.1238  0.1850 -0.2345
24239W        W40133   4.648  16.695  15.225 -0.3892 -0.2089 -0.0869
24240W        W40134   8.143  18.223  13.405  0.2134  0.2309  0.3277
24241W        W40135   5.424  16.322  12.741  0.0371 -0.1136  0.0435
24242W        W40136   6.055  13.429  12.878 -0.1907  0.0450  0.2710
24243W        W40137   1.647  11.716   1.599  0.2475  0.1637 -0.1811
24244W        W40138   8.664  18.260  14.245 -0.0767  0.0864  0.2123
24245W        W40139  16.471   7.976  11.198  0.2256  0.1725 -0.1674
24246W        W40140  12.174   1.501  14.877 -0.1811 -0.0745  0.1258
24247W        W40141  16.226  10.222   4.228 -0.1870 -0.0377  0.1994
24248W        W40142  16.148  16.516   0.433 -0.0625 -0.1440  0.0656
24249W        W40143   6.165  15.623   2.151  0.0089 -0.2142  0.2611
24250W        W40144  13.578   0.631  15.466  0.0486  0.1781  0.2809
24251W        W40145  16.791   9.425   2.437  0.2582  0.1051  0.0176
24252W        W40146  14.002   9.120  13.850  0.0641 -0.0178 -0.1696
24253W        W40147  11.233   0.596   4.168  0.2963 -0.1387 -0.0559
24254W        W40148   1.657   2.453  14.657  0.0564 -0.2686  0.4309
24255W        W40149   1.115  17.112  13.259  0.0298  0.1024 -0.2195
24256W        W40150   2.902  12.917   2.162  0.1125  0.0486 -0.0717
24257W        W40151   7.945   0.437   4.067  0.0666  0.0943 -0.2359
24258W        W40152   4.417   8.267  14.455 -0.0148  0.2029 -0.2386
24259W        W40153  13.074   5.347  12.538  0.1101  0.0535 -0.0668
24260W        W40154  15.493   5.379   5.509 -0.0707  0.0086 -0.4020
24261W        W40155   8.326  13.990  11.758 -0.2716 -0.0000 -0.1945
24262W        W40156  14.823   3.193   3.591  0.0681  0.5208  0.2350
24263W        W40157  13.584   5.887   4.151  0.0321 -0.2053  0.1043
24264W        W40158  15.732  17.996   3.000  0.0820 -0.1889 -0.2513
24265W        W40159  13.126   9.958  12.993  0.3535 -0.2449 -0.0372
24266W        W40160  15.871   9.607   0.934 -0.2047 -0.0905 -0.2113
24267W        W40161   4.865  15.108   0.683 -0.2552  0.3250 -0.2454
24268W        W40162  18.275  18.040   0.195 -0.3977 -0.1094  0.2522
24269W        W40163  15.566   8.758   1.590  0.0402 -0.2026 -0.2518
24270W        W40164   1.832   9.517   2.989 -0.1058 -0.3262  0.0590
24271W        W40165  12.479   0.923   2.551 -0.3988 -0.0653  0.3216
24272W        W40166   0.047   5.563   3.391 -0.0432 -0.2419 -0.0287
24273W        W40167   6.980  17.136  12.551 -0.0275  0.1044 -0.0576
24274W        W40168   4.720  14.462   5.322  0.0027  0.1392  0.0631
24275W        W40169   7.183  11.490  12.320  0.1563  0.2342  0.0617
24276W        W40170   8.403   3.467   2.344  0.3062  0.1844  0.3132
24277W        W40171   0.171  10.672  14.426  0.1394  0.2112 -0.2105
24278W        W40172  16.871   7.177  11.454 -0.2389  0.2137  0.2432
24279W        W40173  14.525  18.210  13.957  0.1381  0.0047  0.1691
24280W        W40174   1.333  11.207  12.041  0.0949  0.0301  0.3109
24281W        W40175  12.926   3.570  14.553 -0.0089  0.3484  0.1222
24282W        W40176   0.987  17.143   4.950 -0.1328 -0.0337 -0.2041
24283W        W40177   8.958   6.724  11.151 -0.0387 -0.1966  0.0150
24284W        W40178   2.650   6.310  14.002 -0.0549  0.0409  0.3891
24285W        W40179   2.642   1.362   5.817 -0.2183 -0.1332 -0.0032
24286W        W40180   1.712   3.428  10.726  0.1369  0.1617  0.1701
24287W        W40181   9.774   1.626   2.652 -0.2015  0.0146  0.0061
24288W        W40182   6.271   2.561   1.588  0.0900  0.1839 -0.0812
24289W        W40183  13.540  15.713   3.474 -0.0537 -0.0966 -0.0519
24290W        W40184  17.887  12.973  13.434  0.1614 -0.2258  0.1093
24291W        W40185  15.076   6.485   0.715 -0.1208  0.1838 -0.0350
24292W        W40186  12.589   9.667  11.541 -0.2622  0.1366 -0.0318
24293W        W40187  13.154   7.662   5.047  0.1604  0.0233  0.1441
24294W        W40188  17.575  16.776  11.949  0.1552  0.1991 -0.1107
24295W        W40189  17.163   0.789   4.929 -0.1093  0.2498  0.1279
24296W        W40190   4.765  17.865   1.597 -0.0808  0.0058 -0.0108
24297W        W40191  13.039  13.551   5.845 -0.1920  0.0730  0.2038
24298W        W40192   9.257   7.412  14.827  0.2238 -0.1165 -0.1110
24299W        W40193   0.513  13.436   2.384 -0.0379 -0.0994 -0.1382
24300W        W40194   4.124  13.307  14.134  0.1415  0.0666 -0.2594
24301W        W40195   8.007   0.630  14.904  0.0249 -0.2224 -0.0942
24302W        W40196  13.344   3.907   2.060  0.3692 -0.1591  0.0333
24303W        W40197   7.329  15.695   1.262 -0.1446  0.0589  0.4713
24304W        W40198  14.044  11.943   0.061 -0.2798  0.1959 -0.0154
24305W        W40199   1.730  14.460   0.343  0.0197 -0.3977 -0.2806
24306W        W40200  11.752  18.016  12.778  0.1266  0.1412 -0.2821
24307W        W40201   6.261   9.371  14.439 -0.0333 -0.0236  0.2719
24308W        W40202  14.645  14.055  12.593 -0.2365 -0.2930  0.3153
24309W        W40203   7.467   6.719   4.540  0.1297  0.1326 -0.0269
24310W        W40204  13.561  13.068   3.629 -0.1252  0.0999 -0.0649
24311W        W40205  11.656  18.474  11.480 -0.3023 -0.1036 -0.0412
24312W        W40206  13.799  13.821  15.548  0.0615  0.2462 -0.0123
24313W        W40207   7.860   5.401   0.670  0.1930 -0.1816  0.1425
24314W        W40208   1.032  10.936   5.466 -0.0121  0.1772  0.1291
24315W        W40209  18.672   0.454  13.326 -0.2156  0.0503 -0.0915
24316W        W40210   5.561   9.856   4.907 -0.2670  0.0197  0.1032
24317W        W40211  10.294   1.213   4.888 -0.0330  0.3453  0.0185
24318W        W40212   3.226  17.101   2.431  0.1885  0.0862 -0.1836
24319W        W40213   5.404   9.401  11.311  0.2795  0.1792  0.2168
24320W        W40214  14.555   0.975   1.726  0.0199  0.1718  0.1235
24321W        W40215  10.011   6.631   0.570 -0.3095  0.0399  0.1342
24322W        W40216   7.227   7.718   0.737  0.1815  0.0995 -0.3533
24323W        W40217   7.307   1.490   1.979 -0.0413 -0.2113 -0.0270
24324W        W40218   4.389  12.072   1.157 -0.1987  0.0288  0.2447
24325W        W40219   3.609   2.030   9.693 -0.1080  0.0101 -0.2060
24326W        W40220  11.317   6.560   1.673 -0.0376  0.5222  0.0369
24327W        W40221   5.370  11.931  13.723  0.3367  0.0058  0.2265
24328W        W40222  12.409  16.439   5.130  0.2454  0.1943  0.0787
24329W        W40223  13.707  18.127  14.780 -0.2648  0.0703  0.4241
24330W        W40224   6.423   0.373  14.893 -0.4036  0.4732 -0.2897
24331W        W40225  16.796   2.823  13.080 -0.0623 -0.0061  0.2233
24332W        W40226   4.123  17.252  11.970  0.2566  0.0226  0.4013
24333W        W40227  10.019   2.983   0.976 -0.0888 -0.1212 -0.0494
24334W        W40228  15.552   1.437   3.626  0.5315  0.0809  0.2486
24335W        W40229   0.283  14.099  11.833 -0.1217 -0.0556  0.1160
24336W        W40230  11.245   1.588   2.613  0.0373 -0.0879  0.3772
24337W        W40231   0.551  14.426   1.558 -0.1614 -0.1438  0.2837
24338W        W40232  10.172   1.785   1.269 -0.1163 -0.2460  0.1197
24339W        W40233  13.868  18.327  12.896  0.0928 -0.0633 -0.3102
24340W        W40234  11.331   2.253   5.411 -0.1578 -0.0111  0.1819
24341W        W40235  15.833  16.968   1.448 -0.0570 -0.0339 -0.2097
24342W        W40236  14.627   5.642   0.219  0.1388 -0.0962  0.0989
24343W        W40237  10.838   5.718   0.237  0.4264  0.1865  0.0525
24344W        W40238   7.230  11.722  14.131  0.2195  0.0606  0.0645
24345W        W40239  15.046   5.335   1.632 -0.1325 -0.2797 -0.0055
24346W        W40240  16.978  10.584   2.730  0.1267 -0.3217 -0.0198
24347W        W40241   6.956   2.153   3.083 -0.1254 -0.0340 -0.3523
24348W        W40242  12.578  12.659  14.920  0.0513  0.0348  0.0272
24349W        W40243  15.504   3.793  15.601  0.2832 -0.0436 -0.1316
24350W        W40244   0.548  15.189  13.793 -0.3662  0.0883  0.1046
24351W        W40245   1.684   0.592  12.598  0.0562 -0.2770  0.3023
24352W        W40246   2.966   2.057  13.167  0.4863 -0.1148  0.0789
24353W        W40247  16.240   0.482   3.288 -0.2161  0.1631 -0.0207
24354W        W40248   8.598  12.793   4.306  0.1098 -0.0644  0.2918
24355W        W40249   3.487  13.172   3.788  0.0850 -0.2262  0.1460
24356W        W40250  15.805   9.273  12.796 -0.2158  0.4321  0.1440
24357W        W40251   6.427  16.755   0.739  0.0880  0.2834 -0.1149
24358W        W40252   0.374  10.240   0.893  0.0069 -0.0474  0.1117
24359W        W40253   0.967  13.410   5.045 -0.2106 -0.0877 -0.1539
24360W        W40254  13.146   0.075   1.133  0.0572  0.0238 -0.1626
24361W        W40255  13.405   9.490   1.902  0.0071 -0.0086 -0.1514
24362W        W40256   8.812   8.047   3.260 -0.3658  0.0315 -0.4186
24363W        W40257   0.858  14.360  14.754  0.1534 -0.2274 -0.2104
24364W        W40258  17.305   8.107  13.448  0.3107  0.1010 -0.0522
24365W        W40259   6.169  18.154   1.872 -0.2934 -0.1254  0.2566
24366W        W40260  12.077   7.831   2.810  0.0648 -0.1878 -0.0586
24367W        W40261   5.609  18.309   1.008 -0.1740 -0.2060 -0.0529
24368W        W40262  11.494  14.216   5.738  0.2744 -0.0766  0.2291
24369W        W40263  18.585   3.063  13.943  0.1954  0.1066 -0.3048
24370W        W40264  15.895  14.682  11.822 -0.1479  0.4850 -0.0401
24371W        W40265  13.712   6.111  15.493  0.0991  0.5243 -0.0421
24372W        W40266  15.038   0.996  10.950 -0.0955 -0.0287 -0.2140
24373W        W40267   1.701   1.907  14.510  0.1819  0.0443 -0.1624
24374W        W40268  17.726   0.184   6.183 -0.0788  0.0550  0.3011
24375W        W40269   7.249   1.490   0.002  0.1580  0.2150  0.1885
24376W        W40270  11.708   6.273  12.673 -0.1465 -0.1343 -0.2064
24377W        W40271  15.495  11.106   3.356 -0.0371  0.0657 -0.1341
24378W        W40272   9.031   6.370  14.377 -0.1581 -0.0030 -0.0697
24379W        W40273  12.173  15.567  11.487  0.0350  0.0554 -0.0405
24380W        W40274  10.593  15.991  13.559  0.1278 -0.0715  0.2292
24381W        W40275  14.588   6.207   3.084  0.0212 -0.1474  0.2351
24382W        W40276  14.417   3.296   4.295  0.2095  0.1516 -0.1220
24383W        W40277   6.190  10.011  14.090 -0.0471 -0.2518  0.0816
24384W        W40278  10.484  13.018   2.829  0.0329 -0.0430 -0.0242
24385W        W40279   9.682  17.099   2.252  0.0416  0.0214 -0.2355
24386W        W40280   9.425  13.040   4.689 -0.0340 -0.1857  0.3051
24387W        W40281   2.477   3.048  13.778 -0.3223  0.3802  0.2032
24388W        W40282  15.627  14.683  11.252 -0.0228 -0.1871 -0.0165
24389W        W40283  10.876  14.749  14.253 -0.2015  0.2229 -0.0888
24390W        W40284   0.968   4.659   3.392  0.1925 -0.3629 -0.4911
24391W        W40285   9.213   6.540   4.709 -0.0949 -0.1639 -0.0038
24392W        W40286   2.368  13.039   4.314  0.1336  0.0245  0.1128
24393W        W40287   2.096  10.668   1.800  0.3289 -0.1291 -0.1796
24394W        W40288  15.581   6.241  11.323  0.3142  0.0378  0.0633
24395W        W40289  12.645   7.240   6.159 -0.1328 -0.1539 -0.5171
24396W        W40290   8.757   9.025   2.035 -0.0116 -0.2627  0.1587
24397W        W40291  16.333  18.426  15.161 -0.4989 -0.5047  0.0115
24398W        W40292   7.649   2.375  10.677  0.3593  0.2859 -0.2738
24399W        W40293   1.431   0.621   1.786 -0.1631 -0.0861 -0.2594
24400W        W40294   1.801  12.037   4.651  0.2122 -0.2544 -0.1847
24401W        W40295   8.907   9.084  11.321  0.1061 -0.1423 -0.0106
24402W        W40296   8.237  14.249  15.626 -0.0421 -0.1754 -0.1107
24403W        W40297  17.938  16.013  11.983 -0.2166 -0.0959  0.0234
24404W        W40298   2.750   0.321  12.015 -0.1258 -0.0058 -0.1057
24405W        W40299   7.264  18.652   2.568  0.1063 -0.0379 -0.0146
24406W        W40300  13.505   5.990  11.860  0.1093 -0.0962  0.3807
24407W        W40301   5.762   7.434  11.047 -0.0036 -0.1300  0.1352
24408W        W40302   6.111  16.297  11.022 -0.0312  0.0722 -0.1788
24409W        W40303   4.505  16.146  12.848 -0.3170 -0.0563 -0.0002
24410W        W40304   8.918  12.060   2.503  0.2762 -0.3330 -0.0514
24411W        W40305   8.925   3.708  14.077 -0.1724 -0.0645 -0.1936
24412W        W40306  17.899  18.707  13.565 -0.0240 -0.1619 -0.4205
24413W        W40307  17.973   5.530  11.014 -0.2118 -0.1466 -0.1490
24414W        W40308  13.191  11.280  14.646  0.1045 -0.0657 -0.4116
24415W        W40309   0.348  14.415   0.240 -0.0803 -0.2550 -0.0044
24416W        W40310   2.155   9.289  15.537 -0.0190 -0.1621 -0.0768
24417W        W40311   6.727   9.960  12.797  0.0756 -0.1291 -0.0085
24418W        W40312   8.364  14.055   1.983  0.2807 -0.2626 -0.0756
24419W        W40313   2.488   3.580   2.172  0.1775 -0.0131 -0.1227
24420W        W40314  17.978  15.125   2.505  0.2335  0.0293  0.1396
24421W        W40315   2.000  14.841   2.969  0.0748  0.0765  0.1319
24422W        W40316   0.650  17.553   5.772  0.0063  0.0522 -0.0355
24423W        W40317  13.580   1.133  15.395  0.2994  0.3223  0.3086
24424W        W40318   0.425  15.237  14.288  0.0474  0.0023  0.0917
24425W        W40319   4.336  13.885  13.514 -0.1506 -0.3660 -0.0082
24426W        W40320   1.263   2.806  11.773  0.3762  0.0576  0.1979
24427W        W40321   3.037  14.285   1.919 -0.0716 -0.0815  0.0386
24428W        W40322   7.505   9.096   4.108 -0.1039  0.2635 -0.0678
24429W        W40323   9.205   9.635   5.852  0.0818 -0.0215  0.0909
24430W        W40324  15.491   2.041  14.029  0.3603  0.0911  0.0301
24431W        W40325   4.337   5.924   4.220  0.0494  0.2422 -0.1511
24432W        W40326   9.821   3.771  15.270  0.0580 -0.3193 -0.0482
24433W        W40327   5.983  17.475  11.652  0.0189 -0.1167  0.2114
24434W        W40328   9.935  13.023  11.568  0.0123 -0.2825 -0.1313
24435W        W40329  11.703   0.081   0.694 -0.1545 -0.2128 -0.0701
24436W        W40330  16.364   3.483   2.434  0.2995 -0.1751 -0.1482
24437W        W40331  14.703  17.472  12.195  0.0688  0.0937  0.1733
24438W        W40332   4.620  13.078  12.120 -0.1172  0.1519 -0.0751
24439W        W40333  16.144  12.408   4.805  0.0279  0.3587 -0.0818
24440W        W40334  18.607  13.396   0.878  0.2416  0.2591 -0.0356
24441W        W40335  15.317  10.014  15.417 -0.1862 -0.1267 -0.2155
24442W        W40336  17.929   6.618   4.139 -0.0777  0.0810  0.0213
24443W        W40337  14.431   7.067  14.406  0.1046  0.1820 -0.0630
24444W        W40338  10.827   2.619   1.158 -0.0330 -0.1544  0.1629
24445W        W40339   9.592   5.172   4.107  0.3464  0.0456 -0.1159
24446W        W40340   4.531   3.520   9.765  0.0330 -0.0857  0.1029
24447W        W40341   1.034   5.875   0.103 -0.0269 -0.0402  0.0627
24448W        W40342  16.292  13.975  12.040  0.2551  0.1680  0.1860
24449W        W40343  15.048   0.449   0.838 -0.0892 -0.1190 -0.0070
24450W        W40344   2.945  15.418   1.076 -0.1542 -0.2004 -0.0319
24451W        W40345   2.273   0.553   1.536 -0.1110 -0.0286 -0.2750
24452W        W40346   3.642  15.860   4.200  0.2147 -0.0753 -0.0914
24453W        W40347   6.297  10.377   1.058  0.1799 -0.2430  0.1191
24454W        W40348   4.664   9.721   0.708 -0.2503 -0.2683  0.2021
24455W        W40349   4.593  17.271   2.218  0.0211  0.2774 -0.2116
24456W        W40350  15.448   0.310   1.560 -0.0540 -0.0968 -0.0457
24457W        W40351  16.651   8.863   1.083  0.1664 -0.4231 -0.1151
24458W        W40352   0.797   6.060  14.304  0.2607  0.1250 -0.1668
24459W        W40353   4.124  17.035  13.693  0.0028  0.1312  0.0063
24460W        W40354   0.978  11.572  12.239  0.0257 -0.1261 -0.0328
24461W        W40355   4.806   4.252   3.724  0.1808  0.0747 -0.2478
24462W        W40356  11.208   8.988  13.920  0.1946 -0.3178  0.0220
24463W        W40357  11.957  15.362   3.410 -0.1319  0.1706 -0.1043
24464W        W40358   0.337  17.908  14.159  0.0575  0.0701 -0.1638
24465W        W40359  12.294   9.449   4.638 -0.4605 -0.1163  0.0344
24466W        W40360  13.221  17.566  12.123  0.2986 -0.2633 -0.0144
24467W        W40361   9.180   3.508   1.796 -0.3452 -0.4654 -0.1574
24468W        W40362  14.335  13.576  11.719  0.1379  0.3997  0.0337
24469W        W40363  10.557  18.239  12.491  0.1472  0.3960  0.1439
24470W        W40364  12.773   6.123   4.372 -0.1398 -0.0596 -0.0303
24471W        W40365  10.780   1.522   2.326  0.3091  0.0659  0.0141
24472W        W40366   1.030  18.637   2.379 -0.0450 -0.3923  0.4747
24473W        W40367   5.908  10.193  15.416  0.0828 -0.1682  0.1642
24474W        W40368   2.152  18.186   2.956  0.0828  0.4043 -0.0111
24475W        W40369   2.836  15.594   9.515  0.2384  0.2272  0.1091
24476W        W40370  11.714  16.094   2.686  0.3879 -0.0936  0.1034
24477W        W40371   2.471   2.039  14.586  0.0128 -0.1468 -0.1834
24478W        W40372  16.646  13.489  11.840 -0.2746  0.3146  0.0805
24479W        W40373  10.641   6.070   2.111  0.2227 -0.2023 -0.0295
24480W        W40374   3.054  12.794  12.964  0.3021 -0.0031 -0.0359
24481W        W40375   7.239   2.795   4.889 -0.2060 -0.0523  0.0923
24482W        W40376   8.154   4.162  10.432 -0.1414  0.0539  0.1344
24483W        W40377  18.147  12.416   5.400  0.0453  0.1108 -0.0683
24484W        W40378  17.498   4.417  14.614 -0.0777  0.3901 -0.1128
24485W        W40379  11.923  14.451   5.579 -0.0849  0.0384  0.4875
24486W        W40380  17.179  14.797   2.088  0.2006  0.0269  0.2813
24487W        W40381   2.381  10.865  13.933 -0.1297 -0.1737 -0.0514
24488W        W40382  14.093   3.067  12.147 -0.1948 -0.0086  0.2615
24489W        W40383   4.171   4.162   4.619  0.0175 -0.1927  0.1320
24490W        W40384   8.834   7.978  13.598  0.0673  0.1217  0.1365
24491W        W40385  14.282  10.256  14.866 -0.0826  0.1128 -0.0275
24492W        W40386  11.232   6.253   4.290  0.1436 -0.2297  0.1459
24493W        W40387  11.932   1.749   3.423 -0.0293 -0.0193  0.1661
24494W        W40388   8.458   8.895  12.055 -0.1155 -0.0436 -0.4540
24495W        W40389   2.244  11.094  12.328  0.0417  0.2674 -0.1061
24496W        W40390   0.121   5.377  11.868 -0.0497  0.0196  0.0597
24497W        W40391   0.810   6.671   4.892 -0.1529 -0.3019 -0.2652
24498W        W40392   0.998   0.821   4.777 -0.0448 -0.2240 -0.1719
24499W        W40393  15.102   1.727  14.444 -0.2081  0.0867  0.2804
24500W        W40394   3.456   5.759   2.850 -0.0443 -0.2508 -0.0438
24501W        W40395   4.748   4.786  13.226  0.0391  0.2425 -0.1734
24502W        W40396  16.687   2.908  12.488  0.0803 -0.0014  0.1193
24503W        W40397   0.207   9.152   0.158 -0.0689 -0.2065 -0.1949
24504W        W40398  17.559  14.324   2.173 -0.0224  0.2797 -0.2586
24505W        W40399   4.620  16.996   5.136 -0.1251 -0.1537 -0.1349
24506W        W40400  13.350  12.573  11.687  0.0365  0.1164 -0.1693
24507W        W40401   0.780   8.071  15.038  0.0335  0.1773  0.4151
24508W        W40402   5.046   9.937  12.795  0.2222  0.3480 -0.0548
24509W        W40403  10.386   9.409  13.394  0.0467 -0.1111  0.2213
24510W        W40404  14.489  10.877   6.129 -0.0091  0.1235  0.1533
24511W        W40405   0.997  13.453   2.613  0.1228  0.2990 -0.1526
24512W        W40406   5.180   4.329   4.769  0.1326  0.1102 -0.0585
24513W        W40407  11.700   7.340   3.099 -0.1630 -0.0191  0.1951
24514W        W40408  12.887   6.676   0.722  0.0437 -0.2502  0.2155
24515W        W40409   1.133  12.454  15.239  0.1327 -0.2502  0.1371
24516W        W40410  18.060  17.706   1.349 -0.2382  0.0270 -0.0227
24517W        W40411  16.649  11.296  12.778 -0.3120  0.2768 -0.0133
24518W        W40412   8.365  14.542   3.316 -0.0938 -0.1989 -0.1428
24519W        W40413  10.265   8.672   2.502 -0.2832  0.2514  0.1062
24520W        W40414  16.502  12.111   4.543 -0.1025  0.2909  0.3294
24521W        W40415   4.252   9.011  10.894  0.0851 -0.1186 -0.3074
24522W        W40416   5.620   3.917  13.192 -0.0650 -0.1321 -0.1952
24523W        W40417  17.723   7.861   4.931  0.1336 -0.2220  0.1850
24524W        W40418  10.047  18.436   1.933 -0.1111  0.1748  0.0095
24525W        W40419   4.804   4.810   3.483  0.0735  0.0895  0.1350
24526W        W40420  13.783  13.995  13.301 -0.1247  0.1739  0.0594
24527W        W40421   9.575  16.482   3.732  0.6996  0.0223 -0.0622
24528W        W40422  18.619  13.338  14.453 -0.0098 -0.1353 -0.1357
24529W        W40423   0.857  11.669   2.076  0.0540 -0.2576  0.2093
24530W        W40424   1.067   8.401   4.097  0.1300  0.3170  0.2840
24531W        W40425   5.891  11.793   2.461 -0.0083 -0.0892 -0.0338
24532W        W40426  10.648  13.859   4.308  0.0587  0.0132  0.2023
24533W        W40427  11.030   0.166  13.642 -0.0860  0.0065 -0.1815
24534W        W40428  14.300  18.632  12.005  0.1604 -0.1703  0.5060
24535W        W40429   5.407   5.860  14.413 -0.1067 -0.3448  0.0755
24536W        W40430  18.123  18.204  11.115  0.2500  0.2109  0.2559
24537W        W40431   9.921   5.892   4.380  0.1670  0.1274 -0.0403
24538W        W40432   7.983   6.581   2.124  0.0322 -0.1432 -0.0080
24539W        W40433   9.073  14.675   5.512 -0.2225  0.2777  0.1962
24540W        W40434   3.089  16.700  15.376  0.1730 -0.4743  0.2535
24541W        W40435  11.328  14.990   9.901 -0.0195  0.1188 -0.1322
24542W        W40436  12.263   5.311  13.567 -0.3843 -0.0540 -0.2437
24543W        W40437  15.947   7.377  13.484  0.0559  0.0476 -0.3501
24544W        W40438   5.233   2.742   2.045 -0.1630  0.3075 -0.1579
24545W        W40439  11.700   0.518   3.847 -0.0002  0.0743 -0.0012
24546W        W40440  11.563  17.730  12.335 -0.0459  0.0255  0.0747
24547W        W40441  18.269   4.205  11.382  0.2110  0.1436  0.0140
24548W        W40442  16.848  16.136   4.283  0.3179  0.1486 -0.1856
24549W        W40443  16.330  11.397   3.772  0.2072 -0.4909  0.0411
24550W        W40444  12.389  11.073   3.606 -0.2755 -0.0708  0.1137
24551W        W40445   1.757  10.360  12.144 -0.1140 -0.2438  0.1072
24552W        W40446  10.119  13.038   1.589 -0.0504 -0.3100  0.2129
24553W        W40447   4.839   7.392  14.269 -0.2647  0.1062 -0.1457
24554W        W40448   4.559  12.445  14.004 -0.0783  0.3080 -0.4345
24555W        W40449   6.917   4.350  15.625 -0.0402  0.2675 -0.0785
24556W        W40450   1.282   6.766   1.695 -0.2310 -0.2784 -0.6625
24557W        W40451  11.172  16.170   0.521 -0.1770  0.2502 -0.0541
24558W        W40452   6.846   4.982  10.825 -0.0454  0.2813  0.1127
24559W        W40453   8.578   3.368   3.093 -0.1942 -0.0272  0.3920
24560W        W40454  12.571  16.242  11.586  0.2363 -0.0479 -0.2056
24561W        W40455  10.270   3.817  11.738  0.0844 -0.1766 -0.0191
24562W        W40456   3.163   9.109   2.107  0.1475  0.0818  0.2291
24563W        W40457  13.861   8.663  12.782 -0.0510  0.0803 -0.3476
24564W        W40458  13.174   8.271  14.805  0.1865 -0.0387  0.0260
24565W        W40459  12.948  13.160  13.364  0.2568  0.1175  0.1210
24566W        W40460   8.630   5.535   4.083  0.0481  0.0880 -0.0506
24567W        W40461   3.494  18.100  10.477  0.1150  0.0065 -0.0950
24568W        W40462  11.738   9.887  13.651  0.0124 -0.0910 -0.3347
24569W        W40463   5.277   3.656  12.960 -0.3287  0.0910 -0.1299
24570W        W40464   4.693  14.150  15.377  0.0839  0.0900 -0.1047
24571W        W40465  10.517  16.789  13.856  0.1121  0.2916  0.3339
24572W        W40466  12.866   0.847   3.087  0.0911  0.0430 -0.1255
24573W        W40467   2.029  11.797   3.430 -0.0745 -0.1521  0.0064
24574W        W40468   5.071   8.455  15.262  0.3699 -0.1534 -0.0300
24575W        W40469  10.372   8.500   1.517  0.4523 -0.4605 -0.2049
24576W        W40470  16.831   1.313  12.489 -0.1843  0.0135  0.0528
24577W        W40471   1.407  18.129  10.596 -0.3079 -0.0829 -0.0454
24578W        W40472   7.206   7.773  11.086  0.1474  0.1041  0.0531
24579W        W40473   8.311   6.859   1.809 -0.2662 -0.0579 -0.0286
24580W        W40474   5.750  15.432  12.561 -0.0221 -0.0315 -0.1763
24581W        W40475  13.608  12.474   2.433  0.0545 -0.0959 -0.2441
24582W        W40476  10.436   5.233  13.062 -0.0367  0.0680  0.0223
24583W        W40477  14.635   9.339   3.522 -0.1264 -0.0683 -0.0514
24584W        W40478  16.786   3.084  14.771  0.0586  0.0926  0.0075
24585W        W40479  11.337  10.484  11.272  0.0633  0.3350 -0.1157
24586W        W40480   4.188  16.946  13.190  0.2390  0.1091 -0.2605
24587W        W40481   4.599   2.633  13.420 -0.1890  0.0717  0.1150
24588W        W40482  14.080   1.725   9.724 -0.1084 -0.4373  0.2015
24589W        W40483   6.209   8.174   0.408 -0.0291  0.2662  0.2444
24590W        W40484  10.730   9.274  15.231  0.0037  0.2560 -0.4996
24591W        W40485   2.508   0.141   5.680  0.1459 -0.2395 -0.0248
24592W        W40486   6.595   6.645   2.112  0.0246 -0.1748 -0.1547
24593W        W40487   2.791   8.322   1.155 -0.1629  0.1497 -0.2352
24594W        W40488   4.264  15.278  10.954  0.2623  0.1469  0.0263
24595W        W40489   1.319  17.538  14.771 -0.1350  0.2002 -0.2196
24596W        W40490  18.332   7.747   1.783 -0.0464  0.0010  0.1237
24597W        W40491   3.077   9.237   0.316 -0.2129  0.1331  0.0682
24598W        W40492   8.882  16.002   0.461 -0.1991 -0.0078  0.0467
24599W        W40493   0.216  14.045  13.160  0.1635 -0.0958  0.1497
24600W        W40494   4.737  14.000  11.117  0.2000 -0.0699  0.0175
24601W        W40495   9.967   6.949   4.105 -0.2349 -0.2048 -0.1457
24602W        W40496  15.049   2.835  14.591 -0.4008 -0.0491  0.3497
24603W        W40497  12.258  11.316  14.442  0.0201  0.2058  0.1597
24604W        W40498  15.727   0.712   3.357  0.0614 -0.1421  0.1882
24605W        W40499   1.235  17.193   1.509 -0.0037 -0.1037  0.3551
24606W        W40500   3.559  12.254  12.735  0.0563  0.1118  0.1156
24607W        W40501  12.169   5.076  12.570 -0.3658 -0.1131  0.0544
24608W        W40502  16.384   3.784  14.415  0.0618 -0.1658  0.0250
24609W        W40503  13.040   4.207   3.339 -0.0578 -0.3459 -0.0478
24610W        W40504   8.481  16.815  12.886 -0.1686  0.1508  0.1517
24611W        W40505  11.517   6.916  14.021  0.0345 -0.1265 -0.0293
24612W        W40506  13.703   9.914   4.360  0.1679  0.0949  0.2641
24613W        W40507  14.202  12.949   1.853  0.1230 -0.4341 -0.0354
24614W        W40508  16.073   4.699   2.131 -0.3782  0.3592  0.1015
24615W        W40509   8.518  16.023   3.801 -0.0101  0.1776  0.1151
24616W        W40510   5.822  11.410   0.345  0.0569 -0.2553 -0.1068
24617W        W40511   1.903  12.146  15.069  0.1063  0.2869 -0.3128
24618W        W40512   2.151   6.863   1.557  0.0523 -0.1464  0.0543
24619W        W40513  18.700  10.921  13.071  0.0430  0.0980  0.2410
24620W        W40514  18.110  16.599   0.207  0.1549 -0.0643  0.0068
24621W        W40515   3.202   3.962   5.130  0.2978  0.1335  0.1223
24622W        W40516   0.436   5.650   3.980 -0.3548  0.4504 -0.0361
24623W        W40517  17.510   9.746  11.835  0.0533  0.2174 -0.1755
24624W        W40518  12.709  13.685   1.330 -0.0880  0.0232  0.3265
24625W        W40519   2.307   3.605   3.647  0.0193  0.2384  0.2793
24626W        W40520  11.517  13.785   0.399  0.1332  0.2015  0.1003
24627W        W40521  18.250   6.338   1.008  0.2086  0.2240 -0.3498
24628W        W40522  16.141  18.341  12.870 -0.1641  0.1814  0.1849
24629W        W40523  15.997  12.766  13.709 -0.0139  0.2021 -0.0374
24630W        W40524   6.793  17.098  14.610  0.0282 -0.0329 -0.2003
24631W        W40525   4.369   3.702  11.450 -0.1135  0.1679 -0.3404
24632W        W40526  12.140  14.067   1.414  0.0638  0.0829 -0.1266
24633W        W40527   6.558   8.589   4.640 -0.0103 -0.0163 -0.2118
24634W        W40528  16.724  16.845  14.158 -0.1504 -0.2813 -0.0942
24635W        W40529   7.991  15.014  14.971  0.0904 -0.1896 -0.2607
24636W        W40530  15.650   2.166  12.979  0.0421  0.0629 -0.0531
24637W        W40531  14.281   2.670   3.389  0.0184 -0.0502 -0.3724
24638W        W40532   9.962  16.429  14.559 -0.0518 -0.1439 -0.0314
24639W        W40533   0.046  11.972   3.608  0.2892  0.0470  0.4707
24640W        W40534   4.070  17.845   0.890  0.2312 -0.2543  0.0484
24641W        W40535   4.268   8.010   1.069 -0.0640 -0.0305  0.2235
24642W        W40536   2.592   6.228   3.652 -0.1220  0.0668  0.2398
24643W        W40537  13.824   7.112   0.890 -0.1904  0.1868 -0.2433
24644W        W40538  15.166   8.354   4.382 -0.1733  0.1234  0.2575
24645W        W40539  14.292   3.811   0.813  0.0115 -0.0271  0.4828
24646W        W40540  15.382   1.193   5.015  0.1486 -0.4864 -0.0038
24647W        W40541   9.922   1.058   1.885 -0.1838 -0.1012  0.0811
24648W        W40542   7.073   5.868   1.059 -0.4430  0.0675 -0.0060
24649W        W40543   4.535  10.195   0.862 -0.0616 -0.1682  0.2414
24650W        W40544   7.079  15.139   4.018 -0.0154  0.0135 -0.1410
24651W        W40545   4.524   3.286   1.706 -0.0438  0.0644 -0.2847
24652W        W40546  17.311   2.027  11.427 -0.0016 -0.2533  0.2084
24653W        W40547   5.066   1.505  14.391  0.0363  0.3896  0.1021
24654W        W40548   5.630  14.162   3.258  0.5229 -0.2487  0.0367
24655W        W40549  13.671  15.807  12.148  0.0908 -0.1419  0.3035
24656W        W40550   9.878   4.345   4.957 -0.0922  0.7026  0.2400
24657W        W40551   3.516   3.825   5.917 -0.1712 -0.2413  0.0135
24658W        W40552   7.937   8.441  11.042 -0.0369  0.0095 -0.1693
24659W        W40553  13.779  16.055   0.415 -0.3464  0.3813 -0.3592
24660W        W40554   5.563   7.952   4.125 -0.0542 -0.2708 -0.1935
24661W        W40555   3.293  15.303   3.702 -0.1107  0.3276  0.3007
24662W        W40556   0.445   0.302   0.840  0.0784 -0.0070  0.0274
24663W        W40557   0.271   6.961   1.061 -0.1821 -0.1394 -0.1828
24664W        W40558   6.875  15.866  12.761  0.2569  0.3070  0.2336
24665W        W40559   2.310   0.932   3.962 -0.2444  0.0191  0.2133
24666W        W40560   1.826   6.071  10.726 -0.3536 -0.0424  0.0905
24667W        W40561  16.631   9.339  11.763  0.1346  0.2290  0.4470
24668W        W40562   5.018   5.648  11.757 -0.3648  0.2597 -0.0907
24669W        W40563   8.776   9.211   2.971 -0.0244  0.0406  0.0967
24670W        W40564   3.722   1.317   2.980  0.1800 -0.0392 -0.0835
24671W        W40565  16.019  18.354  10.729  0.1029  0.1736 -0.0886
24672W        W40566   7.570  13.231  14.753 -0.0030  0.0416 -0.0030
24673W        W40567   9.257  13.296   2.583  0.2443  0.2069 -0.1771
24674W        W40568   3.559  14.681  15.190 -0.2696  0.3026 -0.1396
24675W        W40569   2.182  15.485   2.340 -0.4726 -0.3373  0.0877
24676W        W40570   6.128  14.492   0.211  0.1836 -0.0541 -0.3030
24677W        W40571   2.868   7.685   3.619 -0.0351  0.0192 -0.2651
24678W        W40572  14.735   1.592   2.683  0.0465  0.1972 -0.0335
24679W        W40573   0.947   0.004   3.366 -0.1025  0.1490 -0.0279
24680W        W40574  11.119   7.100   0.767 -0.0547 -0.0902 -0.2356
24681W        W40575   6.451   1.610   4.800 -0.3328  0.1236  0.1943
24682W        W40576   3.435   4.436  10.986  0.1213 -0.1621  0.0486
24683W        W40577   9.263  16.826   1.370 -0.2400  0.1316 -0.2132
24684W        W40578   1.132   0.975  10.928  0.1311 -0.0035  0.2113
24685W        W40579   9.372  17.462  12.380 -0.4380  0.0993  0.1480
24686W        W40580  18.647   3.911   2.599  0.1977 -0.0115 -0.1445
24687W        W40581   1.269   3.682   9.819  0.0800 -0.1032  0.0148
24688W        W40582  11.231   2.530   0.870 -0.3284 -0.2156  0.1317
24689W        W40583   9.951   5.939   9.577 -0.2566 -0.0262 -0.0565
24690W        W40584   5.877   6.956   2.568  0.1406 -0.1866  0.0802
24691W        W40585   4.219   0.008   0.446  0.3179 -0.0085  0.0929
24692W        W40586   7.308   3.015  10.870 -0.3017  0.1235 -0.5450
24693W        W40587  18.260  10.166   0.092  0.2468  0.3008  0.4028
24694W        W40588   8.690  16.334   1.354  0.0812  0.0836 -0.0918
24695W        W40589  13.655   3.867   5.274  0.0627  0.1393 -0.0636
24696W        W40590  12.797   2.056  14.430  0.0058 -0.1104  0.3949
24697W        W40591   4.020  14.885  11.206  0.2014 -0.2370 -0.1472
24698W        W40592   9.213   0.571   4.411 -0.1059 -0.0265 -0.1311
24699W        W40593  11.945  16.055  10.903 -0.1040 -0.5343 -0.1103
24700W        W40594   3.212  14.327  14.052 -0.1213 -0.0684 -0.0244
24701W        W40595   6.277   2.157  13.019  0.2562 -0.3757 -0.0301
24702W        W40596   9.020   1.764   2.220  0.0488 -0.0397  0.2079
24703W        W40597  15.723   1.664  10.569 -0.0216  0.0656 -0.3145
24704W        W40598  17.920   9.994  13.783 -0.2171 -0.0125  0.0791
24705W        W40599   7.721  16.670   2.567 -0.2044  0.0229 -0.0340
24706W        W40600  14.193  12.017   1.449 -0.1343 -0.0818 -0.1774
24707W        W40601  17.337  12.290   0.282  0.1016 -0.0500  0.0941
24708W        W40602   6.668   7.217   0.017 -0.0318 -0.2206 -0.0757
24709W        W40603   3.429   3.047   2.997  0.0820 -0.1695 -0.2628
24710W        W40604  12.775   9.089   2.681 -0.3649  0.0037  0.2787
24711W        W40605  15.704  11.561   0.279  0.2561  0.1131 -0.0902
24712W        W40606   9.745  14.260   1.921 -0.1325  0.1887  0.1294
24713W        W40607  13.669   6.370  12.605  0.0829  0.1647 -0.0340
24714W        W40608  12.812   7.314   5.635 -0.1884  0.2149 -0.2394
24715W        W40609  16.376   6.035   2.217  0.1221 -0.0525  0.1119
24716W        W40610   2.544   1.158   3.525 -0.0808  0.2759 -0.2790
24717W        W40611  14.535   9.560  14.296 -0.2139  0.0100 -0.0858
24718W        W40612  12.647   1.091   3.544 -0.3132  0.0011  0.0669
24719W        W40613   3.224   3.654   3.558  0.2927  0.1741 -0.1435
24720W        W40614   1.952   5.024   1.060  0.0955 -0.1814  0.2276
24721W        W40615   1.350   5.557  11.356  0.3107 -0.1127  0.1192
24722W        W40616   6.402  10.150   2.098 -0.0387 -0.0134 -0.0500
24723W        W40617  16.486  12.265   3.792 -0.4196  0.0610 -0.1340
24724W        W40618  14.188   2.629  14.461 -0.1642 -0.3271 -0.4458
24725W        W40619   7.927   9.965   3.391  0.0203  0.1644  0.0494
24726W        W40620   5.289   8.589  11.786  0.2610 -0.0077 -0.2326
24727W        W40621  10.154  17.782  14.875  0.0180 -0.1198 -0.1295
24728W        W40622   4.621   0.643  14.667 -0.1291  0.2000  0.2034
24729W        W40623   5.197  16.082   4.109  0.2492 -0.3983  0.1880
24730W        W40624  18.172  15.312  14.703  0.1896  0.0434 -0.0653
24731W        W40625   8.585  15.897  14.704  0.1061  0.1379 -0.1198
24732W        W40626  11.412   8.585   2.416 -0.0211  0.1262  0.0847
24733W        W40627  11.705  16.364   3.112 -0.3458  0.0808  0.1901
24734W        W40628   4.791  17.880  14.538 -0.1422  0.1610  0.2314
24735W        W40629   7.001   4.327  14.123 -0.1136 -0.2989  0.0011
24736W        W40630   6.003  17.949  11.881 -0.1450  0.0899  0.0079
24737W        W40631   7.365   1.013  11.660 -0.0176  0.3264  0.0058
24738W        W40632   1.662   9.348   3.478 -0.0373 -0.1665 -0.0791
24739W        W40633  16.588  10.161  15.243  0.0428 -0.4479  0.2109
24740W        W40634   3.975   3.012   3.376 -0.0067 -0.1443  0.3418
24741W        W40635   9.052  17.534   3.638  0.1103  0.1220 -0.0032
24742W        W40636   9.761  16.194   3.353 -0.0621  0.2640  0.4526
24743W        W40637   3.915   1.269  13.504 -0.1461 -0.2541 -0.1972
24744W        W40638  11.285  18.651  14.380 -0.1642 -0.1533  0.3170
24745W        W40639   8.001  16.374   3.636  0.1519  0.1759 -0.2087
24746W        W40640   4.301  13.073  12.867  0.0877 -0.1659  0.2647
24747W        W40641   4.081  18.713  13.782 -0.0663  0.1464 -0.1161
24748W        W40642   5.205   1.961  14.187 -0.1009  0.0352  0.0820
24749W        W40643   9.548  13.228   3.357  0.1703  0.0209  0.1385
24750W        W40644  15.112   0.643   2.442  0.0352 -0.1008 -0.0087
24751W        W40645  10.862  13.358  14.823 -0.1518  0.2501  0.3360
24752W        W40646   9.778   2.389  14.818 -0.0322 -0.0655 -0.0824
24753W        W40647   3.441  16.335   4.035 -0.0482 -0.0755  0.0135
24754W        W40648  12.069   1.057  10.616  0.2343 -0.1109  0.0840
24755W        W40649   8.675   3.890  11.372  0.0784  0.1027  0.0622
24756W        W40650   0.791  12.110  12.299  0.2902  0.0367  0.0027
24757W        W40651  13.228   1.407  12.897  0.2948 -0.0718 -0.1831
24758W        W40652   6.139   6.891   1.965 -0.1750 -0.2200 -0.2376
24759W        W40653   9.560  11.550   3.542  0.0103  0.1653 -0.0095
24760W        W40654  12.944   2.673  12.012 -0.0089  0.0839 -0.0622
24761W        W40655   9.018   5.398  13.130 -0.1899  0.2313 -0.0675
24762W        W40656   2.604  11.602  11.499  0.2497  0.0473 -0.2857
24763W        W40657   4.445  12.187   3.543  0.0090 -0.1030 -0.0191
24764W        W40658   0.076   4.034   1.053 -0.0892  0.0647 -0.1641
24765W        W40659   8.817   1.757   5.210  0.0890  0.0083  0.1228
24766W        W40660   8.698  18.318  13.451 -0.3075  0.2546  0.0813
24767W        W40661  14.496   6.615  11.163  0.1414  0.3111  0.0682
24768W        W40662   8.666   7.427  12.363 -0.0744  0.1110 -0.3663
24769W        W40663  10.755   1.085   5.339 -0.0906  0.0213 -0.0960
24770W        W40664   7.322   5.140   1.711 -0.2360  0.0424 -0.0255
24771W        W40665  12.048   8.030  15.624 -0.0545  0.1411 -0.2379
24772W        W40666   8.383   3.027  12.792  0.3380  0.1710  0.1908
24773W        W40667   1.987  11.397   1.903  0.2112 -0.0397 -0.1707
24774W        W40668  15.566   1.708   1.368  0.0727  0.0486  0.0622
24775W        W40669  18.379   5.390  13.322 -0.0861 -0.0566 -0.0555
24776W        W40670   5.061  14.247  11.461  0.1455  0.1851  0.2688
24777W        W40671  10.711   4.869  14.762  0.0161 -0.0693  0.2660
24778W        W40672  13.671   4.792  12.157 -0.2029  0.0593 -0.0563
24779W        W40673  10.576  14.726  14.702  0.1237 -0.0454  0.1388
24780W        W40674   5.390  11.827   2.949 -0.1163 -0.0888 -0.2895
24781W        W40675  18.523   4.144   5.122  0.0996  0.1296 -0.0904
24782W        W40676  17.542  17.888  10.569 -0.2688 -0.1725 -0.0368
24783W        W40677   9.472  15.040  11.027 -0.0759 -0.1946 -0.0241
24784W        W40678   3.659  17.071  13.886  0.1314  0.0363 -0.1758
24785W        W40679  13.679  14.217  14.162 -0.4295 -0.3558 -0.1201
24786W        W40680  15.125  14.475  15.422 -0.1405 -0.1525 -0.1265
24787W        W40681  15.579  15.711  13.896  0.0711 -0.1685  0.1823
24788W        W40682   0.794   2.131  13.360 -0.1753 -0.1440 -0.1990
24789W        W40683  15.727  14.410   2.615 -0.2223 -0.1958  0.1565
24790W        W40684   4.013  18.187   2.824  0.1543 -0.0929  0.1751
24791W        W40685  18.065  18.226   5.181 -0.3291  0.1204 -0.0132
24792W        W40686   6.147  15.335  12.177 -0.0792 -0.1114  0.1624
24793W        W40687  16.543   1.618  13.970  0.3451  0.2975 -0.0483
24794W        W40688  15.979   5.304   0.477  0.0700 -0.2091 -0.0659
24795W        W40689  14.590   6.516   2.452 -0.0922 -0.2237 -0.1428
24796W        W40690   1.485   1.728  12.298 -0.0167 -0.1130  0.1749
24797W        W40691   4.640   3.247   4.093 -0.1248  0.0192 -0.0440
24798W        W40692  12.162  16.393  11.270  0.1506  0.3617 -0.0540
24799W        W40693  10.930   1.114  10.443  0.0513 -0.2131 -0.0256
24800W        W40694  10.520  11.480  14.458  0.1502 -0.1198  0.0088
24801W        W40695   4.373  11.071  12.237 -0.3211  0.1112 -0.1077
24802W        W40696  17.512   2.485   4.974 -0.0093  0.3169  0.0848
24803W        W40697  14.774   7.261  13.128 -0.2651 -0.0437 -0.1308
24804W        W40698  11.773   1.168  13.260 -0.0984  0.0379  0.1987
24805W        W40699  15.494  18.680  13.271 -0.2995  0.1466  0.1885
24806W        W40700  12.860   4.104  14.475 -0.0185  0.0495  0.2025
24807W        W40701  11.580  16.562   2.544  0.3361  0.3348 -0.1454
24808W        W40702  13.796   7.602   4.145 -0.2430 -0.0876 -0.1724
24809W        W40703  17.422  16.187   4.547 -0.0994 -0.0582  0.0915
24810W        W40704   7.945  12.899   2.566 -0.2115  0.0313  0.0328
24811W        W40705   4.146  16.476  14.464 -0.2505 -0.0985  0.0851
24812W        W40706  11.447  13.524  14.155 -0.0484  0.0054  0.1008
24813W        W40707   0.951  12.191   2.010 -0.0728  0.1347  0.0876
24814W        W40708  11.622   1.557   0.889 -0.0835  0.2166  0.0220
24815W        W40709  16.363  18.109   0.028 -0.1087 -0.2849 -0.1036
24816W        W40710   1.568   6.396   0.116  0.2234  0.0710 -0.1145
24817W        W40711   6.120  13.558   2.767 -0.0682  0.0054  0.1284
24818W        W40712   0.815   5.033  13.153  0.2415  0.1160  0.1003
24819W        W40713   5.923  15.695  13.079 -0.0964 -0.0885  0.0248
24820W        W40714  15.783   8.908  14.145 -0.0884  0.0254 -0.0332
24821W        W40715  13.097   4.659  14.138 -0.0154  0.3005  0.0812
24822W        W40716  10.919  12.370   0.181  0.2719  0.1295  0.0297
24823W        W40717  12.711   1.664  14.668 -0.1352  0.4109 -0.2449
24824W        W40718  15.925   8.711   2.776 -0.0672  0.1819 -0.1513
24825W        W40719  14.242  11.476   0.565  0.0776  0.1674 -0.0885
24826W        W40720  18.574   1.961   3.303 -0.0929  0.1709  0.1181
24827W        W40721   7.190  17.559  13.911  0.2330  0.0062  0.2920
24828W        W40722   3.229  18.459   3.503 -0.2471  0.1038  0.2737
24829W        W40723   7.485  10.907   2.517 -0.2311  0.0810  0.0782
24830W        W40724   5.792  15.654   5.186 -0.2094 -0.2672  0.1305
24831W        W40725  15.605  12.851  11.761  0.0775 -0.2544  0.0493
24832W        W40726   8.467  17.091   0.828  0.3378  0.1380  0.0764
24833W        W40727   8.275   4.862  11.084 -0.1554  0.0172  0.1276
24834W        W40728   5.776   5.175  12.008  0.1278  0.0977  0.0415
24835W        W40729   5.190  11.629   0.418  0.0955  0.3178 -0.0059
24836W        W40730  11.735   2.544   5.565 -0.2424  0.1989 -0.0863
24837W        W40731  18.542   9.948   5.798  0.0657 -0.3674  0.0918
24838W        W40732   1.342   5.890   2.446  0.0333  0.0833  0.2623
24839W        W40733  13.034   1.352   1.913  0.0066 -0.0319  0.1241
24840W        W40734   9.170   1.295   0.669 -0.2454  0.1826 -0.0538
24841W        W40735  16.441  12.422   2.251 -0.0093  0.2020  0.3677
24842W        W40736   5.351  14.938  15.324 -0.0563 -0.1404  0.0838
24843W        W40737   9.723   8.911  15.477  0.1380 -0.3063  0.1333
24844W        W40738   0.275   0.926  11.000  0.1126 -0.0511 -0.1111
24845W        W40739  16.973   4.882  13.835  0.3488 -0.0473  0.3293
24846W        W40740  10.756  18.105   4.557  0.1167 -0.2828  0.0592
24847W        W40741   0.376   9.597  11.847  0.0437  0.0041 -0.1324
24848W        W40742  14.140   2.181   0.530  0.0763 -0.0654  0.0913
24849W        W40743   5.935  18.627   4.555 -0.1530 -0.0416  0.2536
24850W        W40744  10.585  14.015   2.991  0.1184 -0.1687 -0.0982
24851W        W40745   0.666   0.211   0.155  0.0211 -0.3882 -0.1174
24852W        W40746   2.463  14.330   0.787 -0.1515  0.0987  0.2244
24853W        W40747   1.186   6.714   1.200 -0.0261  0.0659  0.0855
24854W        W40748   9.071   7.801   3.655 -0.2464  0.1505 -0.1129
24855W        W40749   5.505   6.595   0.484  0.0908  0.0434 -0.1011
24856W        W40750  18.464   6.454  15.441  0.0189  0.0326  0.0122
24857W        W40751  10.255   9.614   3.613 -0.2441 -0.0530 -0.2185
24858W        W40752  17.270  10.398   1.346  0.0229  0.0143  0.1690
24859W        W40753   8.450  13.493  13.318  0.0674 -0.3189 -0.0966
24860W        W40754  18.313   9.599   1.277 -0.0262 -0.1448  0.0281
24861W        W40755  12.294   0.838  15.542  0.1893  0.0113  0.1196
24862W        W40756   9.320   4.485  10.723 -0.3685 -0.2288 -0.2729
24863W        W40757   0.101   9.887  15.022 -0.3040  0.0434  0.3255
24864W        W40758  15.133   3.398   1.982  0.0144  0.0986 -0.1370
24865W        W40759  16.108   1.244   6.145  0.1399  0.2540 -0.2786
24866W        W40760  10.597   4.386  14.645 -0.0282 -0.2900 -0.1163
24867W        W40761  18.388   1.930   4.489  0.0819 -0.1642  0.0028
24868W        W40762  16.911   7.357   5.977 -0.2768 -0.0754 -0.0262
24869W        W40763   2.454   4.763   3.100  0.3229  0.1564  0.2632
24870W        W40764   6.809   2.644   0.870  0.0817  0.0970 -0.1394
24871W        W40765   9.948   4.207  11.670  0.2800  0.1258 -0.1151
24872W        W40766   0.407   7.610   3.244 -0.2219 -0.2764  0.2988
24873W        W40767  18.717  11.816  15.561 -0.0306 -0.1109  0.0962
24874W        W40768   0.488   2.090   1.851 -0.0901 -0.2890 -0.1184
24875W        W40769  11.960   2.430  10.793 -0.0521  0.1917 -0.2888
24876W        W40770   7.152   3.378   3.500  0.0405  0.0995 -0.1737
24877W        W40771   7.064  13.989  10.569  0.0845  0.0939  0.1240
24878W        W40772   4.437  13.472  13.812 -0.0146  0.0173 -0.2472
24879W        W40773   1.555  16.560  15.267 -0.3982 -0.3799 -0.2747
24880W        W40774   2.266  18.161   5.183 -0.0025  0.3770 -0.0683
24881W        W40775  10.169   8.886  12.116 -0.0302  0.0581  0.3176
24882W        W40776   7.603   6.716  15.308  0.3812 -0.7346 -0.1009
24883W        W40777   9.229   8.737  15.448 -0.1883  0.1313  0.1790
24884W        W40778  15.137   6.033   4.735  0.0741  0.1776  0.0973
24885W        W40779  17.757  16.953  14.911 -0.0673 -0.0330 -0.1235
24886W        W40780  13.872  13.266   0.061  0.3945 -0.1113  0.0530
24887W        W40781   1.372  14.287  15.603  0.0132  0.3691  0.2243
24888W        W40782   2.855  14.059   3.415 -0.0026  0.2703 -0.2810
24889W        W40783  18.616   3.094   5.805  0.0966  0.2636  0.1474
24890W        W40784   2.640   8.197  12.579  0.2450 -0.0884  0.1400
24891W        W40785  17.700  14.045   3.859  0.1228  0.2210  0.0861
24892W        W40786  11.365   4.813   0.367 -0.1387  0.0233 -0.0022
24893W        W40787  18.208  16.008  13.326  0.1551  0.1410  0.0290
24894W        W40788   5.042  12.922   0.610  0.1824 -0.1561  0.0504
24895W        W40789   7.265   5.645  14.909 -0.2139  0.1682  0.3783
24896W        W40790   6.608   8.775   2.816  0.0954 -0.1157  0.3529
24897W        W40791   2.829  18.461   1.192 -0.1416 -0.0984 -0.2104
24898W        W40792  12.441  10.484   1.440  0.0382 -0.2462 -0.2946
24899W        W40793  10.471  14.640  13.485  0.0342  0.0330 -0.1230
24900W        W40794  13.008  15.267   2.975 -0.1501  0.0006 -0.2972
24901W        W40795  16.991   9.736   0.831 -0.0543  0.0535  0.1588
24902W        W40796  10.646   7.978  13.982 -0.1504  0.2693 -0.2208
24903W        W40797  11.076  17.713  13.249  0.1356  0.1884 -0.0141
24904W        W40798  17.850   5.053   4.565 -0.2698 -0.1523 -0.1878
24905W        W40799  12.700  16.493   3.524 -0.4433  0.0487 -0.0172
24906W        W40800   3.408   3.576   0.479 -0.0528  0.0838  0.1739
24907W        W40801  12.706  13.142   0.885  0.0739  0.0340  0.2414
24908W        W40802   7.037   2.256   0.998  0.0189  0.4411  0.2577
24909W        W40803   8.239  12.833   0.060  0.0219 -0.1414  0.1940
24910W        W40804   8.815   5.884   0.824  0.1475  0.0101 -0.1600
24911W        W40805  18.564  17.383   2.118 -0.4030 -0.2360  0.0973
24912W        W40806   5.826  18.008   3.355  0.2034  0.1537 -0.1310
24913W        W40807  15.301   3.019   0.517 -0.2397  0.1460  0.0070
24914W        W40808  17.782   7.408   2.918 -0.2847 -0.0199 -0.4044
24915W        W40809   9.669   1.276   4.618 -0.0673  0.2328 -0.1853
24916W        W40810  13.562   5.745   2.708  0.1009  0.0244  0.2270
24917W        W40811  12.980  11.569   5.288 -0.1486 -0.0512  0.1092
24918W        W40812   7.305  15.010  13.752 -0.2588  0.2152 -0.4673
24919W        W40813   3.954  12.726  15.572 -0.0288  0.1735  0.2460
24920W        W40814   1.357   3.830   2.014 -0.0358  0.2031  0.0663
24921W        W40815  12.645   1.761  12.050 -0.4729 -0.3100  0.1752
24922W        W40816  13.124   6.876  12.656 -0.1338 -0.0298  0.1222
24923W        W40817   8.513   0.184   1.218 -0.0278 -0.0535 -0.4418
24924W        W40818  12.109  14.508  14.075  0.2892  0.0895 -0.1252
24925W        W40819   3.571   0.121  14.988  0.1835  0.2376 -0.1965
24926W        W40820  13.261   5.366   2.756 -0.0414 -0.2583 -0.1545
24927W        W40821   9.868  18.282  14.703  0.1213 -0.5385  0.0777
24928W        W40822  17.015  11.679  14.692  0.0848  0.1017 -0.0741
24929W        W40823  12.401  12.278  13.141  0.3964 -0.0852 -0.4413
24930W        W40824  14.493  16.367  13.267  0.0945 -0.0150 -0.0669
24931W        W40825   2.611   1.378   2.098 -0.0402  0.0613 -0.0995
24932W        W40826  18.401   5.341   1.964 -0.0367  0.0125  0.0565
24933W        W40827   1.426  17.522   1.100  0.0133 -0.0667  0.3066
24934W        W40828   9.840   0.777   0.880  0.0282  0.0301  0.1297
24935W        W40829  16.200  13.512   3.522  0.0353  0.2867 -0.4325
24936W        W40830  17.883   7.279  11.437 -0.2705 -0.1312 -0.2210
24937W        W40831  15.748   3.571  10.857 -0.2521 -0.0165 -0.0013
24938W        W40832   4.820  10.902   4.193 -0.1807  0.0286  0.0829
24939W        W40833  10.214   8.387  12.101 -0.0786  0.1060  0.1750
24940W        W40834  14.315  11.257  14.851 -0.2539 -0.1953  0.0397
24941W        W40835  10.752   6.646  13.256 -0.0495  0.1302  0.3697
24942W        W40836   7.718   3.863  13.727 -0.3118  0.0360 -0.0856
24943W        W40837  10.718   7.416   0.968 -0.2123 -0.1019 -0.2734
24944W        W40838   7.014   3.713   0.836  0.1871  0.2692 -0.0496
24945W        W40839  14.362   7.879  14.872  0.3440  0.3523 -0.0240
24946W        W40840  16.236   3.878  11.727 -0.1180 -0.0523  0.2041
24947W        W40841  11.621  11.337   2.643 -0.3253  0.0298 -0.1121
24948W        W40842   4.281   3.296   0.570  0.1813 -0.2999  0.3007
24949W        W40843  11.259  16.831   9.855  0.3297 -0.2146  0.2843
24950W        W40844  14.342  15.978  14.638  0.0133 -0.2596  0.2189
24951W        W40845   9.959  10.975   4.514  0.1794  0.0409 -0.3530
24952W        W40846   4.815  10.703   4.654 -0.2390 -0.0753  0.2228
24953W        W40847   0.208   3.945  14.221 -0.0925  0.1116  0.0965
24954W        W40848   2.345  15.326  14.389  0.2820  0.2206 -0.2135
24955W        W40849   8.380   3.757   0.872  0.0779 -0.2382 -0.1083
24956W        W40850  12.256   1.671   3.076 -0.2322  0.1200  0.1665
24957W        W40851  15.737  16.561  11.961  0.1168  0.0584 -0.0762
24958W        W40852   8.414   6.758   3.469 -0.3246  0.2786 -0.4035
24959W        W40853   6.840  14.520  14.489  0.0403 -0.0178 -0.0811
24960W        W40854   0.469   1.841   5.453 -0.4335  0.2428 -0.0051
24961W        W40855  12.954  14.086  10.960 -0.3573  0.0382 -0.0261
24962W        W40856   3.813  15.354   0.764  0.1304  0.0022  0.3517
24963W        W40857  12.680  15.556   3.162  0.2584  0.1034  0.0811
24964W        W40858   7.094  12.457   2.906 -0.0921 -0.1341 -0.1232
24965W        W40859  17.819  16.803  10.688 -0.3733 -0.0332  0.2394
24966W        W40860   2.934   6.545  11.856  0.0107 -0.0102  0.2187
24967W        W40861   0.006   8.952   1.194 -0.3851  0.1900  0.2748
24968W        W40862   0.065   1.522  13.046 -0.1408 -0.0276 -0.0786
24969W        W40863  17.457  13.029   0.691  0.1125  0.1088 -0.1116
24970W        W40864   3.496   8.043  12.545  0.1864  0.3172  0.1875
24971W        W40865  16.977   9.902   2.369 -0.1884  0.1119 -0.0992
24972W        W40866  13.768  16.754   0.103  0.0508 -0.1373 -0.0969
24973W        W40867  16.026  11.732  14.351 -0.0653  0.1390 -0.1939
24974W        W40868   9.692  12.411   5.425  0.1494  0.0156  0.0406
24975W        W40869   9.054   3.693  10.352  0.0576 -0.0260 -0.0628
24976W        W40870  14.157   4.218  12.967 -0.2316 -0.3462 -0.1928
24977W        W40871  15.737   5.751   5.126 -0.3546  0.1887 -0.0429
24978W        W40872  10.489  12.964   4.289 -0.1323 -0.3936  0.0957
24979W        W40873   4.242   4.646  13.877  0.2845  0.1095 -0.0512
24980W        W40874   5.223   2.994   4.870 -0.2692  0.0366  0.0879
24981W        W40875  13.393   4.674  15.198 -0.3310 -0.1695  0.0856
24982W        W40876  15.879   2.473  12.684 -0.0371 -0.0095  0.2564
24983W        W40877  12.366  13.946   0.550 -0.2071 -0.0661  0.5647
24984W        W40878   7.741   2.917  10.028 -0.1817 -0.0839  0.3974
24985W        W40879   7.980   4.761  12.715 -0.0493  0.1401  0.0598
24986W        W40880   8.345  18.287  13.875 -0.0976 -0.0868  0.1875
24987W        W40881  16.455   2.681  13.571 -0.0830 -0.2297 -0.2375
24988W        W40882   4.864   4.577  14.587  0.2169 -0.0849 -0.2824
24989W        W40883  15.304  16.528   0.397  0.0443 -0.0306 -0.1309
24990W        W40884  13.971   2.063  13.379 -0.2374  0.2916  0.4316
24991W        W40885   0.662   2.703   4.514  0.0562 -0.0510 -0.0420
24992W        W40886   2.067   0.255  13.983 -0.0734 -0.3159 -0.0357
24993W        W40887  14.994   7.128   5.779  0.3114 -0.3035  0.0708
24994W        W40888   7.825  14.424   4.534 -0.0110 -0.1081  0.0199
24995W        W40889   2.326   1.988  12.382  0.0268  0.0358  0.3234
24996W        W40890  17.781   5.059   1.265 -0.0962 -0.2282  0.1220
24997W        W40891  17.749   7.825  13.424  0.1633  0.1936 -0.2641
24998W        W40892   6.028   4.850  11.729 -0.0744  0.4213  0.2312
24999W        W40893  13.697   2.441  14.811  0.0866  0.1988  0.0814
25000W        W40894   3.559  13.753  11.932 -0.2582  0.0615  0.0136
25001W        W40895  17.197  14.044   2.362 -0.0481  0.0366 -0.0479
25002W        W40896  12.933  12.729   1.254 -0.2156  0.1261 -0.0373
25003W        W40897   6.036  12.545   1.397  0.1083 -0.1137 -0.0472
25004W        W40898  13.636   5.481   0.013 -0.1842 -0.0958 -0.2759
25005W        W40899   1.194  12.675   2.883 -0.2107  0.3306 -0.2906
25006W        W40900   4.566  11.505  13.728 -0.0504 -0.4108  0.3125
25007W        W40901  15.090   7.609  10.421  0.1311  0.3692  0.2086
25008W        W40902   6.980  15.306  10.817 -0.0833 -0.2622  0.2858
25009W        W40903   0.945   7.579   4.768  0.0778 -0.2065 -0.0834
25010W        W40904   9.074   3.761  14.626 -0.2934 -0.2111 -0.1325
25011W        W40905   4.813  14.060   4.116  0.1899 -0.0027 -0.1738
25012W        W40906   7.726   4.485  12.372  0.0809  0.2545  0.1026
25013W        W40907   0.777  11.909  11.087 -0.0074 -0.3960 -0.1254
25014W        W40908   4.757   5.082  10.599 -0.1597 -0.2861 -0.2266
25015W        W40909  11.937  16.335  13.631  0.1599  0.0388 -0.2500
25016W        W40910   1.518   0.847  13.020 -0.0919  0.0174 -0.0577
25017W        W40911   5.580  15.775  11.351 -0.0276 -0.1429  0.0210
25018W        W40912   1.335  13.102  13.485  0.1826 -0.0235 -0.1208
25019W        W40913  14.784   9.651   1.019 -0.2804 -0.0329  0.0661
25020W        W40914   4.685  16.994   4.098 -0.0813 -0.0110  0.0002
25021W        W40915  15.587  16.320  11.483  0.2145  0.1909  0.0258
25022W        W40916   7.065  18.428  12.372 -0.3305  0.0739  0.2413
25023W        W40917   5.819  13.899  12.002  0.0954  0.1618  0.0939
25024W        W40918  10.747  10.738  14.735 -0.2116  0.0626 -0.1764
25025W        W40919  13.944   8.790   2.887  0.0739 -0.0116  0.0228
25026W        W40920  15.449   6.221   5.310  0.3901 -0.1431 -0.0522
25027W        W40921   7.429  17.807  14.562 -0.1288  0.2333 -0.0138
25028W        W40922  16.079   7.602  10.149 -0.1262 -0.1737  0.1398
25029W        W40923  15.831   6.855  13.334 -0.1387  0.0182 -0.1694
25030W        W40924  14.621   9.830   0.558  0.2450 -0.0047  0.1170
25031W        W40925  18.426  12.846   5.566  0.0605 -0.0163  0.1769
25032W        W40926  12.151  17.873   1.717 -0.1668  0.1354  0.1072
25033W        W40927   9.012  13.584   3.658 -0.1260 -0.2020  0.0525
25034W        W40928  10.566  14.600  12.899 -0.2361  0.0473  0.0622
25035W        W40929   4.343   6.663  14.118 -0.0873  0.0665  0.1964
25036W        W40930   4.741   4.949   4.374  0.0894 -0.0583 -0.3409
25037W        W40931  16.542   9.754   2.138 -0.0216  0.2655 -0.0965
25038W        W40932  14.750  16.006  12.922  0.2872 -0.0242  0.1491
25039W        W40933  13.801  13.654   2.569 -0.2016 -0.1168  0.3636
25040W        W40934  13.377   6.681   2.113  0.0682 -0.1625  0.2591
25041W        W40935   3.538  15.257  12.518  0.0887  0.0393  0.0021
25042W        W40936   2.971   1.051  11.565  0.0197  0.0128 -0.1739
25043W        W40937  18.288  11.447   5.193 -0.0646 -0.1199  0.0009
25044W        W40938   7.546  10.695  13.012 -0.1156 -0.0750 -0.2595
25045W        W40939  11.659  15.314  11.694  0.1648 -0.1632 -0.3317
25046W        W40940  17.892   9.825   3.347  0.1227  0.0691 -0.0957
25047W        W40941   4.365  15.194   3.135  0.0611  0.1674  0.0382
25048W        W40942  14.024  12.331   5.834 -0.2168  0.2761  0.2899
25049W        W40943  12.371  15.874   0.299  0.0041  0.0835 -0.3195
25050W        W40944  11.071  14.014   5.012 -0.1527  0.0933 -0.0613
25051W        W40945   8.852  15.550   2.668  0.2534 -0.1713 -0.0987
25052W        W40946   2.877   5.655  15.256  0.0528 -0.0375 -0.2418
25053W        W40947  16.296   7.353   1.258  0.3210  0.0072 -0.0957
25054W        W40948  13.980   7.911   2.202  0.1249  0.1951 -0.2586
25055W        W40949   4.421  12.837  14.813 -0.0121 -0.1551  0.0894
25056W        W40950  14.587   4.164  10.719  0.1964  0.0650 -0.0562
25057W        W40951   4.337   4.263   0.029 -0.3264  0.0423 -0.0182
25058W        W40952   8.931   5.524   4.977 -0.3049 -0.0403  0.0814
25059W        W40953  17.588   5.217  11.167 -0.0284  0.4450 -0.1815
25060W        W40954  16.783   5.259   2.204  0.1916  0.2517 -0.3769
25061W        W40955   2.397   8.906  13.007 -0.0755  0.1660 -0.0256
25062W        W40956   3.219  14.756   9.155  0.1173 -0.2398  0.0731
25063W        W40957   3.016  15.970  11.475  0.0897 -0.2733 -0.0005
25064W        W40958   8.174   8.136  10.563 -0.2992  0.0204  0.0272
25065W        W40959   6.886   1.719   9.491 -0.1179 -0.1129 -0.0028
25066W        W40960   5.277  18.242  14.366  0.0517  0.0527 -0.1849
25067W        W40961  13.556   1.773   1.999  0.0791  0.2447 -0.0832
25068W        W40962  13.183   7.123  14.124  0.1848 -0.3703  0.1339
25069W        W40963  18.367   5.396  12.714 -0.1544 -0.0509  0.0747
25070W        W40964  12.162   2.190  11.296  0.0805 -0.0297 -0.0474
25071W        W40965   5.607  15.810  12.189  0.0716 -0.1379  0.1140
25072W        W40966   1.348   8.265   1.432 -0.1552 -0.0945 -0.0083
25073W        W40967  11.036   1.302   0.624 -0.0451 -0.2734  0.1107
25074W        W40968  16.607  18.351  12.637 -0.0360 -0.0427 -0.2321
25075W        W40969   9.726   7.869  13.363 -0.5936 -0.0969  0.0312
25076W        W40970  13.794  12.480   4.417  0.1518 -0.1282  0.3038
25077W        W40971  15.988  10.703   2.530  0.2034 -0.2030 -0.0352
25078W        W40972   6.345  14.114   2.387 -0.3000  0.2144  0.1252
25079W        W40973  10.252  14.297   4.518 -0.2772  0.2888 -0.0858
25080W        W40974   8.558   5.168  13.062 -0.0257 -0.2021  0.2139
25081W        W40975   7.509  14.756   3.114 -0.0396 -0.0171  0.2634
25082W        W40976   4.457   1.700  10.975 -0.3528 -0.1670 -0.0632
25083W        W40977   1.065   8.243   5.388 -0.1613  0.2574 -0.3488
25084W        W40978   3.148   0.696   3.924  0.2417 -0.2284 -0.2203
25085W        W40979  13.932  17.940  10.058 -0.1594  0.0886  0.0926
25086W        W40980  10.940   5.349   4.702  0.1268  0.0063 -0.1858
25087W        W40981  14.944   4.132  12.339  0.2799 -0.0861  0.0237
25088W        W40982   6.035   1.184  11.541 -0.0382 -0.1057  0.0863
25089W        W40983  14.820  16.741   2.448  0.0983  0.3831  0.0825
25090W        W40984   4.942  18.404  11.913  0.0302 -0.3934 -0.3105
25091W        W40985  13.911   9.566   4.763 -0.2293  0.0512  0.0394
25092W        W40986   4.499   9.790  11.429 -0.0244 -0.0563 -0.2354
25093W        W40987  13.502   4.997  12.725 -0.0919  0.2445 -0.0475
25094W        W40988   4.935  16.358  15.016  0.4092  0.0675 -0.2877
25095W        W40989  14.475   2.117  13.565  0.2881 -0.1218 -0.0443
25096W        W40990   8.474   6.678  15.510 -0.1070 -0.2314  0.0535
25097W        W40991   1.665  17.025   3.833  0.1509 -0.3381  0.0798
25098W        W40992  18.485   3.556   1.718 -0.2938  0.1012  0.1212
25099W        W40993  13.202   8.377   0.614  0.0468 -0.0623  0.1067
25100W        W40994  16.051   2.542  11.884  0.2781  0.2376  0.0732
25101W        W40995  12.146  10.804   1.728  0.0607 -0.1832  0.0243
25102W        W40996  18.282  17.137   2.519  0.0429 -0.3289  0.2334
25103W        W40997   1.467   7.403   3.335  0.1069 -0.2832 -0.1128
25104W        W40998   1.082   9.550  14.333  0.0738 -0.1375  0.0236
25105W        W40999   7.140  10.765  15.231  0.3292 -0.5657 -0.2626
25106W        W41000  16.732  12.740  11.626  0.0915  0.2945  0.1953
25107W        W41001  17.287   8.675  13.578 -0.2413 -0.2754  0.0662
25108W        W41002   5.936   8.429  12.291  0.0973  0.0177  0.2670
25109W        W41003  13.674  13.390  14.176 -0.1067  0.2181  0.1142
25110W        W41004  10.650  16.695   3.096 -0.2648 -0.3313  0.0920
25111W        W41005   5.386   1.761   4.166 -0.1089 -0.0829 -0.0939
25112W        W41006  11.814   7.317  13.879 -0.2328 -0.1160  0.5185
25113W        W41007   8.895   0.082   1.630  0.0163 -0.2862 -0.1084
25114W        W41008   8.854   6.979   0.055 -0.1695 -0.2060  0.1279
25115W        W41009  12.882   0.866  14.471 -0.0963  0.0705 -0.1199
25116W        W41010   3.175   6.801  10.822  0.0884  0.0245 -0.4699
25117W        W41011  11.195  12.363  11.960  0.2150  0.1382  0.1040
25118W        W41012  12.685   0.048  11.598  0.0089 -0.0568 -0.1343
25119W        W41013  17.655   1.928   0.645  0.0257  0.0575  0.1479
25120W        W41014  17.278  17.523  13.560 -0.1304 -0.3137 -0.2112
25121W        W41015   3.793   0.917   5.160 -0.1826 -0.1505 -0.1350
25122W        W41016   3.919  11.748   3.630 -0.0957 -0.2249 -0.3024
25123W        W41017   2.606   9.972  11.007  0.3944 -0.1624 -0.2890
25124W        W41018   7.393   4.296  13.699 -0.1680  0.2991  0.0481
25125W        W41019   8.333   3.872   9.311  0.3193 -0.1991  0.2382
25126W        W41020   0.491  16.749   0.816 -0.0191 -0.4045  0.1425
25127W        W41021   0.345   4.305  13.840 -0.1814 -0.0289 -0.2062
25128W        W41022   9.291   6.150  14.850  0.1126 -0.0920 -0.0016
25129W        W41023   5.701  10.186  11.355 -0.0712  0.0638  0.0778
25130W        W41024  11.645   5.264  12.689  0.0323 -0.0680 -0.2155
25131W        W41025  16.765   4.049   0.455  0.1082  0.1729  0.1574
25132W        W41026  13.547  18.331  11.441 -0.1399  0.0178  0.2217
25133W        W41027  10.217  10.902   3.586 -0.3013  0.2206  0.1543
25134W        W41028  18.199   1.884  14.429  0.1446  0.1857 -0.2686
25135W        W41029  13.354  15.123  15.169  0.2539  0.2202  0.2702
25136W        W41030   4.571  16.495   1.743  0.0040 -0.2146 -0.2465
25137W        W41031   2.582   9.630   5.008 -0.1215 -0.0011  0.0538
25138W        W41032  10.868   7.478   3.451 -0.0780 -0.1276  0.3140
25139W        W41033   9.340   3.468  12.793  0.1757 -0.2081  0.0068
25140W        W41034  13.010  11.263   1.201  0.0098 -0.0684 -0.2939
25141W        W41035   5.560   4.459   2.240  0.0828  0.2769  0.1605
25142W        W41036  12.570  18.682   3.189  0.0783  0.2110 -0.1268
25143W        W41037   9.196   5.643  13.780 -0.2299 -0.0668  0.0449
25144W        W41038   4.956   5.481  15.280 -0.1263 -0.0187 -0.0990
25145W        W41039   5.350  11.796   4.154 -0.0452 -0.0715  0.0897
25146W        W41040  17.225   9.664  13.347 -0.2408  0.1443 -0.1665
25147W        W41041   8.756  13.904   0.422  0.0335  0.1369  0.0624
25148W        W41042   2.441  16.139  15.074  0.0670 -0.1330 -0.0041
25149W        W41043  14.439  16.461   1.428 -0.2050  0.0142  0.0349
25150W        W41044  12.365  14.283  12.141 -0.1425  0.1332  0.1187
25151W        W41045   5.584   2.024   1.982  0.3193  0.1816  0.0105
25152W        W41046  15.952  12.813   0.302  0.2244 -0.1118 -0.2349
25153W        W41047  17.707   0.236  10.879 -0.2041  0.0239  0.0566
25154W        W41048  16.358   3.014  14.022  0.2893  0.1687  0.0784
25155W        W41049  11.231  14.226   1.866 -0.1124 -0.0547 -0.2178
25156W        W41050   3.846   7.429  14.510  0.3204 -0.2260 -0.2835
25157W        W41051   3.844  13.306  12.959  0.0374  0.2007  0.0230
25158W        W41052  18.697  17.324   3.314  0.1535 -0.2489  0.3188
25159W        W41053   7.141  13.536  13.029 -0.2718  0.1040  0.1108
25160W        W41054   4.752  13.906   5.638 -0.0534  0.0456 -0.0007
25161W        W41055  17.282   4.307  12.058  0.1935 -0.4202  0.0588
25162W        W41056   0.524   0.647  11.665 -0.3292 -0.3951  0.0506
25163W        W41057   1.667  16.852  12.190  0.0724  0.0496  0.1890
25164W        W41058  18.369   8.064   0.655 -0.0536 -0.2578  0.0684
25165W        W41059   9.100  16.024   1.728 -0.0109  0.0105  0.1103
25166W        W41060   4.582   3.251   3.116  0.1327 -0.1341 -0.0225
25167W        W41061   8.719   1.272  14.568  0.1413  0.2005 -0.2816
25168W        W41062  12.700   3.227  13.559  0.4554  0.0502 -0.0368
25169W        W41063   5.904   3.265  15.073 -0.1447 -0.1201 -0.3533
25170W        W41064   6.992   1.029   1.266  0.4534  0.3740 -0.2957
25171W        W41065   1.196   0.710  12.682  0.0529 -0.1651 -0.0170
25172W        W41066   3.094   7.478   1.428  0.1748 -0.0630 -0.2035
25173W        W41067  16.552  14.483  14.125 -0.0467  0.0258  0.0027
25174W        W41068  14.645   2.184   0.625 -0.0778 -0.2645 -0.0317
25175W        W41069   5.254  10.108  14.815  0.1975 -0.0309  0.4741
25176W        W41070   4.907  16.857  14.771 -0.1213 -0.1546 -0.0341
25177W        W41071  10.688  15.882  15.320  0.1678  0.1867 -0.2980
25178W        W41072  16.249  10.411  11.833 -0.1624 -0.0125  0.1770
25179W        W41073  18.209   3.482   1.311 -0.1292  0.2381 -0.0940
25180W        W41074  17.440   3.852   3.228  0.2555 -0.0530  0.3750
25181W        W41075  14.420   5.861  11.499  0.2057  0.0784  0.1743
25182W        W41076   3.381  12.175  10.940 -0.0912  0.1258  0.0565
25183W        W41077  10.506  10.547   3.794  0.0847  0.1920 -0.0709
25184W        W41078  10.853  15.932   0.248 -0.0236  0.2561 -0.3948
25185W        W41079  18.043  15.540   4.631  0.0477 -0.1785  0.1259
25186W        W41080   2.549   0.768   9.474 -0.0406  0.3198 -0.3786
25187W        W41081   1.191   3.027  14.310 -0.0681 -0.1530 -0.2369
25188W        W41082  11.563   9.232  11.664 -0.0073 -0.0052 -0.0022
25189W        W41083  18.021   3.028   2.079 -0.3053 -0.4498  0.2296
25190W        W41084  16.774  14.573   3.005  0.1411 -0.0749  0.0265
25191W        W41085   5.152  12.260  14.849  0.0342  0.1666 -0.1981
25192W        W41086   5.156   9.020   9.960 -0.0299 -0.0876  0.0297
25193W        W41087  17.830  13.944   4.374  0.0413 -0.1646  0.2722
25194W        W41088  12.621  17.943  15.034 -0.3611  0.0245 -0.1825
25195W        W41089   9.777   2.919   4.180 -0.3442 -0.0801 -0.3400
25196W        W41090   1.088   8.282  10.723  0.0652 -0.1828  0.0314
25197W        W41091   7.172   0.409   3.702  0.1592 -0.1135  0.0688
25198W        W41092   0.839   3.775   1.557  0.1248 -0.1861  0.1623
25199W        W41093  16.597  10.770  11.987 -0.0505  0.0049 -0.1212
25200W        W41094   3.890   6.599   1.974 -0.2231 -0.3272 -0.2295
25201W        W41095   6.825  12.075  14.679  0.0152 -0.3210 -0.2705
25202W        W41096  14.142  13.069   0.653 -0.3356 -0.1474  0.1221
25203W        W41097  16.611   8.412   1.524 -0.1630 -0.0675  0.1984
25204W        W41098   1.170   2.908   0.361 -0.1364  0.1862  0.0794
25205W        W41099   9.230   7.786   2.566  0.0621  0.2312  0.0598
25206W        W41100   9.905   6.148  13.365 -0.0404  0.1386 -0.2008
25207W        W41101  10.752  15.398  15.400 -0.1457  0.2067 -0.1493
25208W        W41102   1.955  16.268   4.046  0.0995  0.0479  0.0154
25209W        W41103  15.496  10.481  13.146  0.3173  0.0532 -0.1081
25210W        W41104   7.858  11.012  12.752 -0.5260  0.3761 -0.0372
25211W        W41105   2.562  10.389  11.899  0.0522  0.0405 -0.2087
25212W        W41106  12.302   4.900  14.272 -0.0051 -0.0432  0.0118
25213W        W41107  15.004   0.046  13.118  0.1712  0.2667 -0.3848
25214W        W41108   8.841   9.637   1.665 -0.0474 -0.1677  0.0974
25215W        W41109   5.242   5.932   3.185  0.0390 -0.0026 -0.1065
25216W        W41110  10.077   3.569   3.983 -0.0649 -0.1725  0.2875
25217W        W41111   9.652   1.998  11.511 -0.1116  0.2270  0.1005
25218W        W41112  11.574  13.658   4.783 -0.1168  0.0499 -0.0178
25219W        W41113   7.542  12.423  11.281  0.0498 -0.1388  0.1203
25220W        W41114   5.531   2.138  13.884  0.0265  0.3794  0.0170
25221W        W41115   0.091  16.988  14.371 -0.1947 -0.0067 -0.2594
25222W        W41116   1.848  10.048   3.747  0.3024 -0.0734 -0.1950
25223W        W41117  10.723   5.671  12.340 -0.1185 -0.0297  0.1029
25224W        W41118  11.551   7.896   2.054 -0.0060  0.1471 -0.2192
25225W        W41119   9.760   9.950   2.148 -0.0293 -0.0853 -0.0975
25226W        W41120   6.030  14.755   4.965  0.1996 -0.2947 -0.3136
25227W        W41121   0.786  14.281   0.188  0.2804  0.1145 -0.0853
25228W        W41122  18.547  16.726  12.944  0.1000 -0.0584 -0.1268
25229W        W41123   4.698   7.270   0.736  0.1511  0.3486 -0.1089
25230W        W41124   3.548  18.158   1.896 -0.0381  0.1203 -0.1774
25231W        W41125  14.059  10.960  15.615 -0.2465  0.2454 -0.0593
25232W        W41126  17.298   8.692  15.491  0.0522  0.0676 -0.2154
25233W        W41127   0.944  15.138  15.221 -0.0956 -0.0018 -0.2322
25234W        W41128   5.823   7.774   4.529  0.1070  0.2558  0.1232
25235W        W41129   1.083  17.673   1.455  0.0129 -0.0331 -0.2862
25236W        W41130   5.432   2.039  12.338 -0.0753  0.0683 -0.2762
25237W        W41131  17.745  11.762  13.284  0.1064  0.0299 -0.1686
25238W        W41132   6.321  15.286  14.980  0.0730  0.1210 -0.1146
25239W        W41133   8.880   3.968   3.837  0.2338  0.3470 -0.1203
25240W        W41134   1.677  18.644  11.898 -0.1899 -0.0236 -0.2473
25241W        W41135   2.526   6.543  11.482  0.2122 -0.2371 -0.1048
25242W        W41136  15.094  14.423  13.897  0.1769 -0.1046 -0.3728
25243W        W41137   6.146   8.816   2.005  0.1506  0.0813 -0.0810
25244W        W41138  17.203   8.538  14.292 -0.0537  0.1311  0.3760
25245W        W41139  14.962  17.063  12.899 -0.0998  0.2310 -0.0575
25246W        W41140   9.378   6.231   5.612  0.2594 -0.1018 -0.2013
25247W        W41141   3.503   4.237  15.404  0.2837  0.0937  0.1134
25248W        W41142   0.659   9.837   1.989 -0.1554 -0.2149  0.1243
25249W        W41143  13.314   0.541  14.359 -0.0282 -0.1594 -0.0455
25250W        W41144   7.336  15.889  12.949 -0.0510 -0.2011  0.3637
25251W        W41145  14.507   1.656   0.140 -0.0404  0.3980  0.0306
25252W        W41146   2.047  16.036  12.046 -0.0932 -0.0301 -0.0280
25253W        W41147  15.971   4.486  12.465  0.1293  0.1760 -0.0508
25254W        W41148   3.043   2.148  11.811  0.1998  0.0984 -0.0185
25255W        W41149  17.597   8.034   1.424  0.1890  0.2323 -0.0364
25256W        W41150  15.980  14.065  13.378 -0.0950 -0.2370  0.0009
25257W        W41151   1.861  16.040  15.526 -0.1797 -0.2072  0.0703
25258W        W41152  10.893  10.838  12.170 -0.1842 -0.0371  0.1045
25259W        W41153   3.955   6.122   0.003 -0.1687  0.0269 -0.3569
25260W        W41154   7.891   2.822  10.991  0.1019  0.1590  0.2823
25261W        W41155  16.856  11.015  13.126 -0.2844  0.1369 -0.1516
25262W        W41156  17.289   6.758   1.374 -0.1829 -0.2568 -0.1387
25263W        W41157  14.561  17.559   2.139 -0.1491  0.3516 -0.2516
25264W        W41158   5.058  15.032  14.940 -0.0314  0.0575  0.2961
25265W        W41159  12.424   2.653   1.617 -0.2253  0.1000  0.1469
25266W        W41160   5.109  15.787  10.961 -0.1675  0.1329 -0.1643
25267W        W41161  12.231   0.934  14.881  0.0880  0.3192  0.1790
25268W        W41162   7.773  18.580   4.363 -0.2129 -0.0471  0.0532
25269W        W41163  14.542   6.021   5.602 -0.0817 -0.0141 -0.5177
25270W        W41164  17.812   8.199   2.243 -0.4111  0.1064 -0.2466
25271W        W41165   0.035  15.587   0.909 -0.0194  0.0094  0.2549
25272W        W41166  18.510   6.495   1.432 -0.3504 -0.0765 -0.4818
25273W        W41167   3.439   3.886  11.233 -0.0401 -0.0386  0.2124
25274W        W41168   2.976   8.054   3.264 -0.1381 -0.0660  0.0330
25275W        W41169  10.579  14.532   0.004 -0.0630  0.1051 -0.0411
25276W        W41170  13.860  14.423  12.013 -0.0360 -0.0003  0.2643
25277W        W41171   8.428   1.098   0.039  0.0449 -0.1590  0.0650
25278W        W41172   5.468   5.478   3.847 -0.0194 -0.0257  0.0574
25279W        W41173   6.120  16.131   4.069  0.2968 -0.0053  0.0512
25280W        W41174   8.229  12.009  12.569 -0.0208  0.0818 -0.0545
25281W        W41175   1.242  11.324   4.686 -0.0021  0.0821  0.1835
25282W        W41176  17.918  14.023   5.427 -0.2138 -0.1295  0.1695
25283W        W41177   6.434   6.682  10.708  0.2017  0.1102  0.0802
25284W        W41178   8.987  18.476  15.451  0.0425 -0.0139  0.3114
25285W        W41179   5.397   5.840   1.372  0.1185 -0.0317 -0.1012
25286W        W41180   6.726   1.265   3.467 -0.2468 -0.1028  0.0051
25287W        W41181  10.225  13.468  11.446 -0.2041  0.3360  0.1889
25288W        W41182   2.118  13.128   0.630  0.1219 -0.1817 -0.2042
25289W        W41183  13.896  15.606   5.737 -0.0126  0.1437 -0.0200
25290W        W41184   1.284  10.108   3.725  0.0863 -0.1940 -0.2686
25291W        W41185   4.723   8.445   1.903 -0.2162  0.0459 -0.3974
25292W        W41186   8.715   2.186  11.755 -0.0038  0.3519 -0.0746
25293W        W41187   0.495   8.205   1.530 -0.1019 -0.2382 -0.1271
25294W        W41188  18.025   4.918  13.530 -0.2040 -0.1339  0.2398
25295W        W41189   3.249  17.906  12.436 -0.0826 -0.4563  0.1639
25296W        W41190  13.769   0.750  11.323 -0.1191 -0.2236 -0.0388
25297W        W41191   7.965  13.512   2.713 -0.0516 -0.1811 -0.1398
25298W        W41192  17.149   7.041  11.855  0.0929 -0.1556  0.0724
25299W        W41193  15.980  15.634   2.788 -0.3172  0.1492 -0.0794
25300W        W41194   0.900   7.820   4.086  0.2532  0.3111 -0.1286
25301W        W41195  13.533   5.322  12.326 -0.2289 -0.2305  0.2697
25302W        W41196   5.901   1.996  13.529  0.1244  0.0852 -0.2581
25303W        W41197   7.301  14.341  14.498 -0.1167  0.4413 -0.1890
25304W        W41198   3.718  18.412   4.851  0.1748  0.0888  0.0766
25305W        W41199   5.831  15.894   9.682  0.1662 -0.0653 -0.2399
25306W        W41200   8.341   3.141  11.989 -0.1618  0.2669  0.1736
25307W        W41201  17.151  10.771   5.260  0.0540 -0.0151 -0.1589
25308W        W41202  11.821  13.193  12.713  0.2912 -0.4503  0.1299
25309W        W41203   5.992  11.887   1.986  0.0987 -0.0925  0.0719
25310W        W41204  12.701  13.570  11.764 -0.2414 -0.2329  0.0828
25311W        W41205  12.928   1.443   4.949  0.0944  0.1519  0.0226
25312W        W41206   6.341   5.901  11.747  0.1170 -0.0667  0.3302
25313W        W41207  10.140  14.472   2.874  0.1389  0.0021  0.1714
25314W        W41208   6.062  14.906  11.886 -0.1986  0.1996 -0.2970
25315W        W41209  10.035   5.103   4.459 -0.0969 -0.1229  0.0410
25316W        W41210   3.038   6.603   0.642  0.1917 -0.3747 -0.0569
25317W        W41211   4.633   4.358   0.688  0.0158  0.2274 -0.0352
25318W        W41212  16.849  15.803   3.432  0.0930  0.0175 -0.1962
25319W        W41213  15.099   9.477  11.621 -0.1825  0.2302  0.1586
25320W        W41214   3.585   5.879  10.885 -0.0374 -0.0280 -0.1899
25321W        W41215  10.833   7.292  12.275 -0.0081 -0.3284 -0.1561
25322W        W41216  10.181   3.070  12.400 -0.1462 -0.1762 -0.1741
25323W        W41217   8.136  17.429  13.503 -0.1781 -0.2217 -0.1424
25324W        W41218   8.400  13.331   2.647 -0.0571  0.2503 -0.2556
25325W        W41219   0.843   1.333   0.055 -0.1835 -0.0897  0.0802
25326W        W41220   2.970   0.453  10.397 -0.0841 -0.2989 -0.0509
25327W        W41221  14.558  13.215  11.281  0.2290  0.3650  0.1416
25328W        W41222   4.656   3.391   2.273  0.0138 -0.0195 -0.1631
25329W        W41223   6.229  16.669  13.277 -0.1888 -0.2094 -0.0125
25330W        W41224  13.091  16.850  13.103  0.4444 -0.2709  0.1076
25331W        W41225   1.894  15.078   2.398  0.0804  0.3371  0.0268
25332W        W41226   5.922   7.142  10.255  0.2351 -0.0455 -0.0647
25333W        W41227   2.727  11.861  14.382  0.0974 -0.0448  0.2489
25334W        W41228   5.575  13.219   5.065  0.2306  0.0973 -0.0420
25335W        W41229  16.757  13.594  14.349  0.1427  0.2496 -0.1678
25336W        W41230  10.642  15.806   5.729 -0.1486  0.0190 -0.0500
25337W        W41231   8.822  17.761  14.405  0.0713  0.0203  0.0277
25338W        W41232  13.964  13.218   3.899 -0.1188  0.2334 -0.0763
25339W        W41233  14.503   0.396  15.446  0.0044 -0.1428  0.1118
25340W        W41234   9.063  15.625   1.318  0.2153 -0.0674  0.3270
25341W        W41235   3.466   9.794  13.691 -0.1641  0.1463  0.1531
25342W        W41236   8.766  10.192   2.620  0.0567  0.2883 -0.0845
25343W        W41237   0.799   0.025   0.640  0.0326 -0.0630  0.2624
25344W        W41238   4.336   8.026   4.734 -0.3692  0.2832 -0.3017
25345W        W41239   5.115  11.344   4.332  0.1334  0.0091  0.2020
25346W        W41240   8.793  11.375   3.739  0.1635 -0.1224  0.0549
25347W        W41241   6.310   0.552  12.205  0.1783  0.2422 -0.1250
25348W        W41242  13.729   6.593   5.548  0.0339  0.2086 -0.2543
25349W        W41243   0.876  18.240   1.302 -0.0247 -0.1092 -0.2277
25350W        W41244  12.801   7.064   0.027  0.1605 -0.0359 -0.0264
25351W        W41245  11.633  14.166   5.249 -0.0631 -0.2527  0.1104
25352W        W41246   6.660  17.679  12.415  0.0214  0.1495  0.1922
25353W        W41247  15.941   0.498  11.585  0.1002  0.3349 -0.3111
25354W        W41248   0.652   4.681   2.324  0.0837 -0.5183 -0.2069
25355W        W41249   6.029  12.439  11.524 -0.0699 -0.2595 -0.3200
25356W        W41250  17.395   8.481  13.135 -0.1629 -0.1683 -0.2045
25357W        W41251  16.084  13.909  15.329 -0.0556 -0.0685  0.4230
25358W        W41252  13.659   0.232  14.129 -0.1480  0.0563  0.1483
25359W        W41253  10.366   1.839  12.282  0.3314 -0.2442  0.0640
25360W        W41254  15.236  12.106  14.399  0.1511  0.1262  0.3534
25361W        W41255   3.960   9.610   5.178 -0.2134  0.1176  0.0263
25362W        W41256  16.871   8.484  15.201  0.0684  0.0698 -0.0862
25363W        W41257   0.602   8.654  12.501  0.1316  0.0448 -0.1814
25364W        W41258  12.809   1.557   1.061  0.0546  0.1971  0.1780
25365W        W41259   1.252   9.597   3.735  0.0831 -0.3335  0.1553
25366W        W41260  13.141   7.560  11.214 -0.0963 -0.0960  0.0151
25367W        W41261   4.078   5.464  15.120 -0.4371  0.1309  0.0573
25368W        W41262   8.703  18.666   4.269  0.2102 -0.0026 -0.0371
25369W        W41263  10.140  15.186  12.099  0.0491  0.2137  0.1292
25370W        W41264   5.396   6.618   4.978 -0.0536 -0.0183  0.0358
25371W        W41265   2.597   9.052  12.610 -0.2301  0.1473  0.0357
25372W        W41266   6.789  10.344   0.872 -0.0931 -0.1991  0.1638
25373W        W41267  16.524   4.725   5.432 -0.1851 -0.1195 -0.0993
25374W        W41268  11.252  10.565  11.923  0.0229  0.1302 -0.0180
25375W        W41269  17.340  14.618   5.539 -0.1839  0.5022 -0.0554
25376W        W41270  11.925   0.617   1.210 -0.0437  0.0016 -0.0032
25377W        W41271   4.113  10.227  10.704 -0.0878 -0.2498 -0.2993
25378W        W41272  15.031  14.857   4.975 -0.0589 -0.1251 -0.0171
25379W        W41273   9.147   2.997   4.787 -0.3180 -0.0352 -0.0666
25380W        W41274   8.380   6.792   4.291  0.0056 -0.1214  0.1255
25381W        W41275   5.019   6.578   1.235  0.0964 -0.1487 -0.1475
25382W        W41276  10.104   4.112  10.771 -0.0274 -0.1815  0.0111
25383W        W41277   5.321  12.892  13.404 -0.0871  0.0882  0.1080
25384W        W41278   8.918  17.321  15.157  0.1780  0.1175 -0.0514
25385W        W41279  10.453   1.237  10.618 -0.1271  0.0620  0.2796
25386W        W41280  14.619  17.303  11.299  0.1847 -0.1726  0.1972
25387W        W41281   3.523  18.482   3.963  0.3400  0.1617  0.4417
25388W        W41282  10.039  14.568   1.693 -0.3138  0.3014  0.3077
25389W        W41283  13.045  15.034   2.129 -0.0211 -0.3924 -0.4061
25390W        W41284  10.048   2.775   2.250 -0.1381 -0.2097  0.0490
25391W        W41285  18.044   1.246  14.998  0.1759 -0.0629 -0.1522
25392W        W41286  16.916  15.337  10.677  0.0599  0.2092  0.0652
25393W        W41287   1.615   5.876  13.390  0.0474  0.1495  0.2734
25394W        W41288   2.452  16.244   0.560  0.1383  0.1001  0.3565
25395W        W41289   2.525  13.033  13.792  0.0093  0.0370 -0.2003
25396W        W41290  13.707  17.616   2.242  0.2498  0.0321 -0.1553
25397W        W41291  13.865   4.636   2.667  0.2924 -0.1994 -0.0697
25398W        W41292  10.252  10.060   3.794  0.3457  0.2390  0.0260
25399W        W41293  12.398   0.487  11.586 -0.3796  0.0346  0.0418
25400W        W41294   5.825  13.507  11.669  0.1482  0.0903 -0.0675
25401W        W41295  15.496  10.224   3.184  0.3979 -0.0964 -0.0016
25402W        W41296   9.732   5.542  12.423  0.0726 -0.2777 -0.1328
25403W        W41297  12.514   5.443   3.424 -0.0423  0.0908  0.3486
25404W        W41298   5.016  12.595  13.097 -0.0467 -0.0664 -0.1126
25405W        W41299  12.674   1.343  13.485 -0.2450 -0.1863  0.0975
25406W        W41300  14.110   1.571   0.447  0.2071  0.1985 -0.0838
25407W        W41301  17.548  16.803  12.476  0.1936 -0.2483 -0.0714
25408W        W41302   4.200  18.585  12.104  0.0312  0.1818 -0.2735
25409W        W41303   2.803  14.570  15.322 -0.1767  0.1183  0.3633
25410W        W41304   3.123  18.592   0.707 -0.1450  0.0664 -0.1369
25411W        W41305   2.430   3.683  12.981  0.0584  0.1203  0.1268
25412W        W41306   6.474   7.546  14.787  0.1192  0.0957  0.0339
25413W        W41307   1.315   4.298   3.455  0.0746  0.2351 -0.1139
25414W        W41308  16.661  18.194  13.712 -0.1418  0.1430 -0.0533
25415W        W41309  17.103   4.149   2.994 -0.3139 -0.2197 -0.1258
25416W        W41310   6.109  13.401  12.151  0.0976 -0.0448  0.1454
25417W        W41311   2.371  11.312   4.383  0.1378  0.0271  0.2463
25418W        W41312  12.282   3.370  11.468 -0.0795  0.0337  0.1405
25419W        W41313  16.778  11.269   3.606 -0.0447  0.1232 -0.2362
25420W        W41314  18.317   1.499   5.363 -0.1739 -0.2205 -0.0820
25421W        W41315   9.799  11.882   0.002  0.1545 -0.2675  0.0778
25422W        W41316  12.650  17.321  14.356  0.0836  0.2035  0.0480
25423W        W41317  15.169   8.485   2.294  0.1918 -0.0424 -0.2848
25424W        W41318  18.725   1.808   5.364  0.0613  0.0935 -0.3134
25425W        W41319   7.290   0.482   1.855  0.1853 -0.0118 -0.1323
25426W        W41320   1.776   6.835  14.007 -0.0601  0.2351 -0.1267
25427W        W41321  13.727   3.242   0.745  0.0438 -0.2537  0.2521
25428W        W41322  11.651  10.228   3.091 -0.0221  0.1008  0.1131
25429W        W41323   0.169   5.631  10.879  0.0782  0.1789 -0.3411
25430W        W41324   5.481  10.105   4.242  0.0766 -0.1283 -0.0932
25431W        W41325   4.952  10.560  15.508  0.3265  0.2864  0.1441
25432W        W41326   6.548   3.513  12.380 -0.1975 -0.2401 -0.1920
25433W        W41327   9.069  16.919  14.872  0.2988 -0.3021 -0.2293
25434W        W41328   0.756   6.872   1.346  0.1390 -0.1762 -0.2660
25435W        W41329  16.794   4.100   4.082 -0.2548  0.2622  0.0165
25436W        W41330   7.218   0.117  12.547 -0.0967  0.1791 -0.1914
25437W        W41331  14.020   3.554   1.141  0.1067 -0.4157 -0.1396
25438W        W41332   5.925  15.478   4.675  0.1608  0.0719  0.1919
25439W        W41333   5.837   0.165   2.096 -0.1027  0.0421 -0.1021
25440W        W41334   0.474   1.308   5.505 -0.1272 -0.0692  0.2094
25441W        W41335  17.635  11.325   4.496 -0.0752 -0.3706 -0.2999
25442W        W41336   0.153   0.767   1.518 -0.1903  0.1324  0.2082
25443W        W41337   7.918   4.713   0.985  0.0904  0.1051  0.3406
25444W        W41338  10.746   9.463   3.642 -0.0167 -0.0057 -0.0840
25445W        W41339  12.296  13.659  15.594 -0.1765  0.2324 -0.2974
25446W        W41340   3.248  11.261   2.128 -0.0917 -0.1267  0.3046
25447W        W41341   8.267   3.286   0.704  0.0968 -0.0208  0.0096
25448W        W41342  14.664   5.192   5.027  0.3555  0.1042 -0.0855
25449W        W41343   5.506   3.466   2.600 -0.2340  0.1336 -0.1828
25450W        W41344  15.511   9.881  13.273 -0.2288  0.0255 -0.0567
25451W        W41345   3.368  15.674  10.258 -0.0139 -0.0794  0.0450
25452W        W41346   9.241   8.111  13.426 -0.0984  0.1412  0.1476
25453W        W41347  13.194  10.797  11.946  0.1054  0.1516  0.1757
25454W        W41348   8.950   6.314   1.197  0.1941 -0.0197  0.1520
25455W        W41349  11.637   4.529  14.702 -0.1607 -0.0787 -0.0613
25456W        W41350  13.837  14.927   3.852  0.0782  0.0232 -0.2125
25457W        W41351   7.894   5.724  13.823 -0.0743 -0.0276 -0.1388
25458W        W41352   7.533  17.094   5.127 -0.0420 -0.1204  0.0900
25459W        W41353  13.064  11.892   4.906 -0.2090 -0.1488  0.0521
25460W        W41354  17.619   6.754   3.104  0.1937 -0.1696  0.2490
25461W        W41355   5.145   7.705   3.164  0.1415  0.0663  0.1890
25462W        W41356  16.195   4.912  15.280  0.1597 -0.1682 -0.0429
25463W        W41357   4.351   8.657   2.177 -0.3169  0.4449 -0.0645
25464W        W41358  13.080  18.758  12.897 -0.0596  0.1516  0.1690
25465W        W41359   0.278   0.085  11.610 -0.1989  0.1634  0.0982
25466W        W41360   6.767   9.746   1.938  0.0494  0.2987  0.1569
25467W        W41361  11.312   2.469   2.578 -0.0118  0.0412  0.2323
25468W        W41362  18.193   0.664   4.760  0.2227 -0.1052  0.2114
25469W        W41363  15.060   2.266  13.674  0.2121  0.0377 -0.1876
25470W        W41364   1.507  13.615  12.775 -0.0627  0.0260 -0.2340
25471W        W41365   0.013  17.955  14.546  0.1168  0.0438 -0.1468
25472W        W41366   7.219   9.720   9.904  0.1402 -0.3545 -0.0006
25473W        W41367  10.778  17.099   0.471  0.1465  0.1699 -0.3109
25474W        W41368   5.995   8.312   1.541 -0.1656 -0.2322 -0.3096
25475W        W41369   6.927  11.366   0.096  0.0472 -0.0429  0.1517
25476W        W41370   4.092   2.221   4.777  0.4330 -0.0526 -0.0502
25477W        W41371  10.657  13.697  12.662 -0.2368 -0.0916 -0.1506
25478W        W41372   9.878   4.259  14.831 -0.1368  0.0928  0.2417
25479W        W41373   9.391  13.933   5.007 -0.1622  0.2968 -0.2225
25480W        W41374  17.312   6.880  10.689 -0.0711  0.0398  0.0581
25481W        W41375   2.431  14.489   4.407  0.0151  0.2908  0.1566
25482W        W41376   0.825   5.068   4.876  0.1085  0.0957  0.0610
25483W        W41377   4.268   3.775  12.504 -0.1494  0.0412  0.0411
25484W        W41378  17.202   3.421   4.315 -0.3059 -0.0366  0.0719
25485W        W41379   3.907  12.811   2.764  0.2815  0.0273 -0.0082
25486W        W41380   9.987   4.703  11.776  0.0939 -0.1859  0.0584
25487W        W41381   5.988  13.217   0.578  0.0447 -0.1458 -0.5321
25488W        W41382   1.927   5.145   2.436  0.0096 -0.0583 -0.0419
25489W        W41383  18.046  15.806  12.921  0.0743 -0.0105 -0.0156
25490W        W41384   9.816  15.727   3.639 -0.1389 -0.0036 -0.0324
25491W        W41385  13.976  11.304   6.132 -0.0005  0.0580 -0.1344
25492W        W41386   6.808   5.588   0.011  0.2577  0.1301  0.0015
25493W        W41387   7.733  14.973  14.160  0.3679  0.3131 -0.0497
25494W        W41388  15.054   3.961  15.338 -0.4372 -0.2128 -0.0862
25495W        W41389   7.298  17.147  10.438 -0.1755 -0.1592  0.1771
25496W        W41390  18.417  11.184  11.498  0.1978 -0.0429 -0.1056
25497W        W41391  11.377  15.078   3.689  0.2944  0.0570 -0.0293
25498W        W41392  11.233  14.252   0.899 -0.1205 -0.0233 -0.0341
25499W        W41393   8.867   1.002   2.003  0.0067  0.0300  0.1658
25500W        W41394  15.471  11.469   0.866  0.3761  0.1158 -0.2997
25501W        W41395   1.788  13.329   0.208 -0.1255  0.0978  0.1525
25502W        W41396  13.460   4.301   2.936  0.0077 -0.0319 -0.1930
25503W        W41397  10.398  18.349   2.911 -0.1498 -0.0672 -0.0101
25504W        W41398   6.017  10.597   1.938 -0.2233  0.1048  0.2072
25505W        W41399   4.856   8.614   2.348  0.4146 -0.1181  0.1229
25506W        W41400   9.388  11.279   2.149  0.2739  0.1464 -0.1366
25507W        W41401   6.337   2.981  15.172 -0.0042  0.1399  0.2002
25508W        W41402  18.458   5.035  11.690 -0.1945  0.2010 -0.0632
25509W        W41403   4.467  12.000  13.781 -0.0754 -0.0866 -0.0821
25510W        W41404  17.006  15.982   6.056  0.0735  0.2663 -0.1562
25511W        W41405   7.824  17.826   3.380  0.2703  0.2848 -0.1708
25512W        W41406  14.526   8.438   1.576  0.0347 -0.0244 -0.1634
25513W        W41407  13.869   2.840   2.190 -0.0745  0.0398 -0.0743
25514W        W41408   2.337   7.708   2.567 -0.3187 -0.1387 -0.2707
25515W        W41409  14.271   8.231   4.845 -0.0465 -0.1765  0.0851
25516W        W41410   5.119   6.672   3.856 -0.0775  0.0808  0.0567
25517W        W41411  10.656   1.482   0.284  0.1419 -0.0956 -0.0489
25518W        W41412   2.338   8.124  14.063  0.4697 -0.3695 -0.0803
25519W        W41413   4.898   6.494   0.362  0.1049  0.1811  0.2333
25520W        W41414   0.769  16.139  10.767 -0.0205 -0.1534  0.0587
25521W        W41415   8.018  15.908   4.817  0.0902  0.0404  0.2289
25522W        W41416  10.678   7.700   5.373 -0.0400  0.0461 -0.3340
25523W        W41417  15.398   3.909  13.212  0.0444  0.0720 -0.1042
25524W        W41418   6.114  11.084  12.512  0.1870 -0.1406  0.2451
25525W        W41419   9.880  14.251  14.126 -0.0883  0.3240 -0.0348
25526W        W41420  18.011   2.931   0.611 -0.1728  0.1859 -0.1187
25527W        W41421   0.532   1.832   0.506 -0.0602 -0.1724  0.1009
25528W        W41422   2.487  10.320  13.430 -0.3830 -0.2448  0.0389
25529W        W41423  15.957  12.565  15.025 -0.1962  0.4670 -0.2481
25530W        W41424  14.482  13.235  13.025 -0.0274 -0.1458  0.2758
25531W        W41425   4.597   1.570  12.023  0.2326  0.1405 -0.2953
25532W        W41426  13.909   2.465   1.235 -0.0580 -0.0141  0.0740
25533W        W41427  14.646   9.832   0.037  0.4001  0.1625 -0.0917
25534W        W41428   0.356   5.442   1.715 -0.1098 -0.1230 -0.1876
25535W        W41429   6.026  16.772   4.140  0.0817 -0.0562 -0.0223
25536W        W41430   1.937  12.243   5.777 -0.4806  0.5301  0.0971
25537W        W41431  14.790   7.748  13.073 -0.0420  0.0335 -0.1144
25538W        W41432   9.346   5.912  12.198  0.1368 -0.0395  0.0416
25539W        W41433  13.059   1.535   3.306  0.1352  0.0276 -0.5031
25540W        W41434   7.563   8.285  10.811  0.0323 -0.1692  0.0824
25541W        W41435  14.386  15.799   1.593  0.0254  0.2346  0.0577
25542W        W41436  12.024   4.151  14.707  0.4948  0.2271 -0.0631
25543W        W41437  14.167  15.610   2.035 -0.1495 -0.0347  0.1022
25544W        W41438   8.530   6.971   1.291  0.0502  0.1761 -0.2445
25545W        W41439  18.142  10.574   1.808 -0.3207 -0.2318 -0.1399
25546W        W41440  15.640   8.466   2.378  0.0809 -0.2293 -0.1173
25547W        W41441   4.440   4.276   2.737 -0.1298 -0.0202 -0.1484
25548W        W41442   2.642  12.197   2.581  0.0483  0.2075  0.1969
25549W        W41443  11.901  11.875   1.178 -0.4022  0.3358  0.1598
25550W        W41444   6.767   2.311   2.268 -0.1250 -0.3092 -0.1344
25551W        W41445   3.566  15.043   1.853 -0.1769  0.1205 -0.2206
25552W        W41446  18.389  16.470   2.886 -0.0861 -0.1234 -0.2978
25553W        W41447  15.861   0.303  15.320 -0.1741 -0.3701  0.1341
25554W        W41448   1.182  11.263   1.245  0.2721 -0.1572  0.0269
25555W        W41449  11.028  12.893   0.432  0.1493  0.1887 -0.2078
25556W        W41450   8.695  10.638  12.199 -0.0894 -0.2646 -0.2575
25557W        W41451  12.194   6.995  13.818  0.1466 -0.1694 -0.0465
25558W        W41452   4.676  18.522  14.255  0.1075  0.1420  0.1175
25559W        W41453  16.901  10.470  15.472  0.0729  0.0780  0.2493
25560W        W41454   0.723   2.292   3.280  0.0287 -0.0226 -0.1751
25561W        W41455   2.940   7.012  11.677  0.3005 -0.0175 -0.0161
25562W        W41456   6.406  16.196   4.538  0.1491  0.1759  0.0789
25563W        W41457  13.872  13.265   6.173  0.1035 -0.1811 -0.1633
25564W        W41458  15.990  15.073   0.512 -0.0844  0.1737  0.2416
25565W        W41459   1.642  12.145  12.969  0.1270 -0.0980  0.1265
25566W        W41460   4.692  14.518  10.576 -0.1546  0.2686  0.4456
25567W        W41461   0.421  11.606   4.877  0.2574 -0.3982  0.2455
25568W        W41462  14.167  17.522  11.416  0.1423 -0.0871 -0.1630
25569W        W41463   5.034   2.044   3.484  0.1090  0.3386  0.2127
25570W        W41464   7.193  10.062  14.936 -0.2638 -0.0293  0.1687
25571W        W41465   8.972  11.164   5.163  0.1755  0.1681  0.1708
25572W        W41466   3.983   8.690  11.137 -0.0917  0.0247 -0.1755
25573W        W41467  17.259   0.149  11.703  0.0593 -0.0218  0.2996
25574W        W41468   1.283  11.135  14.616  0.0982  0.1360  0.0973
25575W        W41469   8.304   8.552  13.182  0.1226 -0.1225  0.0192
25576W        W41470  18.104  16.357  14.369  0.0931  0.5144 -0.0929
25577W        W41471  12.222  10.410  12.324 -0.0183  0.0792  0.0155
25578W        W41472   2.858  13.770   2.496  0.0430  0.0190  0.1291
25579W        W41473   1.754   1.679   1.076  0.0251  0.0143 -0.1048
25580W        W41474  11.544  16.943   0.689  0.1109 -0.1290  0.0074
25581W        W41475  16.666   0.748   3.273 -0.0391  0.1232  0.0026
25582W        W41476   3.826   2.597  15.344  0.2769  0.0935  0.0388
25583W        W41477   0.441  13.917  15.470  0.0661 -0.0913 -0.1734
25584W        W41478  11.108   6.894  13.621  0.1896 -0.1503  0.1155
25585W        W41479  14.362  12.522  13.231 -0.4535 -0.0389  0.0137
25586W        W41480   4.887  15.053  14.445 -0.2670 -0.0543 -0.0263
25587W        W41481  10.589   7.451  14.502  0.0705  0.2422  0.2969
25588W        W41482   2.979   0.253  15.042  0.2087  0.4307 -0.2757
25589W        W41483  11.010   8.758   4.870 -0.1188  0.1739 -0.1312
25590W        W41484   5.885  15.145   5.165  0.1881  0.0330 -0.0537
25591W        W41485   7.353   0.602   1.057 -0.1340 -0.0960  0.1416
25592W        W41486   0.172   4.842   4.087  0.1187 -0.2003  0.3141
25593W        W41487   9.985   8.622  14.343  0.1690  0.3673 -0.0762
25594W        W41488   8.448   1.526   2.979 -0.0342 -0.1510  0.1371
25595W        W41489  12.693   3.323  15.506 -0.1691  0.2522 -0.4143
25596W        W41490   8.201   3.211  14.513 -0.1901 -0.0798  0.0234
25597W        W41491  16.334  14.242   4.779  0.1158  0.1363  0.0647
25598W        W41492  11.994   7.161  15.260 -0.0844  0.2887 -0.0572
25599W        W41493  15.966  11.338   5.631 -0.0041 -0.2016  0.1612
25600W        W41494  18.037   0.442  14.517  0.2954  0.0225 -0.3000
25601W        W41495   6.484   1.358  10.628 -0.2722 -0.2930  0.0862
25602W        W41496  10.541  14.884   0.462 -0.0971 -0.0942 -0.0345
25603W        W41497   8.152   5.334  10.914  0.1950  0.1052  0.0373
25604W        W41498  13.739  16.568   3.641 -0.3676  0.2667 -0.0482
25605W        W41499  17.011   8.763   1.379 -0.2629  0.5197 -0.2888
25606W        W41500  17.147  17.709  15.230  0.0170 -0.0117 -0.2418
25607W        W41501   6.877   7.659   5.521  0.0018 -0.0766  0.0290
25608W        W41502   9.598   9.298  12.815 -0.0982 -0.0165 -0.0431
25609W        W41503  13.617   8.094   5.836  0.3195  0.1551 -0.2578
25610W        W41504   5.758   7.600  15.352  0.0542 -0.1501  0.1503
25611W        W41505   6.483   6.674  12.893 -0.2632 -0.0380 -0.0654
25612W        W41506   7.430   0.363  15.229  0.0604 -0.0200 -0.0832
25613W        W41507   4.322  11.391   0.741  0.2028  0.1394 -0.1914
25614W        W41508  15.558  17.525  11.961  0.1641  0.0327  0.2921
25615W        W41509  16.798  13.740  12.320  0.1347 -0.0585  0.2378
25616W        W41510  14.060  16.690  13.059 -0.2233  0.3376 -0.1912
25617W        W41511  12.049  11.308   0.887  0.2382  0.0513  0.0297
25618W        W41512  12.706   9.404   3.341  0.0080  0.7419 -0.1134
25619W        W41513  13.523  10.472   2.948 -0.0929  0.2475  0.3018
25620W        W41514  17.966   2.993  12.956  0.3466 -0.0805  0.1083
25621W        W41515  18.512   5.948   3.191 -0.2130  0.2436  0.0268
25622W        W41516   2.095  10.231  11.732  0.1728  0.0504 -0.2643
25623W        W41517  12.333  12.789   2.088  0.2648  0.3556  0.1169
25624W        W41518  11.745  17.346   5.231 -0.4463  0.0988  0.2762
25625W        W41519  18.140  17.303   1.086 -0.0666  0.0555  0.0089
25626W        W41520  17.923   4.268   4.512 -0.2603 -0.1789 -0.1245
25627W        W41521  13.612  18.692  12.709  0.1714 -0.1629  0.4344
25628W        W41522   4.231   2.956  13.550  0.2675  0.2166 -0.1072
25629W        W41523   7.082   2.534   3.432  0.2340  0.0253  0.1363
25630W        W41524  17.894   8.507   1.477  0.2570  0.3696  0.2135
25631W        W41525   5.669   8.953  10.359 -0.0866 -0.1528 -0.0860
25632W        W41526  16.451   5.998  13.275  0.1873  0.1627 -0.0976
25633W        W41527   4.001  16.983   2.906 -0.4814 -0.0414 -0.0107
25634W        W41528  17.278   8.658   5.350  0.1565 -0.0166 -0.0319
25635W        W41529  16.587   4.654   2.060 -0.1563  0.2799  0.1188
25636W        W41530  11.977   2.917   1.530 -0.1354  0.2057 -0.1213
25637W        W41531   4.737   1.958  12.333 -0.1257  0.0551  0.0329
25638W        W41532  17.265   4.470   0.728 -0.1160  0.3758 -0.0802
25639W        W41533   3.401  11.921  14.574  0.1990  0.3204 -0.0993
25640W        W41534  11.071  17.070   4.473  0.2610 -0.0954  0.0091
25641W        W41535   9.602   1.827  13.481 -0.0814  0.0521 -0.0375
25642W        W41536   0.641  14.808  14.301 -0.1196  0.0911 -0.0579
25643W        W41537   3.036   6.017   9.646  0.2650  0.4026 -0.1921
25644W        W41538  11.407  14.487   2.239 -0.2714  0.1529 -0.3421
25645W        W41539  10.074   7.293  13.685 -0.1540 -0.1525 -0.1011
25646W        W41540   3.283  15.078   5.787 -0.0212 -0.0064  0.2102
25647W        W41541   0.384  14.059  14.895  0.2109 -0.0897  0.0693
25648W        W41542  14.779  14.337   5.794  0.0464  0.1762 -0.0875
25649W        W41543  13.169   6.495  11.679  0.0934 -0.2203 -0.0754
25650W        W41544   9.177  10.170  15.597 -0.2136 -0.1506  0.1327
25651W        W41545   8.205   0.048  15.464  0.0294 -0.2067 -0.0092
25652W        W41546   5.383   0.446  12.938  0.2588  0.0441  0.1880
25653W        W41547   4.430  14.658   2.401 -0.1404 -0.0438 -0.0107
25654W        W41548   5.748   1.646   4.479  0.0885 -0.0271  0.2793
25655W        W41549   5.745   1.017   3.788 -0.0456 -0.0303  0.2554
25656W        W41550  16.828   0.661  13.614 -0.0065  0.4407  0.1503
25657W        W41551  14.448   2.604   2.486 -0.1363  0.1317  0.0004
25658W        W41552  16.525  14.193   5.289 -0.3037 -0.2270 -0.3009
25659W        W41553   0.426   7.371  11.404  0.0081 -0.0471 -0.0572
25660W        W41554  17.995  11.713   2.816 -0.0027 -0.2524 -0.1144
25661W        W41555  15.710  17.356  13.595 -0.0939 -0.3603 -0.2745
25662W        W41556   9.125   1.107   3.619 -0.1421  0.0497 -0.0434
25663W        W41557   6.874   6.702   5.123  0.0037 -0.1722 -0.2932
25664W        W41558   5.591  10.718   1.647 -0.0979 -0.0277  0.1384
25665W        W41559   1.132   2.700  15.460 -0.0343  0.0825  0.1934
25666W        W41560  13.631   6.981  13.915 -0.0298  0.1210  0.3609
25667W        W41561   5.869   1.824   2.386 -0.5533 -0.0192 -0.0279
25668W        W41562  13.505   6.865   4.688  0.0923  0.0952  0.1626
25669W        W41563   8.219  17.569  14.356 -0.0562 -0.0953 -0.1597
25670W        W41564  12.699  17.433   2.441 -0.1285  0.1606  0.0564
25671W        W41565  10.290  18.199  11.126  0.0321  0.3497 -0.0898
25672W        W41566  12.837  17.031   2.856 -0.2477  0.0099  0.2406
25673W        W41567   4.095   4.784   1.890 -0.4399 -0.0214  0.3501
25674W        W41568  18.147  12.621   2.213 -0.2029 -0.1074  0.1167
25675W        W41569  12.682   7.438  14.488 -0.0952  0.1192 -0.0243
25676W        W41570  13.345   6.863  11.945  0.0280 -0.1189 -0.0135
25677W        W41571   7.060  12.929   3.022  0.2595  0.1836 -0.1909
25678W        W41572  15.020  11.766  13.513 -0.1560 -0.0107  0.0001
25679W        W41573  10.543  13.118   1.753  0.1613 -0.3433  0.2624
25680W        W41574   5.209  10.690  12.165 -0.1277  0.0104  0.2233
25681W        W41575  11.919   5.368   1.021 -0.4060 -0.3865 -0.0526
25682W        W41576  16.012  10.737  12.923  0.2908 -0.3576  0.0114
25683W        W41577   3.713   0.889  13.315 -0.2048 -0.2737  0.1015
25684W        W41578  16.537  16.145   5.633 -0.1812 -0.0330  0.1238
25685W        W41579   8.464   8.271   1.637  0.1100 -0.3340  0.5056
25686W        W41580  12.271  15.422  14.050  0.0712  0.2373 -0.0870
25687W        W41581   6.315  14.581   1.982  0.0213  0.2975 -0.0229
25688W        W41582  10.111   9.989   9.875 -0.0450 -0.1033 -0.0182
25689W        W41583   8.400  17.164  12.006  0.0170 -0.0493 -0.0738
25690W        W41584   7.029   4.933  14.346 -0.1707  0.0464  0.0855
25691W        W41585   7.413   9.131  15.179  0.0385  0.0926 -0.2300
25692W        W41586  17.781  15.941   2.562  0.0730 -0.0886  0.0610
25693W        W41587  10.943   0.259  11.318 -0.1846  0.3228  0.1182
25694W        W41588  18.092   0.134   0.581  0.1456  0.1060  0.2108
25695W        W41589   6.762  14.331   3.693  0.2720  0.3972 -0.0638
25696W        W41590   3.597   7.384   3.277 -0.3393  0.1740 -0.0323
25697W        W41591   9.376  15.920   3.537 -0.1432  0.0982 -0.0514
25698W        W41592  12.983  13.234   2.355 -0.1588 -0.4161  0.2337
25699W        W41593   1.610  10.285   1.032 -0.2912  0.0335  0.0232
25700W        W41594  11.727  10.233  12.647 -0.0349  0.0660 -0.3120
25701W        W41595   1.925   7.417  11.260  0.1568 -0.0022  0.1125
25702W        W41596   3.676   4.540  11.420  0.2148  0.0269  0.1917
25703W        W41597  17.759  13.892  14.373 -0.2929 -0.3214 -0.3078
25704W        W41598   8.211  17.779  13.852  0.1393 -0.5928  0.1662
25705W        W41599   7.440   0.234   1.452  0.1274  0.1417 -0.2270
25706W        W41600  14.886  12.068  12.702  0.3215  0.3811  0.1470
25707W        W41601   3.576  10.738  15.013 -0.0579  0.0796 -0.0150
25708W        W41602   0.842   1.166  13.437 -0.0584  0.0518  0.0901
25709W        W41603  10.227  11.061   5.342 -0.0029  0.0057 -0.1270
25710W        W41604   9.637   1.425  12.831  0.2789 -0.3495  0.1082
25711W        W41605   8.674   3.104   4.831 -0.0064 -0.3045 -0.1228
25712W        W41606   8.980  16.787   3.165  0.0869 -0.0815 -0.1605
25713W        W41607   0.040   8.100  15.088 -0.0530  0.0796 -0.0800
25714W        W41608   8.555   4.201   4.784 -0.1852 -0.0046  0.0952
25715W        W41609   0.679   0.399  14.138  0.2826 -0.3509 -0.0100
25716W        W41610   6.502  10.863  14.720  0.1853 -0.2277 -0.2016
25717W        W41611   2.030   4.743   0.157  0.4370  0.0632  0.2094
25718W        W41612  12.284   5.062   3.771  0.0590 -0.2577 -0.0716
25719W        W41613   3.096   7.780   5.079  0.1028 -0.0959 -0.1394
25720W        W41614  13.815  14.186  11.099  0.1916  0.0775 -0.1457
25721W        W41615  12.469   8.156   5.385 -0.2600  0.0279 -0.0965
25722W        W41616  14.579   0.455  14.450  0.0408  0.0168  0.1539
25723W        W41617  15.625  14.639   1.395  0.0814  0.3150 -0.0956
25724W        W41618  11.536  12.866  12.324 -0.1819  0.0887  0.2045
25725W        W41619  14.178   6.916  12.696 -0.2623  0.0390 -0.0590
25726W        W41620   6.730  15.568  14.940  0.3161  0.3944 -0.1119
25727W        W41621   0.775  12.309  12.761  0.2284 -0.2052  0.1649
25728W        W41622   9.248   8.423  10.978 -0.2632  0.2923 -0.1555
25729W        W41623   8.141   9.073  15.247 -0.1695  0.0868  0.0906
25730W        W41624   0.979   7.059   4.636 -0.0955  0.1246 -0.1898
25731W        W41625  18.128  14.554   2.515  0.1043 -0.0231 -0.1150
25732W        W41626   3.008   2.601   0.503 -0.1072 -0.0161  0.2086
25733W        W41627   0.606   0.431  14.767  0.0552  0.3112 -0.3363
25734W        W41628   0.290  11.983  14.073 -0.0214  0.0316  0.1202
25735W        W41629  18.414  12.346  13.434  0.5646 -0.0576  0.2064
25736W        W41630  12.790   0.613   3.667  0.2688 -0.1485  0.1037
25737W        W41631   4.380   5.479   9.593  0.2177 -0.0622  0.4103
25738W        W41632  14.034  10.438  14.492  0.2021 -0.1741 -0.1871
25739W        W41633  13.831  12.417   0.009  0.2364  0.0154 -0.3668
25740W        W41634   9.063  13.930   0.010 -0.0897 -0.0583  0.1186
25741W        W41635   7.894  10.144  14.324  0.1877 -0.2344  0.0845
25742W        W41636  16.152   5.572   0.044  0.0252  0.3740 -0.0493
25743W        W41637  13.864  11.132   0.424 -0.0084  0.2724 -0.3118
25744W        W41638  16.455  15.629  11.873  0.2759 -0.0352 -0.0372
25745W        W41639  12.842   7.197   1.666  0.1212  0.0150  0.5040
25746W        W41640  11.857   3.187  11.669  0.1007 -0.1595  0.3610
25747W        W41641  11.256   8.488  13.982  0.2980 -0.0956 -0.0059
25748W        W41642   1.026  12.820  10.126  0.2135  0.0424  0.0280
25749W        W41643   4.757   4.780   1.682 -0.0565 -0.0622  0.0271
25750W        W41644  12.684  16.249   0.980 -0.1366 -0.0884 -0.0296
25751W        W41645  13.957  12.298  12.409  0.0235 -0.1907 -0.0064
25752W        W41646   8.128   9.089   1.161 -0.1321 -0.1284  0.2136
25753W        W41647   8.935  10.939  13.142  0.0631 -0.3808 -0.1634
25754W        W41648   7.417   7.916   0.202 -0.2257  0.2923 -0.3739
25755W        W41649  11.936   7.577  11.224 -0.1119  0.0833 -0.0578
25756W        W41650   9.114   1.249   2.920  0.3046 -0.1325 -0.2279
25757W        W41651   3.311   7.717   1.846 -0.0680  0.2326  0.1001
25758W        W41652  15.125  17.727  12.155 -0.1720 -0.2412  0.1600
25759W        W41653  17.957   3.853   3.210 -0.0390  0.2465 -0.1386
25760W        W41654  15.425  11.465   3.689  0.0684  0.0531 -0.3105
25761W        W41655  14.473   1.271  13.908  0.0617  0.1913  0.1935
25762W        W41656   4.947  16.690   1.383  0.4093 -0.1409 -0.2541
25763W        W41657  16.407  11.123  13.164  0.2595 -0.1990  0.0203
25764W        W41658  15.131  11.545   4.345 -0.0327 -0.0592  0.0817
25765W        W41659  15.196   4.504   1.753 -0.0447  0.0062  0.0841
25766W        W41660   7.782  14.833  11.248  0.1578 -0.0551 -0.2510
25767W        W41661   1.134   3.313  12.041 -0.0649 -0.1614  0.1342
25768W        W41662  15.753  17.534   3.673 -0.0296 -0.0044  0.0179
25769W        W41663  15.767  16.512  12.871  0.0505  0.0486 -0.3932
25770W        W41664  13.028  17.168   3.399  0.3263 -0.0734 -0.0428
25771W        W41665   2.351  15.753   4.949  0.1288 -0.2881  0.3786
25772W        W41666   4.322   5.571   2.915  0.1208 -0.1072 -0.3389
25773W        W41667  12.276  17.355   0.111  0.1047 -0.1307  0.0220
25774W        W41668   0.147   1.820  14.009  0.3910 -0.0814 -0.1580
25775W        W41669   1.637  15.763  11.944  0.0605  0.0706  0.1775
25776W        W41670  17.498  18.307  13.961 -0.4237 -0.1413 -0.0062
25777W        W41671  10.215   3.555  10.865  0.2835 -0.1429  0.2524
25778W        W41672  13.560   2.653   4.230  0.1710  0.0748 -0.3139
25779W        W41673   2.805   4.808   2.677  0.1004  0.1085  0.1363
25780W        W41674   0.398  13.011   4.748 -0.2857 -0.2563 -0.1692
25781W        W41675  15.615  15.537   5.831 -0.2454 -0.1690 -0.2454
25782W        W41676   6.760   0.178  13.375  0.3168 -0.1466  0.0630
25783W        W41677  11.025   8.579   2.712 -0.2473  0.0356  0.2045
25784W        W41678  14.215  14.797  13.327 -0.3816  0.1862 -0.2109
25785W        W41679   5.831   4.591   9.969 -0.1169  0.1485  0.1556
25786W        W41680  13.676   5.605   1.398 -0.0368 -0.1723  0.1190
25787W        W41681  11.873  12.934   3.494 -0.0633 -0.0234 -0.2125
25788W        W41682   1.065   5.271  11.609  0.2466 -0.1175 -0.1320
25789W        W41683   4.206  11.970   1.772 -0.0914 -0.2283 -0.1416
25790W        W41684  14.857  13.140  14.662  0.1269  0.0259  0.1691
25791W        W41685   5.312  18.460  11.136 -0.0302 -0.1632  0.1103
25792W        W41686   5.015   4.776  11.541  0.3273  0.1477 -0.1057
25793W        W41687  17.504   6.884   5.373 -0.0263 -0.1819 -0.0915
25794W        W41688  16.260   7.830   5.308  0.2120 -0.0936  0.0229
25795W        W41689  14.237  13.297   4.295 -0.3190  0.0136  0.0713
25796W        W41690   7.010   3.236  11.283 -0.0212 -0.2476  0.3092
25797W        W41691   3.767  11.294   3.862 -0.1546  0.1723  0.0386
25798W        W41692  16.405   7.912   4.334  0.2154  0.1317 -0.2208
25799W        W41693   0.623   9.715   5.174  0.0332  0.2797 -0.0372
25800W        W41694  17.610   9.325  12.191  0.4253 -0.1958 -0.0927
25801W        W41695  17.792   4.334  12.146 -0.2299  0.3335 -0.0567
25802W        W41696   3.599  16.177   0.115 -0.5587 -0.2141  0.0292
25803W        W41697   1.931  14.651  13.088 -0.2388 -0.1803 -0.1230
25804W        W41698  16.257   7.611   1.681  0.0783 -0.1634 -0.0853
25805W        W41699  18.028  16.873  14.417  0.0159 -0.1387  0.3339
25806W        W41700   1.114   0.197  12.618 -0.0052 -0.0475 -0.1339
25807W        W41701   8.735   6.841  12.998 -0.1115  0.3314  0.0180
25808W        W41702   8.264   1.441  14.872  0.0890  0.1399  0.0502
25809W        W41703  11.956   3.864   1.280 -0.0154 -0.1004 -0.0557
25810W        W41704   4.813   7.533  10.889 -0.1909 -0.3626 -0.0630
25811W        W41705  16.459  13.575  13.963  0.0223 -0.2009  0.0744
25812W        W41706   4.355  10.876   3.432 -0.2648 -0.2886 -0.0645
25813W        W41707  14.660   6.878   3.500 -0.0904 -0.1587 -0.0989
25814W        W41708   5.370   1.784  11.905 -0.1489  0.0886  0.3076
25815W        W41709  16.674  11.260  15.058  0.0395 -0.2060  0.3305
25816W        W41710  12.274  16.863   9.949  0.1032 -0.1553 -0.1943
25817W        W41711   7.355   1.652  14.918  0.0380 -0.3165  0.6235
25818W        W41712  18.566   0.592   5.132 -0.1576  0.0178 -0.0928
25819W        W41713   4.107   7.254   3.211 -0.0121 -0.2196 -0.1271
25820W        W41714   1.836   8.267   0.187 -0.0544  0.0041  0.0133
25821W        W41715   6.831  13.311  13.342  0.0075 -0.1153 -0.2048
25822W        W41716   3.359   9.440  11.106 -0.1941  0.2304 -0.0701
25823W        W41717  18.112   0.363   3.977  0.0785 -0.0261 -0.1251
25824W        W41718  11.146  17.761  14.390  0.2557 -0.0516  0.0790
25825W        W41719   7.873   3.636   0.841 -0.0817 -0.1516 -0.0236
25826W        W41720  14.973  17.614  15.510  0.0319  0.0472  0.1087
25827W        W41721   4.942   9.201  11.958 -0.0166 -0.1020  0.1768
25828W        W41722  18.537   6.757   0.978 -0.0752  0.0786  0.0015
25829W        W41723   0.937   5.989  13.144 -0.2732  0.1841 -0.4715
25830W        W41724   0.168   3.575   0.134  0.0971 -0.1093  0.1794
25831W        W41725   8.175  17.981  15.453  0.2740 -0.3470  0.0487
25832W        W41726  13.728   0.586  14.972 -0.1341  0.0470 -0.2474
25833W        W41727  13.290   4.211  15.019  0.3610  0.1877 -0.4338
25834W        W41728   2.765   1.798  15.535 -0.2380 -0.1927 -0.2168
25835W        W41729   3.472   2.439   4.955  0.0029  0.4103 -0.4711
25836W        W41730  12.054  15.380   1.602  0.1354  0.1331  0.1785
25837W        W41731  10.115  16.877   4.574 -0.1546 -0.0711  0.1560
25838W        W41732   5.552   3.355   3.086  0.0540  0.0350 -0.0547
25839W        W41733   1.845  12.946   1.160 -0.2049 -0.2733  0.0288
25840W        W41734  13.407   7.777   1.254 -0.1719 -0.2284 -0.1726
25841W        W41735  17.941  17.896   9.857  0.1248 -0.2614  0.0140
25842W        W41736  16.540  10.823  11.141 -0.1883 -0.1227  0.0600
25843W        W41737  13.482  16.434  11.623 -0.5951 -0.0788  0.0243
25844W        W41738  11.138  15.112  15.186  0.0906  0.0717  0.0866
25845W        W41739  13.638  16.763  12.070 -0.3173 -0.0940 -0.0465
25846W        W41740  18.714  11.518  13.725  0.0412 -0.0806  0.0830
25847W        W41741   8.311  18.604   2.717 -0.0067  0.1669 -0.1376
25848W        W41742  14.681   5.663   3.322 -0.1608 -0.3231 -0.5788
25849W        W41743  15.922  18.062  13.828  0.0578  0.0847  0.2161
25850W        W41744  13.266  15.867   5.259  0.2181 -0.1835  0.3376
25851W        W41745  10.821   0.672  10.670 -0.0230 -0.0100 -0.0229
25852W        W41746   3.151   8.699   4.939 -0.3200 -0.1872 -0.0413
25853W        W41747  15.919   6.456   3.717 -0.0639  0.4567  0.0466
25854W        W41748   1.696   5.233   3.679  0.3058 -0.0310  0.1813
25855W        W41749   0.295  12.058  12.876  0.0673  0.1257  0.0259
25856W        W41750  17.627  14.803   1.848  0.1558  0.0206 -0.1575
25857W        W41751  17.514   2.137   1.984  0.0091  0.2081  0.0882
25858W        W41752   4.223   9.754   3.535 -0.0269 -0.5785  0.3244
25859W        W41753   1.720   2.671   2.627  0.3185 -0.2446 -0.2604
25860W        W41754   8.696  16.513  11.660 -0.0020 -0.2003 -0.0055
25861W        W41755  16.060  13.979   5.193  0.0413  0.1082  0.1780
25862W        W41756  12.417   4.399   2.004 -0.0055 -0.2949  0.2752
25863W        W41757  13.844  13.547   3.591 -0.0708  0.0662  0.0805
25864W        W41758  13.152  13.721   4.858  0.0702  0.0599  0.0254
25865W        W41759   0.776  15.128  11.555 -0.2198 -0.0180 -0.0030
25866W        W41760  14.345   9.100  14.467  0.0473 -0.0581  0.0013
25867W        W41761  10.885   6.632   5.259  0.3509 -0.0208 -0.0488
25868W        W41762  17.863   0.143   3.543  0.0529 -0.0732  0.0890
25869W        W41763  18.363   1.418   9.905 -0.0378 -0.0050 -0.0692
25870W        W41764  16.971  14.337   1.340 -0.0854 -0.1107  0.0155
25871W        W41765   4.473  16.628  10.936  0.1400 -0.3100 -0.0077
25872W        W41766   1.350   2.199   5.039  0.0626 -0.3508 -0.0102
25873W        W41767   4.980   9.683  14.141  0.4044  0.0828 -0.0109
25874W        W41768   3.793   8.790  13.666 -0.1473  0.0814  0.1482
25875W        W41769   3.053   2.051   1.766  0.1240 -0.1596 -0.1683
25876W        W41770  14.648  18.358  14.930  0.2657  0.0842 -0.1994
25877W        W41771   9.353  18.048  15.467 -0.1668 -0.0487  0.0617
25878W        W41772   6.289   0.422   3.339 -0.1730 -0.0399 -0.0062
25879W        W41773   1.243   2.671   3.561 -0.0800 -0.0974 -0.1546
25880W        W41774  15.029  11.367   3.328  0.0441 -0.1963  0.3429
25881W        W41775   9.349  12.094   1.030  0.0791 -0.0572 -0.0051
25882W        W41776   0.124  10.627   0.526  0.0630  0.0554 -0.1486
25883W        W41777   1.517   9.364   4.116 -0.1050  0.0075  0.0082
25884W        W41778   7.159  15.340   4.519 -0.0981 -0.1773  0.1075
25885W        W41779   6.709   5.682  11.464  0.1269 -0.1617 -0.1525
25886W        W41780  14.924   3.806  14.236 -0.0125  0.0030 -0.1237
25887W        W41781   5.321   1.011   2.264  0.0923 -0.2310 -0.0107
25888W        W41782  13.397  11.511   2.117 -0.2669  0.2493 -0.1205
25889W        W41783   5.105  14.781   5.456 -0.0473  0.1907 -0.1467
25890W        W41784  12.996   1.336   0.628  0.0602  0.1876 -0.0180
25891W        W41785  10.772  15.932   2.807  0.0448  0.3130  0.2254
25892W        W41786  17.775  17.853  13.509 -0.2110 -0.1788  0.0560
25893W        W41787  14.218   0.344   2.529  0.2442  0.0368 -0.1546
25894W        W41788   5.226   0.243  13.370 -0.2683 -0.2995 -0.0743
25895W        W41789  18.354   7.328   5.036  0.0465  0.0978 -0.5030
25896W        W41790  15.422  18.415   5.124 -0.0793  0.0844  0.0170
25897W        W41791  14.346   2.205   9.767  0.0131  0.1359  0.1651
25898W        W41792   8.592  11.962  10.959  0.1277  0.1716 -0.0279
25899W        W41793  12.827  15.423  13.912  0.0310 -0.1066 -0.0261
25900W        W41794   5.723  10.171  13.485  0.0619  0.2812 -0.2725
25901W        W41795  13.360  16.070   0.127  0.2616  0.1739  0.1735
25902W        W41796  13.961  18.006   4.648  0.0537 -0.1656  0.1430
25903W        W41797   7.148  14.181   1.811  0.1670  0.1039  0.1877
25904W        W41798  15.358   9.900   4.086  0.1088 -0.0715 -0.3452
25905W        W41799  16.076  17.245   3.872  0.0397  0.2556 -0.1680
25906W        W41800   1.888   0.910   3.113 -0.5576 -0.2017 -0.2028
25907W        W41801   8.813  13.796   1.878 -0.2400  0.1412  0.1196
25908W        W41802   9.674  15.815  12.606 -0.0334 -0.0307  0.0458
25909W        W41803   1.450  14.029  13.497  0.0199 -0.3359 -0.3281
25910W        W41804  10.668   9.595  10.704  0.0001  0.1479  0.2871
25911W        W41805   4.634  18.095   4.868  0.0191 -0.0554  0.1399
25912W        W41806   7.081  11.012   2.167 -0.3039  0.1047  0.1089
25913W        W41807  15.133   9.091  13.908  0.1224 -0.1245  0.0243
25914W        W41808   3.003   3.239   3.193  0.1167  0.1578  0.0650
25915W        W41809  16.086   0.873  11.242 -0.4035  0.1825  0.1606
25916W        W41810   5.152   0.422   0.649  0.1691  0.0724 -0.1698
25917W        W41811  14.160   5.990   6.144 -0.0697 -0.1791 -0.0902
25918W        W41812   6.901   5.230  12.801 -0.3701 -0.0402 -0.0129
25919W        W41813  10.063   4.285  14.396  0.4188  0.0830  0.0994
25920W        W41814  15.152   8.042  15.043  0.1724  0.1322 -0.2459
25921W        W41815  12.557  11.377  11.201 -0.3660 -0.0832 -0.1583
25922W        W41816  10.621   7.025  13.703  0.2499  0.1023 -0.0959
25923W        W41817   7.671  11.833   2.101 -0.0324  0.0491  0.3468
25924W        W41818   5.176   4.643   4.398 -0.0010 -0.1480  0.2206
25925W        W41819   0.486   4.204   2.391 -0.0910  0.0326 -0.0744
25926W        W41820   2.340   9.902  10.616  0.0529  0.2565 -0.1466
25927W        W41821   3.407   9.556   4.384 -0.1207  0.0502  0.1354
25928W        W41822   5.126   6.710  15.501  0.1784 -0.2648 -0.0321
25929W        W41823  13.507  10.843  12.387 -0.0734  0.1561 -0.2340
25930W        W41824  12.211   5.593   9.830 -0.1271  0.0536 -0.2693
25931W        W41825   4.590  16.431  14.651  0.1503  0.0281 -0.1090
25932W        W41826  15.444   9.861  11.546  0.3552  0.0202 -0.0751
25933W        W41827   3.882  11.381   1.501 -0.4247  0.0529 -0.1474
25934W        W41828   1.448   8.878  15.040  0.0434  0.1815  0.1216
25935W        W41829  16.742  15.866  14.410  0.3250 -0.1418  0.0117
25936W        W41830   7.246  12.173  14.382  0.0184  0.1463  0.1862
25937W        W41831   8.351   1.920  11.936  0.2073 -0.2641  0.2786
25938W        W41832  16.861   9.075   5.759  0.1589 -0.3597  0.1771
25939W        W41833  11.645  17.619   2.735  0.1344 -0.1218 -0.2594
25940W        W41834   6.822   4.265   2.987 -0.0083  0.0217 -0.2603
25941W        W41835   9.269  14.179   0.366  0.1919 -0.2182 -0.0860
25942W        W41836   2.399  16.758  13.293  0.1137  0.0069 -0.0504
25943W        W41837   3.573   8.604   3.462  0.4152  0.4172 -0.0031
25944W        W41838   3.402  12.650   4.269  0.3374 -0.0030  0.1838
25945W        W41839  18.581  17.926   4.287 -0.0174  0.1377 -0.1117
25946W        W41840  10.143   5.186  14.785 -0.0761  0.0220 -0.1689
25947W        W41841   9.272  14.436   5.103  0.0344  0.0162  0.0934
25948W        W41842   9.197   0.330   4.915  0.1385  0.2428  0.3100
25949W        W41843   7.575  14.771   0.103 -0.0327 -0.0990 -0.1536
25950W        W41844  11.903  15.074  14.939 -0.2696  0.1146  0.1638
25951W        W41845  10.671  13.214   5.139  0.2835 -0.0892 -0.1373
25952W        W41846   4.917  16.875   3.622  0.3192  0.1316  0.1023
25953W        W41847  16.635   1.282  14.349  0.0985  0.0099  0.4074
25954W        W41848  12.364   5.613   1.108  0.1828  0.0639 -0.2120
25955W        W41849  12.484  12.827  13.070  0.1171  0.0472  0.3336
25956W        W41850  15.541  15.205   0.330  0.0163 -0.1002 -0.1422
25957W        W41851  13.798  12.813  15.371  0.3562 -0.0801  0.2994
25958W        W41852   1.562  13.856   3.803  0.2458  0.1836 -0.1244
25959W        W41853   3.292   4.672  12.727 -0.2790 -0.1028 -0.0397
25960W        W41854   8.624  11.727  10.471 -0.3334  0.2385  0.1804
25961W        W41855   1.789   4.856  11.982  0.1237 -0.0785  0.1301
25962W        W41856   7.012  16.969   3.274  0.1968  0.1890 -0.0187
25963W        W41857  14.126  18.084  10.504  0.1759  0.2015  0.1901
25964W        W41858   2.553   4.293   3.160  0.0639 -0.2211  0.0513
25965W        W41859   1.773   3.861   4.253 -0.0168 -0.3950  0.1381
25966W        W41860  17.232   5.828   0.244  0.1625 -0.0973 -0.0368
25967W        W41861  16.716   0.592  11.062  0.0066 -0.0285  0.1173
25968W        W41862   4.718   1.783  14.084 -0.4394 -0.1661 -0.0724
25969W        W41863   6.275   8.318   1.025 -0.1388 -0.1261 -0.0782
25970W        W41864  12.368   0.322   4.523  0.0367  0.3249  0.0604
25971W        W41865  12.089  11.549  14.829  0.1115 -0.4963  0.0550
25972W        W41866   6.527   9.813  13.716 -0.2018  0.1159 -0.0171
25973W        W41867   6.634   1.482  12.299 -0.2432 -0.2751  0.0024
25974W        W41868  14.370  12.936  10.065 -0.0402  0.1652  0.1499
25975W        W41869   6.742   2.410  12.829 -0.1131  0.1499 -0.1016
25976W        W41870  10.330   7.543   2.410 -0.1615  0.0719 -0.0186
25977W        W41871   4.282   5.406   5.096 -0.0394  0.0826  0.2421
25978W        W41872   1.053  16.468  14.072  0.2328 -0.0962  0.1021
25979W        W41873  11.071   2.049   2.366 -0.2009  0.2786  0.0098
25980W        W41874  15.274  17.072   0.460 -0.1360 -0.0667 -0.0466
25981W        W41875  11.024   4.689   4.796 -0.0956 -0.0817 -0.0502
25982W        W41876  13.802   5.818   0.917  0.0924 -0.0653  0.0211
25983W        W41877   1.637  13.488  13.307 -0.0233  0.1002  0.0276
25984W        W41878   5.766  11.749   4.414 -0.1958  0.1549  0.2592
25985W        W41879   3.447  14.128   0.287  0.0123  0.0038 -0.2091
25986W        W41880   4.927   2.543   4.801 -0.2190 -0.1900 -0.0498
25987W        W41881  16.473   8.672   5.871 -0.2585  0.1882 -0.0956
25988W        W41882   6.521  15.397   0.935  0.2774  0.4321  0.2123
25989W        W41883  18.057   2.933   5.110  0.1775 -0.2285 -0.1618
25990W        W41884  11.262   4.722  13.790  0.2435 -0.1258 -0.1020
25991W        W41885   6.113   9.316  15.023  0.0001  0.1616 -0.0279
25992W        W41886  17.987   8.815  14.019 -0.4231  0.0103  0.1378
25993W        W41887   0.974  18.413  13.258 -0.0612  0.1503  0.1209
25994W        W41888   0.284  18.217   0.073  0.0112 -0.0913 -0.0473
25995W        W41889  17.134   6.272  15.601 -0.0430  0.3381 -0.0307
25996W        W41890   8.993  11.961  14.194  0.2695 -0.1479  0.2656
25997W        W41891   3.465   4.051  12.114 -0.3474 -0.0045  0.1446
25998W        W41892   3.439  18.668   1.737  0.0432 -0.1172  0.1840
25999W        W41893   3.187  16.913   0.616  0.0904  0.1066 -0.2505
26000W        W41894   4.180  15.707  15.611  0.0670  0.0881 -0.1366
26001W        W41895  16.373   3.134  12.800 -0.0275  0.1916  0.0651
26002W        W41896   1.805   4.407  15.505  0.1363 -0.3562 -0.1236
26003W        W41897   9.062  11.973   4.804  0.0771  0.1319 -0.0577
26004W        W41898   7.690   9.754   0.374 -0.0785  0.2739 -0.3035
26005W        W41899  12.852   4.937   0.422  0.1464  0.3754 -0.2519
26006W        W41900  15.001  12.932   0.090  0.1237 -0.1719  0.1517
26007W        W41901   2.011  13.708   3.362 -0.1951 -0.0042 -0.2547
26008W        W41902   5.273  14.274  12.729  0.2645 -0.0824 -0.1717
26009W        W41903   7.544   9.272   0.285 -0.1825 -0.0548  0.0448
26010W        W41904  10.551  14.986   1.000  0.1889 -0.0695 -0.1200
26011W        W41905   8.847  11.204   0.472 -0.1337 -0.0049  0.2117
26012W        W41906  11.088   6.055   0.971 -0.2635  0.2309  0.1695
26013W        W41907  12.392   3.520   0.304 -0.1557 -0.0385  0.0806
26014W        W41908   1.988   3.540   5.075 -0.2161  0.1901 -0.1946
26015W        W41909  15.415   0.241  12.867  0.0150 -0.1717  0.3922
26016W        W41910   5.641  14.835   0.104 -0.2097 -0.0692  0.2856
26017W        W41911  18.391   3.072   1.584 -0.0514 -0.0422 -0.2037
26018W        W41912   5.986   4.002  11.284 -0.1032  0.1476  0.0814
26019W        W41913  16.328   4.679   3.066  0.2040  0.0647 -0.3354
26020W        W41914  14.652   9.608   5.344  0.1564  0.3347 -0.1631
26021W        W41915  10.727  10.726   4.199  0.1873 -0.3384  0.4037
26022W        W41916   2.341  12.672   1.982  0.0670  0.0638  0.0412
26023W        W41917   0.755   0.561  11.163 -0.1002  0.2433 -0.1216
26024W        W41918   6.655  14.851   3.807  0.3247  0.2408  0.1174
26025W        W41919  15.104  12.542   0.396  0.1458 -0.2616  0.0199
26026W        W41920  18.025   4.444   0.691  0.0600 -0.2471  0.1844
26027W        W41921   9.340   0.296   0.430  0.0453  0.2517 -0.0191
26028W        W41922  17.635  13.901  11.341  0.1942 -0.0015 -0.3455
26029W        W41923  14.673   6.754   0.926 -0.3351  0.1784  0.0953
26030W        W41924   7.696  15.948  12.525 -0.0951 -0.2131 -0.1215
26031W        W41925  10.155   2.884   1.615  0.2374 -0.0433  0.1959
26032W        W41926   3.248   2.800   9.836  0.3193  0.0872 -0.1236
26033W        W41927   8.062  13.333  13.709  0.0491 -0.2850  0.0089
26034W        W41928   7.298   2.069  10.863  0.1141 -0.0035 -0.1598
26035W        W41929   3.512   7.327  10.741 -0.2158 -0.0547 -0.1820
26036W        W41930   4.812   4.902  12.032 -0.1232  0.0878  0.0110
26037W        W41931   7.659   2.705   1.378  0.2015 -0.2351  0.0483
26038W        W41932  13.617  16.633  12.673  0.0359  0.1309  0.3893
26039W        W41933   7.068  10.937  11.555  0.4083 -0.1167  0.1343
26040W        W41934  14.611   0.389  13.334  0.0483  0.1396 -0.0868
26041W        W41935   3.851   9.350   3.482  0.3177  0.0865 -0.0885
26042W        W41936   1.154   3.374   2.488 -0.0315 -0.0743 -0.0933
26043W        W41937  13.224   7.257  14.674  0.0390 -0.3420  0.0281
26044W        W41938   9.517  16.473  13.851  0.0448  0.0318  0.0870
26045W        W41939   3.732   9.824  11.791  0.0331 -0.0864 -0.3781
26046W        W41940  11.656   8.984   1.469  0.0271  0.2306 -0.1618
26047W        W41941   8.785   8.650  14.179  0.1019 -0.1286  0.0305
26048W        W41942   3.626  12.740  11.716 -0.1655  0.1118  0.0181
26049W        W41943  13.134  11.220   2.967  0.1288 -0.2253  0.2543
26050W        W41944  16.703   3.957  12.327 -0.0444  0.2212  0.1613
26051W        W41945   4.600  17.996  15.018 -0.1681 -0.0960 -0.0662
26052W        W41946  18.461  14.379  12.685  0.0847  0.1237  0.4839
26053W        W41947  17.733  15.785  12.426  0.0897  0.0636  0.0609
26054W        W41948  13.632   6.263   2.057  0.0591  0.1564  0.1917
26055W        W41949  13.287  11.788   1.261 -0.0109 -0.0486  0.1617
26056W        W41950  15.422   3.589  11.217  0.0563 -0.1348  0.1780
26057W        W41951   8.451   5.194  14.438 -0.0960 -0.0149 -0.1826
26058W        W41952  18.077  18.711   3.139  0.0007 -0.0639 -0.0100
26059W        W41953  12.936  13.971   1.731 -0.2002  0.1449  0.0639
26060W        W41954  18.482  17.875  12.293 -0.2407 -0.2327  0.2774
26061W        W41955   2.169   6.531  15.624 -0.1439  0.2023 -0.2953
26062W        W41956   2.562  18.424  12.228 -0.0238  0.0387  0.5367
26063W        W41957  13.008   4.095  13.401 -0.0465 -0.2939  0.1878
26064W        W41958   2.197   5.401   1.817 -0.1823  0.3874 -0.1327
26065W        W41959   8.656   4.213   1.464  0.1522 -0.0528  0.4667
26066W        W41960  11.534  14.229  11.474 -0.0129 -0.0756 -0.1230
26067W        W41961   5.651   9.685   4.047  0.1532 -0.2068 -0.2073
26068W        W41962  15.503  13.405  12.334  0.0218 -0.2528  0.0115
26069W        W41963   1.941   8.700   1.982  0.0134  0.1572 -0.1496
26070W        W41964   9.093   3.450   3.946  0.1107  0.1308 -0.2736
26071W        W41965   8.997  15.499  15.331  0.1985 -0.1597  0.1564
26072W        W41966  11.430   0.021   4.894 -0.2533 -0.0572 -0.0293
26073W        W41967   3.173  12.374  14.901 -0.3002 -0.5722  0.3359
26074W        W41968   3.641   5.185   4.760  0.0569  0.1299  0.2250
26075W        W41969  11.363  18.421  10.888 -0.0019  0.1403  0.1175
26076W        W41970   4.794  18.760   5.689  0.1558 -0.0580 -0.1311
26077W        W41971   9.665   3.103   5.306  0.0186 -0.1271  0.1805
26078W        W41972  17.775  14.864  12.357 -0.0883  0.1203 -0.0996
26079W        W41973   8.724  11.672   3.302  0.0429 -0.0679 -0.1614
26080W        W41974  16.055  18.718  13.304  0.0860  0.0282 -0.0600
26081W        W41975   6.449  10.093   0.482  0.2185  0.0147  0.0409
26082W        W41976  17.105  12.649   1.564  0.1549 -0.1396 -0.1405
26083W        W41977  17.419   2.148  14.961  0.1901  0.5502 -0.0270
26084W        W41978   7.726   5.994  10.911  0.7672  0.1413 -0.1724
26085W        W41979   6.811  12.679   2.517  0.2932 -0.1712 -0.1754
26086W        W41980  18.051   1.496   4.847 -0.2516 -0.1417 -0.0358
26087W        W41981  12.462   3.584  12.706 -0.0505  0.0258  0.1832
26088W        W41982  10.955   8.908   0.226  0.2227  0.1186  0.2268
26089W        W41983   4.249  18.361   1.167  0.2719 -0.2416  0.0232
26090W        W41984  16.401  13.702   1.932  0.0514 -0.1596  0.0587
26091W        W41985   1.172   2.418   0.706  0.1987 -0.0896 -0.0577
26092W        W41986   5.454  16.952   1.311  0.0570  0.5199 -0.0564
26093W        W41987   3.775   1.279   5.580  0.1432  0.1798 -0.1441
26094W        W41988  12.881  17.435   1.129  0.3234  0.0601 -0.0505
26095W        W41989   9.493  17.242   1.407 -0.2356 -0.1443  0.0650
26096W        W41990  17.914  17.727  15.480  0.1197  0.1107  0.4292
26097W        W41991  11.982   6.420   3.038  0.3618  0.2964  0.1998
26098W        W41992   7.902  11.219   3.785  0.0050  0.2955  0.2092
26099W        W41993   0.423  16.049  12.392 -0.5047  0.0189 -0.0513
26100W        W41994   5.876   8.593  10.045  0.2367  0.1460 -0.0029
26101W        W41995   5.433  11.029  14.785 -0.0157 -0.0016 -0.0347
26102W        W41996   6.404   5.111   4.123  0.0269 -0.2827 -0.4728
26103W        W41997   2.058   1.585   4.543  0.1447  0.1895  0.1712
26104W        W41998   5.291  17.299   2.658 -0.1744  0.2944  0.3622
26105W        W41999  16.796  15.420   2.679  0.0539  0.0311  0.2186
26106W        W42000   6.608   0.686   9.634 -0.3166  0.2646  0.0809
26107W        W42001  11.682   2.934   4.629  0.2886 -0.2928  0.0122
26108W        W42002   7.879   5.885   1.832 -0.0035  0.0758  0.0921
26109W        W42003   0.637   0.032   2.071 -0.3079 -0.0017  0.1268
26110W        W42004   3.792   2.158  13.512 -0.2561  0.2818 -0.2256
26111W        W42005  10.067   4.155   4.459 -0.1281 -0.0799 -0.0473
26112W        W42006   8.150  13.473  12.401  0.1433  0.2807  0.1005
26113W        W42007   8.438   1.725  13.433 -0.3251 -0.0407  0.2709
26114W        W42008  15.413  12.183  13.564  0.2129  0.0728 -0.0442
26115W        W42009  10.056   9.629   4.809 -0.0962 -0.0773  0.1417
26116W        W42010   8.050  14.572  13.863  0.0951 -0.0957  0.2357
26117W        W42011  15.349  14.814  12.140  0.0642 -0.2353  0.1068
26118W        W42012  17.193  15.978  14.223 -0.1228  0.0112 -0.0640
26119W        W42013   1.338   7.869  10.544 -0.0560 -0.0195  0.2832
26120W        W42014  15.536   5.409   0.388 -0.1245  0.1841 -0.3346
26121W        W42015   5.565  17.491   9.947  0.4089  0.0077 -0.0981
26122W        W42016   6.532  17.794   3.669 -0.1261  0.0716  0.0552
26123W        W42017   4.398   1.420   4.498  0.2466  0.1634  0.0990
26124W        W42018  12.023   5.419   3.577 -0.1923  0.1386 -0.0876
26125W        W42019   1.820   4.637  11.487  0.1735  0.0631 -0.2531
26126W        W42020   2.376  10.117   3.582 -0.1637 -0.1818 -0.1889
26127W        W42021   1.456   0.036  15.324  0.2055 -0.3228  0.2174
26128W        W42022  13.641   8.278  12.988  0.0660  0.3180 -0.0178
26129W        W42023  15.480  17.977  14.341 -0.1114  0.0657  0.3593
26130W        W42024  17.088  14.128  11.451  0.1040 -0.0895  0.0235
26131W        W42025  13.678  16.667  14.284 -0.0040  0.0106  0.0863
26132W        W42026   2.704   6.425  12.809  0.1213  0.3814  0.0357
26133W        W42027   4.959   8.238  14.463 -0.1545  0.0282  0.2915
26134W        W42028   0.808  17.105   2.624  0.0206  0.2727  0.1675
26135W        W42029  16.324  13.677  13.488 -0.1748  0.0421  0.1390
26136W        W42030   8.918   4.449  12.861  0.0420  0.0342 -0.2543
26137W        W42031  13.716   3.604   0.014 -0.4262  0.0296  0.3160
26138W        W42032   1.904  16.684   9.566  0.1609  0.3834  0.2122
26139W        W42033   8.743  16.978  11.700  0.6828 -0.2191  0.2139
26140W        W42034  13.976  16.252   2.790 -0.3241 -0.2978  0.0906
26141W        W42035  16.287   6.084   1.647 -0.1445 -0.0417  0.1466
26142W        W42036  15.592   0.312  11.236  0.1404 -0.1852  0.1538
26143W        W42037  14.077   3.230  11.659 -0.3037  0.1540  0.0260
26144W        W42038  12.345  14.586  13.114 -0.3415 -0.2023  0.0628
26145W        W42039   4.083  14.695  14.978  0.1410 -0.1389 -0.0899
26146W        W42040   1.172   9.901  14.916  0.0635 -0.3943  0.2360
26147W        W42041   7.369   5.177  14.655 -0.0124 -0.1039  0.1621
26148W        W42042   2.427   9.463  13.286 -0.0514 -0.1230 -0.0802
26149W        W42043  12.854  11.048  11.501 -0.1755  0.0077 -0.1444
26150W        W42044   7.950   1.062   1.627 -0.0290  0.1260  0.1405
26151W        W42045   7.532  14.655   3.714  0.1493  0.0533 -0.0260
26152W        W42046   9.578  15.217  11.571  0.1304 -0.1852  0.0523
26153W        W42047   2.164   9.226   1.804  0.1533 -0.2838  0.0964
26154W        W42048   6.839   0.381  11.405 -0.0782  0.1056 -0.2666
26155W        W42049   8.154   3.570  12.203 -0.0516 -0.0093 -0.3127
26156W        W42050  11.573  10.013  14.499  0.2243  0.2842  0.2820
26157W        W42051   7.983   9.391   1.522  0.1301 -0.1357 -0.3008
26158W        W42052  14.128  12.035   3.061 -0.2912 -0.1455 -0.3414
26159W        W42053  17.008  17.388  11.975 -0.3550 -0.0185 -0.1502
26160W        W42054  15.551   7.806   4.995 -0.2782  0.1144 -0.2782
26161W        W42055   6.537  12.662  12.932 -0.1178  0.0655 -0.0878
26162W        W42056   2.026   8.720  10.800 -0.0165  0.2099 -0.0055
26163W        W42057   8.970  14.572  11.338 -0.0354 -0.3044  0.0324
26164W        W42058  17.966  15.250  13.449  0.2516  0.1306 -0.1735
26165W        W42059  14.311   3.496   2.278  0.0366 -0.1054 -0.1043
26166W        W42060  17.503  17.942   3.383 -0.0409 -0.2672 -0.0026
26167W        W42061  15.006  14.241  14.983 -0.0111  0.0200 -0.1195
26168W        W42062   7.420  14.212   3.070 -0.1801  0.1652  0.1420
26169W        W42063   5.456   9.802  15.178  0.1292  0.0753  0.6433
26170W        W42064   4.698   0.220   0.867 -0.0566 -0.0294 -0.1437
26171W        W42065  10.916   0.445   3.236  0.0186 -0.0301  0.3178
26172W        W42066   1.310  13.362  15.555  0.1773 -0.2879 -0.0621
26173W        W42067  11.860  12.542  12.506  0.2282 -0.0737 -0.0318
26174W        W42068   0.373   0.093  12.837 -0.0450  0.0046 -0.1150
26175W        W42069  13.358   0.820  12.017  0.0755 -0.4678 -0.0560
26176W        W42070  13.631   9.705   0.481  0.0910 -0.1821  0.0448
26177W        W42071  11.665  14.587   4.592  0.0548 -0.0689  0.0796
26178W        W42072  10.555  11.255  12.267 -0.0354 -0.0922  0.0950
26179W        W42073  15.249  13.417  14.890 -0.3308 -0.1400  0.0814
26180W        W42074  13.434   0.373   0.379  0.1537  0.3746 -0.0386
26181W        W42075  17.514   6.063   3.632 -0.2418  0.0905  0.1397
26182W        W42076   5.226   8.159  14.899  0.1314 -0.0002 -0.0506
26183W        W42077   8.565  11.588  13.407 -0.0620 -0.1435 -0.3519
26184W        W42078  16.364  18.732   3.259  0.0083  0.0335 -0.1751
26185W        W42079  17.915   2.475  12.114 -0.0131 -0.1738 -0.0768
26186W        W42080   2.734  12.594  13.513 -0.0352  0.2379 -0.2172
26187W        W42081  13.118   8.623   3.480  0.1081 -0.2220  0.0493
26188W        W42082  16.003   7.252  12.589  0.1805  0.1192  0.2982
26189W        W42083   9.896  13.870  15.187 -0.2417 -0.1111  0.0746
26190W        W42084  17.600  11.545   3.166  0.3071  0.1430 -0.1037
26191W        W42085   2.898   6.461  14.867  0.0363 -0.3644  0.2797
26192W        W42086  16.640  10.161   3.214 -0.0056  0.1091  0.1945
26193W        W42087  15.074  11.867   3.309 -0.1024  0.3025  0.0450
26194W        W42088  13.963  18.264   3.117 -0.0485  0.1948 -0.1722
26195W        W42089   5.637   6.514  11.423  0.3991  0.4244 -0.0975
26196W        W42090   7.719   2.985  11.800  0.1123 -0.2248 -0.3448
26197W        W42091  14.517   9.061  13.969  0.0948  0.1201 -0.0100
26198W        W42092  17.816   0.296   2.706 -0.3522 -0.1653  0.0931
26199W        W42093   1.205   0.441   0.861 -0.2738 -0.1061 -0.1157
26200W        W42094  18.015  12.623   2.716  0.0273  0.1830 -0.5882
26201W        W42095   4.025   0.055  15.295 -0.2899 -0.0302 -0.1489
26202W        W42096   3.528   8.503  11.625  0.1600  0.0227 -0.2987
26203W        W42097   3.340   5.931   2.023 -0.0632  0.2396  0.0459
26204W        W42098  13.976   9.479   2.112 -0.0568  0.1955  0.2322
26205W        W42099   1.754   1.410   3.102  0.0734  0.2247 -0.2807
26206W        W42100   5.213   7.135  14.103 -0.1371  0.1525  0.0603
26207W        W42101  14.487   6.835   9.972  0.1817 -0.2643  0.2369
26208W        W42102   0.367   1.524  15.555 -0.2104 -0.2380  0.3037
26209W        W42103   9.263   3.004   1.850  0.1710  0.0634 -0.0393
26210W        W42104  15.226  15.075   0.737 -0.0716 -0.0083 -0.1926
26211W        W42105   1.439  11.678  15.571 -0.1798  0.0132  0.2037
26212W        W42106   1.375  15.426   4.816 -0.2718 -0.1213 -0.2750
26213W        W42107  11.325   8.585  12.689  0.3294 -0.0513 -0.0181
26214W        W42108  18.473   3.220  13.435 -0.1571  0.2019  0.0480
26215W        W42109   3.034   9.718   3.057  0.1204  0.1762 -0.0134
26216W        W42110  15.275  17.684  10.985  0.0621 -0.1044  0.0550
26217W        W42111   7.793  10.506   2.870 -0.0562 -0.1798 -0.3421
26218W        W42112   7.684  12.588   4.413  0.1444  0.0126  0.1047
26219W        W42113   7.612   0.800  15.190 -0.0804 -0.0393 -0.2417
26220W        W42114   0.626  10.839   2.308  0.0026 -0.2076  0.3052
26221W        W42115   1.375  16.439  12.381 -0.0301 -0.2525  0.0907
26222W        W42116  13.991   0.684   2.297 -0.2357 -0.2080 -0.0080
26223W        W42117  10.476   1.449  12.996  0.2720 -0.0425 -0.1055
26224W        W42118  10.673   3.148   0.116  0.1298  0.0963  0.2669
26225W        W42119   2.650   6.125  11.701 -0.4024  0.1890 -0.1908
26226W        W42120  16.094  17.195  14.880  0.3958 -0.2416  0.2327
26227W        W42121   9.423   1.316   2.517 -0.1053  0.0485  0.4038
26228W        W42122   8.896   0.046  11.693 -0.2886  0.3277  0.1797
26229W        W42123  12.004   8.636   1.496 -0.1192 -0.2272  0.1649
26230W        W42124   8.609  17.200   2.698 -0.0812 -0.1222  0.3236
26231W        W42125   9.190   3.824  15.576  0.1500  0.0168  0.0818
26232W        W42126  13.006  13.947   3.484 -0.1547 -0.0948 -0.1139
26233W        W42127  17.668   5.607  12.063  0.1947  0.0079  0.1185
26234W        W42128  15.320   5.149  12.254 -0.5430  0.0630  0.4223
26235W        W42129   8.701   0.089   2.124  0.1341 -0.1154 -0.1890
26236W        W42130   2.676   6.236   5.096  0.3259 -0.0198  0.0076
26237W        W42131  12.176   0.951   0.443 -0.1737  0.0463  0.0959
26238W        W42132  12.460   8.225  12.552 -0.2691 -0.1353  0.0137
26239W        W42133   8.616  16.380  13.872  0.0535 -0.1454  0.1182
26240W        W42134  11.607   9.647   2.957  0.2823  0.2513 -0.2472
26241W        W42135  10.782  16.064  14.004 -0.0577 -0.1082  0.0013
26242W        W42136  16.111  17.685   5.109  0.1635 -0.1052 -0.1345
26243W        W42137   6.692   5.735  14.089 -0.1036 -0.1458  0.2340
26244W        W42138  12.542   5.449  12.308 -0.0650 -0.0185 -0.0967
26245W        W42139  14.745  10.111  12.067 -0.0248  0.1699 -0.0348
26246W        W42140  14.444  17.703  12.934 -0.2075  0.3561  0.1261
26247W        W42141   2.788   0.201  14.232 -0.1689 -0.3628  0.1111
26248W        W42142  13.402  16.069   0.837  0.2937  0.0537 -0.1676
26249W        W42143  13.104  13.018   3.923 -0.0646  0.2415  0.0997
26250W        W42144   6.264   2.884   1.138  0.1130 -0.4299 -0.1155
26251W        W42145  16.684  13.419   3.485 -0.1911 -0.0771  0.4103
26252W        W42146  18.172   6.808   0.022 -0.2904  0.1105  0.2444
26253W        W42147   5.269  18.233   2.208 -0.0074 -0.1640  0.3173
26254W        W42148   6.651  14.220  14.157 -0.0883  0.1977 -0.1798
26255W        W42149   6.175   9.181   3.437  0.2036  0.0040  0.1481
26256W        W42150  11.841  12.230   2.697 -0.0035  0.3137  0.2448
26257W        W42151  13.291  17.710   0.882  0.0888 -0.0248 -0.0898
26258W        W42152   0.505   1.558   1.750 -0.0230  0.1975  0.0924
26259W        W42153   9.701   3.272  11.285 -0.0850  0.3373 -0.2413
26260W        W42154  10.869   1.439  14.133  0.3759  0.1533 -0.3049
26261W        W42155   8.311  14.062  14.564 -0.0468 -0.0101  0.0739
26262W        W42156   6.416   4.047  12.325 -0.0674  0.1117 -0.1039
26263W        W42157   5.098   8.339   0.611  0.1025  0.2229 -0.0092
26264W        W42158   6.544  10.948   1.420  0.3620 -0.0713  0.1332
26265W        W42159   6.629  15.429   2.340  0.0405 -0.0147 -0.2649
26266W        W42160  16.059   2.653   2.956 -0.1918 -0.0401  0.3017
26267W        W42161  11.962   9.021   0.128  0.1063 -0.1664 -0.0371
26268W        W42162   3.882   4.367  11.921 -0.0734 -0.1226 -0.1984
26269W        W42163  16.036   0.220   4.991  0.0009 -0.0017 -0.0852
26270W        W42164   4.847  14.187   1.013 -0.0041 -0.3032  0.1011
26271W        W42165   5.288   6.258   0.095 -0.2837  0.2887  0.0453
26272W        W42166  12.272   7.813  14.703  0.1739  0.1563  0.1002
26273W        W42167  18.194   4.469  15.000 -0.1241  0.1493 -0.0335
26274W        W42168   4.697  14.254   4.817  0.2463 -0.2169  0.1454
26275W        W42169  14.786   3.489   2.523 -0.0035  0.1905 -0.0445
26276W        W42170  14.534  10.710   1.500 -0.2931 -0.1333 -0.1918
26277W        W42171   2.986   3.449   0.181 -0.1853 -0.1775 -0.2033
26278W        W42172  14.284   5.874   0.472 -0.4289  0.0765 -0.0715
26279W        W42173   7.432   6.828  14.142 -0.0406 -0.2254 -0.2877
26280W        W42174  11.382   3.497   4.380  0.0202 -0.0193  0.0546
26281W        W42175   4.109  17.234  14.622  0.0625 -0.0052  0.0148
26282W        W42176   7.803  11.100  11.881  0.0469 -0.0867 -0.0191
26283W        W42177   1.273   2.330  11.633 -0.0990 -0.0333 -0.5022
26284W        W42178   7.985  10.017  12.925 -0.1937 -0.1594  0.0734
26285W        W42179  13.137   9.618   0.371 -0.1648 -0.4124  0.1099
26286W        W42180   3.714   8.048   2.221 -0.2190  0.0856  0.0709
26287W        W42181   0.740   3.522  12.238  0.0669 -0.3140  0.0705
26288W        W42182   9.562   5.782   4.777  0.1741 -0.1537  0.1559
26289W        W42183   1.063  17.527  15.287  0.1101 -0.2398  0.0592
26290W        W42184   3.889  15.764   1.036  0.0976  0.0451  0.0194
26291W        W42185  10.947  16.526  13.931 -0.1177 -0.2014 -0.4603
26292W        W42186   4.801   8.576   1.061 -0.2032 -0.3392 -0.1298
26293W        W42187  16.787   4.946  11.353 -0.0534 -0.0332 -0.1441
26294W        W42188   3.953  15.211  14.799 -0.4626 -0.1344  0.0866
26295W        W42189  13.237  13.577   2.836  0.0719  0.1907  0.1766
26296W        W42190  14.788   9.076   4.605  0.0168  0.0690 -0.0844
26297W        W42191  15.842   4.713  11.958  0.0926 -0.1157  0.1467
26298W        W42192   2.841   0.117  10.039  0.1642  0.3176 -0.0942
26299W        W42193  11.012   4.775   5.696  0.0206 -0.3599  0.1385
26300W        W42194  15.621  12.257  14.813 -0.1815 -0.0651  0.0787
26301W        W42195   5.660  17.143   4.854  0.1411  0.3554  0.2680
26302W        W42196  15.608   0.706   4.094 -0.0885  0.3247  0.1964
26303W        W42197  12.267   3.748  15.436  0.1042 -0.0266  0.1431
26304W        W42198   3.172   0.960  12.622  0.2434 -0.1187  0.1557
26305W        W42199   5.157   5.810   5.458 -0.0430  0.2380  0.0778
26306W        W42200   2.831   1.527   5.346 -0.0518  0.1264  0.0866
26307W        W42201   3.422  11.698   2.270  0.2048 -0.0230 -0.3463
26308W        W42202  17.369   9.767   0.058 -0.2980  0.0403  0.0744
26309W        W42203  18.321   3.508  13.836  0.0830  0.0406  0.2578
26310W        W42204  17.784  11.471  10.267 -0.0832  0.2303  0.2797
26311W        W42205  16.560   0.054   4.158  0.1000 -0.1127 -0.2731
26312W        W42206  18.022  10.050   0.589 -0.1278  0.0131 -0.2709
26313W        W42207  12.034   6.360   1.465  0.0719  0.2476  0.2909
26314W        W42208   9.316   1.724   1.656 -0.2287  0.1406 -0.1244
26315W        W42209  11.153   9.126   3.558  0.2257 -0.1218 -0.1576
26316W        W42210   6.351   4.600  12.076 -0.0129 -0.3774 -0.1006
26317W        W42211   8.257  17.631  11.740  0.1160  0.0093 -0.0335
26318W        W42212  12.917  18.470   0.179 -0.1812 -0.2463 -0.1620
26319W        W42213   4.883   5.368   9.497  0.2861  0.0805 -0.1513
26320W        W42214   2.861  11.615   3.111 -0.0997 -0.1337  0.1177
26321W        W42215  13.913  15.087  14.240  0.3035  0.0508 -0.2024
26322W        W42216   9.297  15.305   4.928  0.0158  0.2760 -0.0979
26323W        W42217  15.360   9.637   2.957 -0.0407 -0.1011 -0.1385
26324W        W42218  10.104  15.464   3.007  0.2233 -0.1807  0.4707
26325W        W42219   3.645   5.966   2.452 -0.0272  0.1648  0.1121
26326W        W42220  18.341  11.286   1.592 -0.1867 -0.0511 -0.2186
26327W        W42221   4.902   5.084   3.066  0.2936 -0.0709 -0.0698
26328W        W42222   9.634   3.421   3.979  0.1105  0.2627  0.2084
26329W        W42223  12.701   5.852   3.811 -0.0487 -0.1950 -0.2017
26330W        W42224   1.441   5.588  13.835 -0.1119  0.0561  0.0080
26331W        W42225  15.677  17.437   3.206 -0.1202  0.3878  0.1492
26332W        W42226   9.068  18.327   3.394 -0.0270 -0.0320  0.1330
26333W        W42227  13.693  10.629  14.047 -0.0748  0.0700 -0.1567
26334W        W42228   4.963  11.148  13.539 -0.0208 -0.2410  0.2186
26335W        W42229  16.804  18.621  11.568 -0.1936 -0.1584  0.1952
26336W        W42230  10.760  12.459   0.647 -0.0354 -0.1406  0.2272
26337W        W42231   1.635  11.645  11.188 -0.1684  0.1865  0.1343
26338W        W42232   2.116   8.086   2.322  0.0790  0.0282  0.1733
26339W        W42233   2.045   2.545   0.618  0.1641 -0.1362  0.0863
26340W        W42234  12.268  16.869   1.549 -0.1893 -0.1151  0.1475
26341W        W42235  14.437  12.491   3.161  0.0351  0.0502 -0.0889
26342W        W42236   9.396   8.374   0.130  0.3318 -0.1024  0.1022
26343W        W42237   5.244  17.692  14.003  0.0015 -0.0652  0.0585
26344W        W42238  14.876   6.354   5.872  0.1102  0.1711 -0.2355
26345W        W42239  13.248  10.255   4.819 -0.0419 -0.1941  0.3090
26346W        W42240   3.299   5.618   5.246 -0.3401 -0.1889  0.0110
26347W        W42241   9.757  10.593  13.622 -0.2470  0.6259  0.1992
26348W        W42242   6.506  14.041  12.744 -0.0942 -0.0703 -0.4180
26349W        W42243  14.599   2.496  13.863  0.0358  0.1119 -0.1628
26350W        W42244   6.853   2.946   3.600 -0.3187  0.0674  0.3453
26351W        W42245   3.833   6.497  14.872 -0.1461  0.0718 -0.0528
26352W        W42246  14.889   3.795   0.171 -0.0570 -0.0779  0.1263
26353W        W42247  13.994  16.918   4.018  0.3327  0.1453 -0.2123
26354W        W42248  15.248   9.477  14.803 -0.1629  0.1758 -0.1907
26355W        W42249   4.586  10.471  10.723  0.0123  0.0352  0.3335
26356W        W42250   5.350  16.655   4.995  0.2361  0.5509  0.2039
26357W        W42251   8.126   0.922   2.800 -0.0858 -0.2343  0.0728
26358W        W42252  12.660   5.621   4.393 -0.0218  0.0579 -0.1126
26359W        W42253   1.461  14.839   4.327 -0.2564  0.0904 -0.0510
26360W        W42254  15.988  13.325   1.968  0.0463 -0.1477  0.0287
26361W        W42255  16.968   5.395   1.762  0.1528  0.1481 -0.0616
26362W        W42256  18.087  16.705  12.005 -0.0779 -0.1513  0.0704
26363W        W42257  15.252  12.742   4.943  0.0365  0.2323  0.0226
26364W        W42258   9.677  17.515   5.364 -0.2035 -0.0903  0.2390
26365W        W42259   5.499  16.617  11.838 -0.0294 -0.2409 -0.0525
26366W        W42260  12.024   9.536   2.766 -0.0927  0.3638 -0.1510
26367W        W42261  13.378   8.508  12.655 -0.0526  0.0034 -0.1823
26368W        W42262   2.199   3.700   4.124  0.0737 -0.0884  0.2935
26369W        W42263   9.370   7.973   3.021 -0.2286 -0.0973  0.1682
26370W        W42264  10.032   0.564   4.800 -0.1354  0.2255 -0.0254
26371W        W42265  15.739   6.606   5.030 -0.0557  0.0951 -0.0940
26372W        W42266   4.477   9.777  14.261 -0.0437  0.1701  0.1475
26373W        W42267  16.242  18.115   2.919  0.0671  0.0756  0.0171
26374W        W42268  11.881   7.620  12.531  0.2776  0.2041  0.0564
26375W        W42269   2.660   4.821   3.992  0.1419 -0.0066 -0.2372
26376W        W42270  15.103  13.063   1.340 -0.1955 -0.0389 -0.1878
26377W        W42271   7.055   8.302   1.927  0.0712 -0.3014 -0.0025
26378W        W42272   0.870  14.053   1.691 -0.1880  0.0666  0.0147
26379W        W42273   4.072  12.453   2.136 -0.0812 -0.0261 -0.1567
26380W        W42274   7.278   1.311   9.496  0.0251  0.0057 -0.2160
26381W        W42275   2.458   4.019   4.437 -0.0149 -0.2711 -0.1055
26382W        W42276   9.932   7.012  15.269  0.1914 -0.3000 -0.4740
26383W        W42277  10.208   3.933   0.619  0.0655  0.2629  0.1326
26384W        W42278   0.923  11.835  12.778 -0.0131 -0.0504  0.4576
26385W        W42279   7.372   3.449   2.706 -0.1100  0.0777 -0.1207
26386W        W42280  13.095   1.633  12.229 -0.0746 -0.1032  0.3234
26387W        W42281  17.360   8.336   3.097  0.0784  0.2021  0.0881
26388W        W42282   0.021   9.730   4.250  0.1067  0.1616 -0.3337
26389W        W42283  18.672  15.209  14.857  0.1463 -0.1035 -0.0575
26390W        W42284  16.426  10.255   2.029 -0.1138  0.2588 -0.2051
26391W        W42285  16.708   2.168   3.984 -0.0216 -0.2041  0.0380
26392W        W42286  13.140  18.330   0.640  0.0194  0.0696 -0.0556
26393W        W42287   2.985   0.477   1.164 -0.0330  0.0221 -0.2435
26394W        W42288  10.703   6.506   0.004 -0.1752 -0.4598  0.0030
26395W        W42289   7.184   8.023   4.223 -0.0054  0.0540  0.2993
26396W        W42290  14.946  14.911  11.716 -0.2216 -0.2871  0.0966
26397W        W42291   3.789   3.500  10.772  0.0638 -0.4195  0.1194
26398W        W42292   4.680  18.687   2.669  0.2087  0.0840 -0.2415
26399W        W42293   4.531   7.079  10.637 -0.0938  0.1320  0.0206
26400W        W42294   7.854   4.768   4.212 -0.0270 -0.1572  0.2138
26401W        W42295   2.333  14.020   3.093 -0.1207 -0.0721 -0.1050
26402W        W42296  13.580   0.980   4.637  0.1019 -0.1782 -0.2084
26403W        W42297  11.835   5.550   2.123 -0.2070 -0.2441 -0.1146
26404W        W42298   3.586  15.929   4.876  0.3005  0.1665  0.0418
26405W        W42299  12.834  11.644   2.315 -0.0068  0.0833 -0.1538
26406W        W42300  11.397   0.544  13.619 -0.0023 -0.1361  0.0308
26407W        W42301   4.399   4.629  11.894  0.1144 -0.2090  0.1377
26408W        W42302  12.772  12.436   0.741  0.1388 -0.0525  0.0267
26409W        W42303   5.351  18.498  15.621 -0.2251  0.1493 -0.3917
26410W        W42304  17.452  11.796  14.103 -0.0043  0.4244  0.1610
26411W        W42305   2.197   2.828  11.480 -0.1264  0.0963  0.1741
26412W        W42306   7.796   5.086   4.677  0.0471 -0.0564  0.2345
26413W        W42307   8.226  16.817  13.861  0.1777 -0.2505 -0.3114
26414W        W42308   9.998   5.917  15.548 -0.1113 -0.1911 -0.1698
26415W        W42309   0.445  17.132  14.017  0.3573 -0.1747 -0.2876
26416W        W42310  15.715   8.266  11.457 -0.1528 -0.0602  0.1646
26417W        W42311   2.900  13.496  11.857  0.1026  0.0226  0.0411
26418W        W42312   5.649  10.953   4.268 -0.0960 -0.0975  0.1954
26419W        W42313   2.765  16.756  13.889 -0.0822  0.1431  0.3518
26420W        W42314   9.798  17.560  10.584  0.4408  0.2854 -0.2143
26421W        W42315  17.062   2.490  11.870 -0.2561 -0.0324 -0.2222
26422W        W42316  18.301   1.942  15.368 -0.3028  0.1931 -0.1517
26423W        W42317   5.892   9.777  13.754  0.0885 -0.0250 -0.0589
26424W        W42318   6.445   9.405  13.973 -0.3546  0.0125  0.0564
26425W        W42319   7.864  15.537   3.223 -0.1831 -0.1570 -0.2202
26426W        W42320  16.736   6.244  11.037 -0.0106 -0.2636  0.1905
26427W        W42321   9.875  13.482   0.435 -0.0219  0.0027  0.2399
26428W        W42322  11.450  16.276   9.995  0.0328 -0.3296  0.0068
26429W        W42323   8.622  12.425  13.392 -0.0197  0.0968 -0.0309
26430W        W42324  15.865  12.369  14.347  0.3013  0.0680 -0.1838
26431W        W42325   2.914  11.862   2.290  0.0248 -0.2498  0.0934
26432W        W42326   4.219  17.396  10.840 -0.0874  0.2935  0.0742
26433W        W42327  15.935   5.899  13.470  0.1051  0.3660 -0.1091
26434W        W42328  16.994   3.461  11.824  0.0256  0.0161 -0.2211
26435W        W42329  17.384  16.589   3.013  0.3960  0.0317 -0.1890
26436W        W42330  12.490   3.623  12.199  0.3204 -0.1429  0.2174
26437W        W42331   8.294   6.435   3.896 -0.2397  0.1631 -0.1415
26438W        W42332   4.579   2.926   0.288  0.2403 -0.3900  0.1644
26439W        W42333   6.393   7.059  12.548 -0.0291 -0.3307  0.0813
26440W        W42334  17.293   9.392   2.311 -0.0549 -0.2353 -0.1404
26441W        W42335   2.095  15.432   0.751 -0.0094  0.2604  0.0441
26442W        W42336   9.252  17.942   3.810  0.0959  0.1799  0.0656
26443W        W42337   1.597   7.204  15.432  0.2188  0.2803  0.0757
26444W        W42338   9.909  11.441  12.290 -0.0265  0.1732 -0.4295
26445W        W42339   0.489   1.918   2.878 -0.2580  0.4425 -0.0397
26446W        W42340   2.919   4.690  15.545 -0.2997 -0.4087 -0.2533
26447W        W42341  16.995   1.259  12.948 -0.1734 -0.3147 -0.1509
26448W        W42342  14.127   2.537   0.113  0.0018  0.2596 -0.4184
26449W        W42343   0.765  16.700  13.272 -0.1792  0.2271 -0.1369
26450W        W42344   4.547  16.092   2.432  0.0773 -0.2462  0.1138
26451W        W42345   0.787  13.620   1.419 -0.0222  0.1693  0.2676
26452W        W42346  10.063  11.968  15.067 -0.0649  0.0423  0.0625
26453W        W42347  10.811  18.337   2.602  0.1447 -0.0380  0.3550
26454W        W42348   2.512  16.854  11.668  0.1629  0.1911 -0.2090
26455W        W42349   8.544   6.352  14.185 -0.0148 -0.0908 -0.0333
26456W        W42350  10.086   5.026   3.931  0.2057  0.1628 -0.3670
26457W        W42351   6.013   6.464   5.195 -0.1728 -0.3894  0.0069
26458W        W42352   2.171  17.058   2.459 -0.4873 -0.1314  0.2850
26459W        W42353  14.227  12.420   1.029  0.2109 -0.1130  0.1337
26460W        W42354  11.859   3.492   3.534  0.1824 -0.2431 -0.3913
26461W        W42355   3.807  10.824   2.484 -0.1652  0.1685 -0.1897
26462W        W42356   5.576   9.885  12.657 -0.0856  0.0884  0.1092
26463W        W42357  13.556   3.025   3.197 -0.1856  0.4312 -0.0262
26464W        W42358   9.892   9.655  13.521 -0.3378  0.2999 -0.0132
26465W        W42359  13.651   2.166   0.673  0.1201 -0.1298  0.1898
26466W        W42360   7.292  10.957  12.106  0.1091  0.0329  0.0712
26467W        W42361   0.702   7.848  11.565  0.0593  0.0193  0.0316
26468W        W42362   6.203  11.593  12.475 -0.3010 -0.4178 -0.3591
26469W        W42363   1.730   6.178   1.910 -0.0901 -0.1056 -0.1004
26470W        W42364  14.577   6.311  11.591 -0.0343 -0.1562 -0.2082
26471W        W42365   7.032  16.568   1.196 -0.1071 -0.1765 -0.0864
26472W        W42366   1.542   5.565   4.929  0.3969  0.2032  0.0985
26473W        W42367   3.062   9.591   4.736  0.0152 -0.1902 -0.1917
26474W        W42368   1.736  11.252  15.416 -0.1339 -0.0635  0.0216
26475W        W42369  18.158   8.539   3.718  0.0885  0.1288 -0.0700
26476W        W42370   8.459  18.109   2.778 -0.0833 -0.1922 -0.1521
26477W        W42371  16.016  13.462   4.010 -0.1713  0.0475  0.1252
26478W        W42372  12.713   8.146   4.163 -0.3139  0.0386  0.3313
26479W        W42373  18.575  12.899  12.489  0.1321  0.1390  0.1580
26480W        W42374  16.155  14.089   1.089 -0.0813  0.3484  0.0383
26481W        W42375  11.019   7.037   1.599  0.1936 -0.2079  0.1960
26482W        W42376   5.545  16.855   4.453 -0.2139  0.2774 -0.1123
26483W        W42377   9.909   9.126  11.775  0.1316 -0.1129 -0.2050
26484W        W42378   3.741   4.545   0.624  0.1540 -0.0787 -0.0320
26485W        W42379  14.125  18.209  12.454  0.0310 -0.1417  0.0776
26486W        W42380   8.463  14.622  15.352  0.1134 -0.0792  0.3509
26487W        W42381   1.157  14.414   4.915  0.0409 -0.1822 -0.0880
26488W        W42382  17.588  15.640   1.434 -0.0981 -0.2292  0.1909
26489W        W42383   9.151   6.666   5.527 -0.1786  0.0727 -0.0080
26490W        W42384  11.958   5.316  13.082 -0.1182 -0.0786 -0.0540
26491W        W42385   1.132  13.172   3.599 -0.0270  0.3821  0.0536
26492W        W42386  17.254  18.177   3.749  0.1572 -0.1406  0.0356
26493W        W42387  11.472   5.120  14.108  0.0300  0.2909  0.0136
26494W        W42388  11.406   4.228   5.147  0.1271  0.0165 -0.0130
26495W        W42389   0.093  17.505   5.744  0.1733  0.2257  0.2012
26496W        W42390   5.648  16.415   4.117 -0.0096  0.2642 -0.0963
26497W        W42391   6.255   7.943   3.518 -0.3459 -0.2234 -0.2566
26498W        W42392  10.311   5.330   1.718  0.2619  0.0998 -0.1966
26499W        W42393   3.177  15.094  12.836  0.1326  0.2639 -0.1074
26500W        W42394   3.713   0.892  14.925  0.2556 -0.0270 -0.2768
26501W        W42395  14.710   3.663   3.948 -0.2159  0.0314  0.1811
26502W        W42396   7.042  13.055  14.703  0.1602  0.1525 -0.0181
26503W        W42397   3.072   9.835  14.157 -0.3174 -0.0320 -0.0520
26504W        W42398  10.586  16.660   3.624  0.1528 -0.3790  0.1943
26505W        W42399   6.191  18.372  11.537  0.1987 -0.1738 -0.0332
26506W        W42400   7.921  16.791   0.800 -0.2213  0.1437  0.0766
26507W        W42401  16.876   0.962   1.814  0.2479  0.1245  0.0754
26508W        W42402  10.065  14.959   1.245  0.1729 -0.0589  0.1596
26509W        W42403   4.677   4.955  13.715  0.2463 -0.4144  0.1493
26510W        W42404  15.581   1.671   4.120 -0.0510  0.1855 -0.0297
26511W        W42405  13.064  13.089   0.067 -0.0117  0.1451  0.2681
26512W        W42406  12.419   6.372   2.625 -0.0561 -0.0171 -0.0744
26513W        W42407  10.539  13.015   0.655  0.2052 -0.0312 -0.1273
26514W        W42408   6.678  18.611  12.692  0.1238 -0.0845 -0.2140
26515W        W42409   0.059   0.294   4.882  0.0042  0.1914 -0.2697
26516W        W42410   1.836  13.296   3.110  0.3585 -0.0459  0.0381
26517W        W42411   9.692  10.410  11.625 -0.2476  0.0010 -0.0038
26518W        W42412   0.953  17.069  14.141 -0.0433  0.4046  0.1363
26519W        W42413   1.550   7.474   0.854 -0.0295  0.3867 -0.1164
26520W        W42414   0.241  16.494  12.231  0.1198  0.2921 -0.2077
26521W        W42415   7.333   0.148   0.455 -0.1807  0.0242  0.0063
26522W        W42416   7.303   7.850  14.296  0.1269 -0.0309 -0.0497
26523W        W42417  11.389  11.708   4.351  0.0140 -0.0683  0.1724
26524W        W42418   4.772   8.919  15.387  0.1455 -0.3494  0.0883
26525W        W42419   4.567  16.616   2.272  0.1019 -0.0884  0.3276
26526W        W42420   0.152   8.402  11.367  0.0343 -0.1431  0.3330
26527W        W42421   7.216  14.054  12.695  0.0795  0.1747 -0.0503
26528W        W42422  16.221  13.304  11.604  0.0034  0.0719 -0.0510
26529W        W42423   2.954   7.034   3.324 -0.1407  0.0676 -0.2479
26530W        W42424  15.159   0.857  15.437  0.0715 -0.0536 -0.0348
26531W        W42425  16.612   0.315   0.748 -0.0838  0.2739  0.0547
26532W        W42426   5.247  13.948  14.150 -0.0304  0.2933  0.0183
26533W        W42427  15.977  18.438   6.142  0.1937  0.1122 -0.0593
26534W        W42428  11.347   8.678  13.451 -0.0960  0.2139  0.2230
26535W        W42429  12.342  17.176   4.100 -0.0468  0.1144  0.1078
26536W        W42430  15.659   9.664   4.458  0.3457  0.0788  0.1544
26537W        W42431   3.292   6.762   2.565  0.0213 -0.0833  0.0246
26538W        W42432  17.735  16.410   4.910 -0.0375  0.3234  0.0368
26539W        W42433   1.058   8.133  11.327 -0.0500 -0.1316  0.0712
26540W        W42434  11.544   5.974   4.529  0.1786 -0.0712 -0.2859
26541W        W42435   5.184   5.503  14.700  0.1513  0.3006 -0.1387
26542W        W42436   6.849  16.968  10.662  0.1508  0.0234 -0.0365
26543W        W42437   2.557   7.354  11.504  0.0843 -0.0412 -0.0851
26544W        W42438  16.274   0.274  14.383  0.2175 -0.1496  0.2260
26545W        W42439   8.456  13.285  11.628 -0.4854 -0.0691 -0.3491
26546W        W42440   2.255  11.635  11.127 -0.0868  0.2092 -0.0441
26547W        W42441   5.503   6.107  10.971 -0.0708 -0.0549 -0.0028
26548W        W42442   8.023   4.963   3.521 -0.0850 -0.2715  0.2113
26549W        W42443  14.537   5.756   3.784 -0.3686  0.3233  0.3229
26550W        W42444  13.953   6.585  13.055  0.3011 -0.2199  0.6046
26551W        W42445   8.564  11.580   5.959 -0.0341 -0.0450  0.1348
26552W        W42446   1.249  16.299   4.513 -0.0533  0.1183 -0.1920
26553W        W42447  12.768   2.547  14.626 -0.0815  0.2649 -0.0014
26554W        W42448  15.664   7.393  14.134  0.0458  0.0373  0.1089
26555W        W42449  10.407   0.665   1.406 -0.1501  0.0441 -0.0149
26556W        W42450  12.068  13.877   4.752 -0.2416  0.4558 -0.2844
26557W        W42451  11.129   5.496  12.688 -0.1919  0.1220 -0.0029
26558W        W42452  14.044   8.227   1.662 -0.3020 -0.0524 -0.3360
26559W        W42453   5.867  14.066  14.485 -0.1398 -0.1342 -0.2506
26560W        W42454  15.201  10.244   2.771  0.4425  0.2622 -0.1996
26561W        W42455  16.915   4.605   0.438 -0.0590  0.1535  0.2250
26562W        W42456   0.469  10.325   5.370 -0.2507 -0.0189 -0.1428
26563W        W42457   3.516   1.295  14.519 -0.2515  0.0912 -0.2270
26564W        W42458   7.630   8.336  14.688 -0.0517  0.0054 -0.2387
26565W        W42459  12.854  14.395   3.301 -0.3243  0.1538 -0.1249
26566W        W42460   1.810   6.133   3.809  0.1631 -0.1126 -0.0978
26567W        W42461   2.200  18.724   4.429 -0.3952 -0.2127  0.2504
26568W        W42462  13.593   6.674   1.149 -0.5199 -0.0764 -0.0690
26569W        W42463   1.852   3.215  11.152 -0.0367  0.0780  0.0060
26570W        W42464   5.817  16.941  13.347 -0.2396  0.0318 -0.1197
26571W        W42465  14.278   9.641  13.331 -0.2634  0.2887  0.1954
26572W        W42466   2.726  10.178   0.831 -0.3006 -0.0546  0.0453
26573W        W42467  16.433   1.045   5.248  0.1935 -0.2217 -0.0870
26574W        W42468   4.635  12.028   2.598 -0.2575 -0.1533 -0.0070
26575W        W42469   3.787   0.937  11.133 -0.2963 -0.1172 -0.1537
26576W        W42470   4.280  12.910   0.198  0.0795 -0.2863 -0.0713
26577W        W42471  15.704   0.492  12.580  0.1381 -0.1701  0.2469
26578W        W42472  17.117   3.764   0.579 -0.5356 -0.0425 -0.0061
26579W        W42473  18.107   5.294   1.566  0.0015 -0.1943 -0.2159
26580W        W42474   8.949   9.635  11.418 -0.0624  0.0206  0.0745
26581W        W42475   4.399   3.243  11.705  0.0554 -0.3436  0.2441
26582W        W42476   9.535   6.952  13.682 -0.1495 -0.0410 -0.3642
26583W        W42477  17.500   7.451  14.214 -0.1439 -0.1523  0.3660
26584W        W42478   0.592  12.641   2.855 -0.0133 -0.2398  0.0602
26585W        W42479  17.958   5.316  12.438 -0.1660  0.1756 -0.1897
26586W        W42480   0.642   8.408   4.402  0.1029  0.1775 -0.0486
26587W        W42481  15.776  17.813  13.329 -0.0058  0.1132  0.5450
26588W        W42482  13.385   5.561  13.908 -0.3533  0.1562  0.5028
26589W        W42483  12.437   3.613  13.262  0.1410 -0.3785  0.0929
26590W        W42484  18.678   6.655  12.459 -0.2890 -0.5830 -0.2115
26591W        W42485   9.866  17.583  13.833 -0.0995  0.1877 -0.2483
26592W        W42486  17.446   2.714   4.352 -0.2570 -0.1997 -0.1194
26593W        W42487  15.661  12.189  12.493  0.1417 -0.1050  0.0367
26594W        W42488  15.767   3.823   0.358 -0.2182  0.0725  0.0890
26595W        W42489  17.858   7.302  12.345 -0.2031  0.2889 -0.1600
26596W        W42490   6.555  10.618   0.432  0.1397 -0.0153 -0.1539
26597W        W42491  10.505   7.655  12.403  0.0856  0.1297 -0.0651
26598W        W42492   5.450  12.507  10.910 -0.1577  0.1135  0.2641
26599W        W42493  17.092  13.934  13.126 -0.1701  0.0376  0.1025
26600W        W42494   9.138   7.042   2.075 -0.0782  0.1618 -0.0708
26601W        W42495  16.063  16.792   5.735  0.0600 -0.2964  0.1069
26602W        W42496   4.858   1.676   4.315 -0.1126  0.1883 -0.2763
26603W        W42497  15.442  13.975   0.614  0.0146  0.1261 -0.0187
26604W        W42498   6.027   0.772  13.111  0.0578 -0.0015 -0.2564
26605W        W42499   4.469  18.202  11.865  0.0146 -0.2104 -0.0269
26606W        W42500  18.664   5.045   4.978 -0.1736  0.0726  0.0348
26607W        W42501   8.480   9.901   2.286 -0.0336 -0.3161 -0.1075
26608W        W42502   8.128  10.789   4.494 -0.0011 -0.0225 -0.1745
26609W        W42503   9.384  15.982   2.749 -0.0074  0.1413 -0.3755
26610W        W42504   5.191   6.947   0.292  0.0897 -0.0487  0.2061
26611W        W42505   0.185   1.092  12.761 -0.0358  0.2201  0.2206
26612W        W42506  18.501  11.788   0.693 -0.0740 -0.1481 -0.0477
26613W        W42507  17.529  12.543  15.454 -0.1482  0.0132  0.1627
26614W        W42508   1.688  15.626   0.949  0.2804  0.1964  0.3205
26615W        W42509   8.546   2.191   4.981  0.0744  0.4004  0.0014
26616W        W42510  14.359   9.139  13.497 -0.0150  0.0475 -0.0840
26617W        W42511  11.318   4.865  11.339 -0.0731  0.2648  0.2743
26618W        W42512  13.530   8.863   4.950 -0.0840  0.4151  0.1372
26619W        W42513  16.575   5.737   3.352  0.3623 -0.0409  0.1337
26620W        W42514  17.003   1.525   0.087  0.0163  0.0347  0.0804
26621W        W42515   8.904   8.539   1.205  0.1844 -0.2400 -0.2441
26622W        W42516  13.161   2.390   3.532 -0.3836  0.2628 -0.2520
26623W        W42517  13.814   4.767   0.476  0.3896 -0.1602  0.2483
26624W        W42518   6.066   1.959  10.275 -0.1799  0.0074 -0.1237
26625W        W42519   9.935   2.525   0.187 -0.0544  0.3473  0.3646
26626W        W42520   1.852  17.401   5.365  0.3942 -0.2022  0.1910
26627W        W42521  13.495   3.739  10.636 -0.2679 -0.4577 -0.3359
26628W        W42522  16.595   5.476  15.380  0.1697 -0.1864 -0.3565
26629W        W42523  16.493  10.615   2.902  0.1236 -0.0364 -0.0713
26630W        W42524   9.651  11.982   2.226  0.2119  0.0581  0.2153
26631W        W42525   4.860  14.958   3.307 -0.0179  0.2150  0.2216
26632W        W42526   3.117  14.226  14.554 -0.0310 -0.1029  0.2227
26633W        W42527   3.663  10.969  14.615  0.2276  0.0755  0.0531
26634W        W42528  17.428  14.035   5.161 -0.1685  0.1783 -0.3330
26635W        W42529  16.886  10.416   2.214  0.2701 -0.3467  0.1635
26636W        W42530   0.240  10.923  11.513 -0.0949 -0.2114 -0.1036
26637W        W42531  11.043  11.399   4.008 -0.1948 -0.0762 -0.2351
26638W        W42532  12.006   2.953  10.824 -0.2750 -0.0325 -0.1686
26639W        W42533   1.777   6.432   9.475 -0.1688  0.2159 -0.0580
26640W        W42534   7.366   6.155   0.461  0.3038 -0.0763 -0.2576
26641W        W42535  14.106   6.162  11.794 -0.0674 -0.2978  0.0374
26642W        W42536   3.251  18.322   4.797 -0.1996  0.2004 -0.3536
26643W        W42537  16.378  14.760  15.388  0.2887  0.2129  0.1259
26644W        W42538  17.079   2.541   0.133  0.1084  0.0619 -0.0057
26645W        W42539   3.438  17.913  14.877 -0.0784  0.1172 -0.0128
26646W        W42540   0.909   0.122  13.070 -0.1631  0.0001 -0.0702
26647W        W42541   7.066   0.092  14.800  0.0484 -0.0213  0.1661
26648W        W42542   0.190  17.800   1.130  0.0188 -0.1550  0.0684
26649W        W42543   2.104   3.910   3.127  0.1312  0.1623 -0.4335
26650W        W42544   1.915   9.241   0.864  0.4419 -0.0101  0.1459
26651W        W42545   8.615   7.668   3.958 -0.1614  0.3997 -0.2050
26652W        W42546   3.380  13.499   1.834  0.0421 -0.0215  0.2553
26653W        W42547   5.163   7.968  12.679  0.1931  0.1735 -0.1494
26654W        W42548   8.953   6.767  15.282  0.0254  0.1133  0.0844
26655W        W42549   0.996  17.930   5.769 -0.1380  0.1708  0.0121
26656W        W42550  11.420   8.391   3.529 -0.2167  0.0198  0.1887
26657W        W42551   6.213   4.539   1.038 -0.0746  0.1338 -0.1263
26658W        W42552   9.247   4.756   3.998 -0.1273 -0.1449 -0.1638
26659W        W42553   5.763  11.580   3.563  0.3473  0.0789 -0.0690
26660W        W42554  14.992   6.685   2.174 -0.3045 -0.0268  0.2017
26661W        W42555  18.084   4.282   5.030  0.2684 -0.2064  0.1421
26662W        W42556  13.078  10.388  14.308 -0.0958  0.1343  0.3372
26663W        W42557   8.567   3.613  10.925 -0.0358 -0.1788  0.0583
26664W        W42558   3.451   4.942   4.381 -0.0630  0.2986 -0.0235
26665W        W42559  13.925  17.046  11.717 -0.2900  0.0389  0.0339
26666W        W42560   8.634  16.424  12.613 -0.2693  0.3584 -0.1609
26667W        W42561  17.424   1.731   1.744  0.1360 -0.3913 -0.1188
26668W        W42562   7.779   8.747   5.179 -0.1884 -0.1474 -0.0625
26669W        W42563  12.009  14.078  11.414  0.0640 -0.3543  0.3946
26670W        W42564   0.411   2.997   1.097  0.0884  0.1150  0.0810
26671W        W42565  15.689  10.256   6.199 -0.0243 -0.4273 -0.3132
26672W        W42566   8.064  10.776   5.062  0.2192 -0.0380  0.0053
26673W        W42567  12.596   2.198  13.756 -0.2215 -0.1069 -0.0725
26674W        W42568  14.636  15.065  13.062  0.1413  0.0012 -0.0957
26675W        W42569   8.632   0.969   3.718 -0.0326  0.1961  0.0663
26676W        W42570   2.460  14.263  15.547  0.5541 -0.1318 -0.1801
26677W        W42571   2.028  13.249  12.981 -0.0470 -0.2188 -0.4247
26678W        W42572   5.311  17.181  14.817  0.1551  0.3939  0.0909
26679W        W42573  17.957  11.155   4.164 -0.0220 -0.2454  0.2465
26680W        W42574   9.006   3.889  12.251 -0.0526 -0.2075 -0.1264
26681W        W42575  13.457  14.261   1.046 -0.3681  0.1452 -0.2484
26682W        W42576  14.980  10.729  13.324 -0.2112 -0.1365 -0.0011
26683W        W42577   6.190   4.258   3.739 -0.1016 -0.3644 -0.4461
26684W        W42578   9.527   2.805  11.688  0.3010 -0.3029 -0.3951
26685W        W42579   0.377  12.986  12.581 -0.3962 -0.1304  0.1806
26686W        W42580   8.764   2.563  13.905 -0.0025  0.1363 -0.0276
26687W        W42581   6.796  17.803   2.453  0.1163 -0.1205  0.3590
26688W        W42582   1.748   1.232   0.318 -0.0560  0.0011  0.0404
26689W        W42583  14.680   4.378  12.805  0.0181  0.1215 -0.1748
26690W        W42584   3.718   5.595  11.288 -0.0508 -0.0591 -0.0408
26691W        W42585   0.108   1.799   4.494 -0.2284 -0.0079 -0.1460
26692W        W42586  13.301   4.900   2.964  0.1241 -0.0805 -0.0466
26693W        W42587   4.564  13.021   3.445  0.4671 -0.3379  0.0895
26694W        W42588  13.566   0.446  10.176 -0.3423 -0.1227  0.2084
26695W        W42589  18.369   7.199  14.257 -0.0092  0.0382  0.1237
26696W        W42590   4.260  15.597  14.944 -0.3641 -0.1793 -0.1170
26697W        W42591  18.016  12.974   3.540 -0.1719 -0.0703 -0.4632
26698W        W42592   6.963  11.672   4.080 -0.1965  0.1365 -0.1561
26699W        W42593   6.706   1.949  13.219 -0.0949  0.1260 -0.2312
26700W        W42594  11.667  10.600   1.983  0.1078  0.1142  0.0421
26701W        W42595   0.643   2.734   2.592  0.1325  0.1858 -0.0347
26702W        W42596   6.564  14.451  12.438 -0.2079 -0.2007  0.1434
26703W        W42597   4.237   0.649  11.051  0.1112  0.2071 -0.0101
26704W        W42598   5.312  15.555  11.808  0.1894 -0.2315  0.3981
26705W        W42599   6.620  14.534  14.967  0.0901  0.0477 -0.0397
26706W        W42600  16.328  11.023   1.776 -0.2131 -0.1178 -0.0180
26707W        W42601   7.880   8.978  10.721  0.1595 -0.1309 -0.3848
26708W        W42602   1.459   9.414  11.724  0.3308  0.2519 -0.0637
26709W        W42603   6.673   6.365   2.547  0.2040  0.2305 -0.0049
26710W        W42604   5.006   8.242   1.551  0.2403  0.0053 -0.3423
26711W        W42605   5.872  10.912   2.840  0.3007  0.0959 -0.2436
26712W        W42606  15.873   6.639  15.202 -0.1294 -0.1083  0.3584
26713W        W42607   1.504  12.310   6.008  0.2017 -0.0469  0.3635
26714W        W42608   6.100   2.708  13.794 -0.4709 -0.0495 -0.2139
26715W        W42609  17.250   9.793  12.366 -0.0612  0.2767  0.2283
26716W        W42610   8.221   9.357   3.349 -0.1479 -0.0920 -0.0449
26717W        W42611  13.773  15.460   1.608  0.1400  0.1902  0.2224
26718W        W42612   5.426  10.937  13.532 -0.3303 -0.0530 -0.0343
26719W        W42613   5.652   3.537  12.390 -0.1130  0.0415  0.0685
26720W        W42614  16.469   3.822   0.029  0.1601 -0.1101 -0.0335
26721W        W42615   2.014  16.394  13.949 -0.1049  0.2218  0.1739
26722W        W42616   1.667  15.022  11.241  0.1775  0.2551 -0.0408
26723W        W42617   1.023  17.526  11.813  0.4222  0.2195  0.2074
26724W        W42618  18.228   2.310  14.665 -0.0965 -0.2780 -0.0411
26725W        W42619   2.860  16.081   0.703  0.0795  0.2708  0.1225
26726W        W42620   6.081   4.842  11.260  0.4265  0.0074  0.2703
26727W        W42621   6.985  16.813   5.002 -0.1948  0.0356  0.3001
26728W        W42622  16.197   0.678   4.910 -0.1990  0.2838 -0.2039
26729W        W42623  10.650   2.928   1.481  0.0259 -0.0099 -0.0025
26730W        W42624  14.158  17.416   1.869 -0.1041  0.0545 -0.2770
26731W        W42625  14.689   0.052   1.369 -0.1004 -0.2083 -0.3705
26732W        W42626   0.974  15.795   4.390 -0.3485 -0.1714  0.2568
26733W        W42627   9.404  15.457  13.938  0.2319  0.0774 -0.3035
26734W        W42628  14.219  17.857   2.132  0.0971 -0.2859  0.3426
26735W        W42629   7.594   8.644   1.373  0.0369  0.2946 -0.1208
26736W        W42630   8.883  15.130   4.180  0.0938  0.4052 -0.2473
26737W        W42631   2.612  17.477  10.057  0.0961  0.2261 -0.1212
26738W        W42632   4.661  18.672  12.198 -0.2349  0.3420 -0.0893
26739W        W42633   5.284   4.735   0.112  0.0163 -0.1778 -0.0055
26740W        W42634  12.131   6.588   0.200 -0.0962  0.1871 -0.1065
26741W        W42635   4.768  16.210  13.935 -0.0619  0.0722 -0.1870
26742W        W42636   5.925  10.720  12.215  0.2951 -0.1521  0.2453
26743W        W42637   9.501   9.247   0.156 -0.1194 -0.0351  0.0386
26744W        W42638   2.931   2.565  13.305  0.0285 -0.1319  0.1087
26745W        W42639   3.149   4.200   1.980 -0.0868 -0.2646  0.0731
26746W        W42640   4.176  11.372   3.523  0.0401  0.3049  0.0489
26747W        W42641  15.227  13.722   5.332  0.3294  0.3841 -0.0051
26748W        W42642   7.897   7.625  12.961  0.0903  0.0192 -0.2529
26749W        W42643   0.470   0.974   2.353 -0.0398 -0.0391 -0.3107
26750W        W42644   5.772  13.658  14.129  0.1829  0.3634 -0.1200
26751W        W42645  17.722   8.346  15.459 -0.0115  0.0555 -0.0802
26752W        W42646  17.175  10.325   3.239  0.2574 -0.3510  0.0134
26753W        W42647  11.859   2.319  11.696  0.1905 -0.1778 -0.3820
26754W        W42648   6.691   3.448   3.711 -0.0439 -0.0851 -0.0462
26755W        W42649  14.818   1.083   5.039 -0.0411 -0.0269 -0.0860
26756W        W42650  17.864  10.737  10.867  0.2294  0.4776  0.0997
26757W        W42651   8.512  11.546   5.447 -0.0768  0.0016 -0.1632
26758W        W42652  14.210  14.431   0.390  0.1606  0.0044  0.0451
26759W        W42653   1.442  12.661  14.408  0.4558 -0.0727 -0.2225
26760W        W42654  18.067  18.632  12.081  0.2755 -0.0563  0.1518
26761W        W42655   2.456   3.203  14.874  0.4224 -0.1488  0.1581
26762W        W42656  11.808  18.021   2.445  0.0965  0.1577  0.1104
26763W        W42657   6.615  10.554   3.284 -0.2109  0.2367  0.1602
26764W        W42658  10.271   8.182   3.194 -0.0268  0.1830  0.2901
26765W        W42659  15.931   9.890  11.987 -0.0990 -0.0592  0.0423
26766W        W42660  11.824  13.215   1.436  0.0190  0.2437 -0.2037
26767W        W42661  15.848   8.349   6.382  0.1149 -0.1061 -0.0938
26768W        W42662   8.485  12.264   4.205  0.3327  0.1970 -0.0753
26769W        W42663  10.888  14.959  11.498 -0.0507  0.1945 -0.1122
26770W        W42664  14.775  16.851   1.174 -0.1970 -0.0848  0.1471
26771W        W42665  17.282  14.651   3.075  0.1959  0.1401  0.0171
26772W        W42666   2.056  15.184   3.817  0.0226 -0.2362 -0.1353
26773W        W42667   9.974  17.569  13.130  0.1556  0.2205  0.1563
26774W        W42668   6.889   2.206  13.825  0.0019 -0.1810 -0.0473
26775W        W42669   0.462  17.643  12.185 -0.0854  0.3350  0.1290
26776W        W42670   7.961   7.455   1.353  0.0371  0.0996  0.3649
26777W        W42671  12.621   9.133   4.825 -0.1672  0.2332  0.1014
26778W        W42672  13.149   8.218   1.941 -0.0503  0.1695  0.2348
26779W        W42673   6.654   9.222  12.303  0.2159 -0.0898  0.1464
26780W        W42674  17.384  18.203   1.655  0.0731 -0.0628  0.3820
26781W        W42675   8.851   6.071   2.096 -0.1342 -0.1145  0.1043
26782W        W42676  12.321  11.165   0.256 -0.1872 -0.1640 -0.1556
26783W        W42677   0.624  11.251   4.600 -0.1734  0.0668 -0.1753
26784W        W42678  17.879   8.223   0.356  0.1041 -0.0718 -0.2144
26785W        W42679   3.996   1.423   2.162  0.1271 -0.0661  0.1089
26786W        W42680  13.230   3.016  11.272  0.1153  0.2401 -0.0520
26787W        W42681   6.548  14.721  13.311  0.0515 -0.1303  0.0312
26788W        W42682  16.801   7.656  12.628 -0.3499  0.1060 -0.2085
26789W        W42683  10.984   5.141   0.415 -0.1840 -0.1402  0.1999
26790W        W42684  18.328   1.556   1.511  0.1596  0.1112 -0.0934
26791W        W42685  17.009   1.039   0.815  0.0663 -0.0159  0.1605
26792W        W42686   4.365  15.683   1.294 -0.2005  0.2247  0.1975
26793W        W42687  18.417  17.294   4.797 -0.2239  0.1450  0.0761
26794W        W42688   5.161   6.264   0.781  0.0301  0.0480 -0.1885
26795W        W42689   0.632  17.707   1.347 -0.0828 -0.3065  0.2541
26796W        W42690   7.249   5.533  15.420 -0.0784 -0.0675  0.1618
26797W        W42691   3.843   4.758  12.817  0.2181  0.0883  0.1859
26798W        W42692   0.724   7.384   2.890  0.2022 -0.4696  0.1623
26799W        W42693   9.748   8.670   2.663 -0.1353 -0.0810 -0.0681
26800W        W42694  11.517   8.866  15.341  0.0205 -0.1288  0.0684
26801W        W42695   2.103   3.345   2.003 -0.0150  0.1696  0.3414
26802W        W42696  12.348  17.688  13.557 -0.1312  0.0369 -0.1956
26803W        W42697  16.849  10.483   4.976  0.0546 -0.1746 -0.2414
26804W        W42698  18.500   3.903  12.619  0.1551 -0.1414  0.0490
26805W        W42699  14.018   1.999  11.002  0.1264 -0.2603  0.1375
26806W        W42700  18.116   4.140  15.361 -0.3714 -0.0373 -0.0137
26807W        W42701  16.941   2.651  13.533  0.0139 -0.0702  0.2441
26808W        W42702  10.303  16.061   4.280 -0.0003  0.1134  0.4633
26809W        W42703  10.931   1.579  13.258 -0.2797 -0.1268  0.1676
26810W        W42704   4.218   1.371   1.619 -0.0315 -0.0496 -0.1443
26811W        W42705   9.936   2.201  13.848  0.4549 -0.2404  0.0264
26812W        W42706   4.571   9.427   1.744 -0.1514 -0.0584 -0.1388
26813W        W42707   8.186  18.513  14.531 -0.3048  0.0353 -0.2769
26814W        W42708   7.327   8.160   2.677 -0.0104 -0.0887 -0.4024
26815W        W42709   7.793  16.067   0.238  0.2484 -0.0215 -0.1145
26816W        W42710   4.796  17.130  13.195 -0.3985 -0.1323 -0.3025
26817W        W42711   4.490   2.236  12.697  0.0111  0.1209 -0.1713
26818W        W42712   7.993  15.816   0.638 -0.1413 -0.1573  0.3614
26819W        W42713  16.898  10.031   1.891  0.5175 -0.0201  0.2818
26820W        W42714   9.704  13.218   2.837  0.2607  0.1514  0.0060
26821W        W42715   5.791   1.247  13.883  0.0577 -0.0355 -0.2142
26822W        W42716   1.433  13.410   4.016 -0.2039 -0.0220 -0.0768
26823W        W42717   6.227   6.586   2.517 -0.0750 -0.0237 -0.0891
26824W        W42718  17.480  12.940   1.851  0.0307 -0.0511 -0.1129
26825W        W42719  14.291  16.311  12.726 -0.1254 -0.0729  0.1011
26826W        W42720  11.282  12.642  15.147 -0.0250 -0.0419  0.0852
26827W        W42721  18.530  15.708  14.604 -0.2560  0.2338 -0.2166
26828W        W42722   3.831   1.743   1.690  0.0653  0.0622  0.1521
26829W        W42723   6.425  10.498   3.778  0.0705 -0.0941  0.1004
26830W        W42724   5.878  17.831   2.083  0.4627 -0.1055  0.1325
26831W        W42725  17.309  13.285  14.710  0.2605  0.0340 -0.2839
26832W        W42726   5.596  16.477   3.200  0.0174  0.2282 -0.0737
26833W        W42727  17.196  16.110   3.756 -0.1285 -0.3737  0.2055
26834W        W42728   6.990   3.440  12.147  0.4767  0.2092  0.1429
26835W        W42729  17.827   1.553  14.573  0.2227  0.0345  0.0527
26836W        W42730  17.644  15.568  11.206 -0.1084 -0.3131 -0.1797
26837W        W42731   2.274   6.730   4.369  0.3819  0.0585  0.0178
26838W        W42732  17.616  16.885   3.281 -0.3284 -0.0012  0.0859
26839W        W42733   0.342   7.022   3.374 -0.1478 -0.0947  0.0305
26840W        W42734   3.902   7.407  15.272  0.1857 -0.3036 -0.4166
26841W        W42735  12.311   8.794   3.370 -0.0123 -0.1625 -0.0330
26842W        W42736  15.628   3.420   2.123  0.2507 -0.0385 -0.2734
26843W        W42737  11.380   1.148   1.002 -0.0713 -0.1040 -0.0550
26844W        W42738   6.596  17.448   5.020 -0.0678 -0.1011 -0.4089
26845W        W42739   5.535   0.118  11.965  0.1099  0.0363 -0.4452
26846W        W42740   5.121  14.178   0.104  0.0455  0.1475  0.5005
26847W        W42741   9.815   0.906  15.448 -0.1904  0.1637 -0.2227
26848W        W42742   9.660   5.029  11.071 -0.5980  0.1978 -0.1651
26849W        W42743   8.296  18.557  12.043  0.2495  0.0254 -0.1322
26850W        W42744  15.601   9.982  12.349 -0.0017 -0.2708 -0.2030
26851W        W42745   3.900  17.569   1.675 -0.1030 -0.0769 -0.0799
26852W        W42746  15.660   8.180   4.224 -0.1287  0.2839 -0.0640
26853W        W42747   1.997   4.491   0.897 -0.1152  0.1630 -0.0261
26854W        W42748   7.212  17.669   2.258 -0.1917  0.0667  0.2588
26855W        W42749  14.709  13.672  14.966 -0.4364 -0.0214  0.1183
26856W        W42750  12.320   5.912   3.529 -0.1913  0.2669  0.0792
26857W        W42751   1.476  13.295  14.023 -0.0820  0.0926 -0.3448
26858W        W42752   8.242   2.627   3.083  0.2214  0.0790 -0.2430
26859W        W42753  15.042   6.625  11.383 -0.1210  0.0153  0.0651
26860W        W42754   1.104  16.827  13.679  0.0230 -0.0395  0.3221
26861W        W42755   5.083  11.965   2.085  0.0048 -0.2630  0.1539
26862W        W42756  17.711   2.736  13.978  0.2119  0.3725 -0.0201
26863W        W42757   5.505  12.163  12.904 -0.2047 -0.0338  0.0110
26864W        W42758  14.059  11.944   0.681  0.0623 -0.0894 -0.1070
26865W        W42759   1.070  16.238   0.345 -0.4512 -0.2761 -0.0489
26866W        W42760  18.025   6.129   1.522 -0.0932 -0.1491  0.1454
26867W        W42761   7.094   0.017  10.650  0.0392 -0.1468 -0.0165
26868W        W42762   2.187   9.745   2.766  0.2333 -0.1578  0.1618
26869W        W42763  16.172   6.023   2.707  0.0042  0.2597  0.1969
26870W        W42764  10.537   8.539   3.998  0.0944  0.0995 -0.1910
26871W        W42765  14.269   9.530  13.856  0.1608 -0.2104  0.3292
26872W        W42766  12.771  14.667  10.833 -0.2625 -0.1461  0.3081
26873W        W42767   4.550   3.264  11.226  0.0796 -0.3144  0.0516
26874W        W42768   1.146  15.113   1.808  0.1228  0.0286  0.0890
26875W        W42769  10.157   9.957   0.673 -0.1801 -0.1666  0.1497
26876W        W42770   6.778  11.461   2.722  0.1219 -0.3214  0.0933
26877W        W42771   1.298  17.463  14.162 -0.1418 -0.3973  0.0556
26878W        W42772   7.573  12.182   0.233  0.0232 -0.0940  0.3154
26879W        W42773   6.422   9.504  12.843 -0.0116 -0.0291  0.0386
26880W        W42774  12.214   0.204  11.969 -0.1323  0.1546  0.0382
26881W        W42775   6.907  12.248   3.333 -0.2335  0.5406  0.0354
26882W        W42776   5.949   0.798  11.285 -0.1166  0.0474  0.1833
26883W        W42777   5.232  17.812  10.588  0.0237  0.0781  0.0271
26884W        W42778  11.582  18.195   4.020 -0.2100 -0.0257 -0.2578
26885W        W42779  17.821   3.030  12.061  0.2587  0.1044  0.0043
26886W        W42780   7.352   1.740   1.180  0.1740 -0.2663  0.0063
26887W        W42781  14.157  17.286  12.979  0.2608  0.0429 -0.2148
26888W        W42782   4.940  10.677   0.934 -0.1798  0.0088  0.3234
26889W        W42783   4.705   4.723   0.333  0.0047  0.0561  0.3126
26890W        W42784   3.160   4.082   3.797 -0.1921 -0.0394 -0.1686
26891W        W42785   4.917  10.971  14.727  0.0351 -0.1278 -0.0893
26892W        W42786  18.023   5.328   3.689  0.2118  0.0479  0.0080
26893W        W42787   1.633   6.238   2.714 -0.0192  0.1192  0.0803
26894W        W42788  14.877   6.089   3.488 -0.3030 -0.1005 -0.2548
26895W        W42789   6.893   5.466  11.025 -0.0791 -0.0882  0.1862
26896W        W42790   9.797  10.832  12.118  0.0185  0.1287 -0.1371
26897W        W42791   1.802  16.581   1.752 -0.0929 -0.1902 -0.0165
26898W        W42792   1.304  17.448   3.737  0.3636  0.1440 -0.0248
26899W        W42793  11.004   1.855  11.318 -0.1864  0.3806  0.3620
26900W        W42794   1.228   8.013  15.281 -0.2899  0.1196  0.0393
26901W        W42795  13.788   4.851   2.132  0.1104  0.2410 -0.1362
26902W        W42796  14.972  12.149   5.624  0.0989 -0.0130 -0.4474
26903W        W42797   7.087   1.723   2.893 -0.0305 -0.1465  0.0527
26904W        W42798   8.060   7.468  11.084 -0.1272  0.3811 -0.4343
26905W        W42799   2.782  11.187   2.851 -0.0175  0.0512  0.0219
26906W        W42800  12.447   1.240   0.758 -0.0753 -0.1032  0.0528
26907W        W42801  16.040   6.413  11.476 -0.0191  0.1321 -0.4083
26908W        W42802   3.073  18.236  14.459  0.1264  0.1384  0.0079
26909W        W42803   6.331  16.129  11.638 -0.1676 -0.0309  0.1338
26910W        W42804   7.724  17.668  14.059  0.0221  0.1186  0.0042
26911W        W42805  11.797   0.547   0.412  0.2778 -0.0041  0.0622
26912W        W42806  17.470  13.880  12.364  0.1728  0.1388  0.3453
26913W        W42807  16.364  17.104  12.551 -0.1257  0.0054 -0.3358
26914W        W42808   3.904   7.595   0.217  0.4585  0.1656 -0.0559
26915W        W42809  13.490  14.772  13.633  0.0465 -0.2493  0.0941
26916W        W42810  13.045   3.592  13.702  0.1051  0.1591 -0.0241
26917W        W42811  16.218   2.102   0.052 -0.2294 -0.1809  0.1377
26918W        W42812  14.722   9.229   5.658 -0.1384 -0.1874 -0.0797
26919W        W42813   5.782  11.144   3.269  0.1251  0.2429  0.0785
26920W        W42814   6.236   5.379   5.658 -0.2998  0.0358  0.0442
26921W        W42815  16.561   7.557  10.350 -0.1313  0.1351  0.1673
26922W        W42816  13.368  14.965   2.832  0.1989 -0.2480 -0.0914
26923W        W42817   9.442   4.019  10.677 -0.0328  0.0801  0.1336
26924W        W42818   7.771  13.030   3.894 -0.1001  0.2165  0.1197
26925W        W42819  16.563  18.220  13.140 -0.3997  0.0898  0.2062
26926W        W42820   9.788  14.492   5.013 -0.1361 -0.0580  0.2953
26927W        W42821   1.990  10.064   4.262 -0.1954  0.2843  0.0301
26928W        W42822  18.720  15.527  11.878 -0.0518  0.1633  0.1464
26929W        W42823  17.930   9.036   1.618 -0.0539 -0.2457  0.1927
26930W        W42824   6.673  18.346  15.542  0.0216  0.2855 -0.0174
26931W        W42825  15.025  12.045   4.262  0.1129  0.2089  0.0407
26932W        W42826   8.859   2.739  11.372  0.0679 -0.0836 -0.0620
26933W        W42827  14.054   7.215  13.739 -0.3509 -0.0453  0.1227
26934W        W42828  12.396  12.826  14.490 -0.0769  0.2579 -0.1215
26935W        W42829  16.514  17.095  12.069  0.3232 -0.1051  0.0781
26936W        W42830  11.753   4.834  12.472 -0.1297  0.3669 -0.2454
26937W        W42831  15.357  11.589   2.528 -0.0760 -0.1594  0.1301
26938W        W42832  17.054  11.236   2.343 -0.1297 -0.0443  0.2415
26939W        W42833   0.596   1.044  11.368 -0.3859 -0.1682  0.4291
26940W        W42834   6.337   6.946   4.671  0.3642  0.1157 -0.0295
26941W        W42835   3.050   0.397   0.633  0.0894  0.1154 -0.3009
26942W        W42836  11.928   1.407   0.064  0.2319 -0.2505  0.2375
26943W        W42837  13.823  17.130  12.651  0.2420 -0.0973 -0.2119
26944W        W42838  11.956  11.954   0.667 -0.1458 -0.0957  0.0193
26945W        W42839   6.728   7.360   2.872 -0.1223 -0.2963 -0.3267
26946W        W42840  16.383  10.213   5.052  0.0306  0.3435 -0.1712
26947W        W42841   7.161   4.205   1.299  0.0827  0.1783 -0.0356
26948W        W42842   8.138   6.679  11.654  0.2971  0.1436  0.3077
26949W        W42843   0.151  11.822  11.807  0.1217 -0.1084 -0.1086
26950W        W42844   2.764  12.750  11.154 -0.1228  0.0192 -0.4594
26951W        W42845   1.356  17.716  12.391  0.1229  0.2034 -0.0336
26952W        W42846   8.326  13.557  14.666 -0.2982 -0.1712 -0.0668
26953W        W42847   2.908   5.993   2.897 -0.2786 -0.1597 -0.1563
26954W        W42848  13.892  17.661   3.661  0.1867 -0.3560  0.2284
26955W        W42849  14.767  12.600   5.456  0.2844 -0.3390 -0.1360
26956W        W42850   2.985   5.627   0.608  0.3748  0.0500 -0.0857
26957W        W42851  16.319  12.711   2.958  0.2577  0.4095 -0.1095
26958W        W42852  10.939  12.476   5.568 -0.1765 -0.2362  0.0020
26959W        W42853   1.602   1.599  13.712  0.1924  0.0846 -0.2338
26960W        W42854  13.326   5.278  14.383 -0.0559  0.1699  0.0426
26961W        W42855   7.248   6.051   5.419  0.0491 -0.0277  0.0792
26962W        W42856   9.237  14.890  15.359  0.2366  0.0898  0.0270
26963W        W42857  14.589  18.248  12.318 -0.0127  0.0543  0.0310
26964W        W42858  18.069  12.436  15.573 -0.1614 -0.2411  0.3703
26965W        W42859   6.273   5.495   0.294  0.0530  0.0293 -0.2547
26966W        W42860  14.590  10.591   5.141  0.1086  0.0455 -0.1887
26967W        W42861   1.150  12.851   0.750 -0.4184  0.0541 -0.0589
26968W        W42862  18.200  10.777  11.817  0.0870  0.1925 -0.0796
26969W        W42863  11.395  12.003   4.777 -0.0972  0.3488 -0.0624
26970W        W42864  18.018  11.801   0.861  0.1715 -0.0235 -0.4706
26971W        W42865  15.539   0.668  13.902  0.1159 -0.1676  0.0273
26972W        W42866   9.904  13.637   3.299  0.1596 -0.1503  0.1099
26973W        W42867   9.506  13.449  10.709 -0.1574 -0.2229  0.2119
26974W        W42868   5.469   0.772  12.384 -0.0678  0.1201  0.2534
26975W        W42869   8.474  10.587  11.637 -0.3406 -0.2668 -0.0138
26976W        W42870   9.257   6.833  11.558  0.1393 -0.2073 -0.0625
26977W        W42871  16.331   8.558  15.406 -0.1070 -0.2336  0.0567
26978W        W42872   0.870  17.222   9.684 -0.1631 -0.0545 -0.3584
26979W        W42873   7.348   7.371  14.582  0.1763 -0.0512 -0.3769
26980W        W42874   7.259  14.322   0.127  0.3124  0.0725 -0.0132
26981W        W42875   1.002  11.460   4.259  0.1349 -0.1505 -0.3802
26982W        W42876  16.384  15.373   0.836  0.0775 -0.1832  0.0020
26983W        W42877  11.448   8.071   5.561 -0.1381  0.2148 -0.1252
26984W        W42878   6.967  13.234  12.451  0.0651 -0.0721 -0.0356
26985W        W42879  11.198   1.747   3.844  0.1437 -0.2084  0.2032
26986W        W42880  12.943  14.081  14.277  0.3289 -0.0889 -0.0719
26987W        W42881   2.054   5.181   4.747 -0.1066  0.0493  0.3853
26988W        W42882  13.435   5.869   3.216 -0.2303 -0.0843 -0.1916
26989W        W42883  12.485  17.215  11.628  0.1287  0.4424 -0.0008
26990W        W42884  17.163  11.687  12.601 -0.3361  0.0426  0.1813
26991W        W42885   5.447   9.577  13.939 -0.2185 -0.1393 -0.1329
26992W        W42886   8.458   7.400   5.220  0.0893  0.2542 -0.2597
26993W        W42887  15.862   5.168   5.256 -0.1853 -0.1597 -0.0916
26994W        W42888  18.012   4.923  14.941 -0.0483 -0.1547 -0.0553
26995W        W42889   7.367   2.160  12.368  0.3467  0.0155  0.0854
26996W        W42890  18.351   0.233  12.385  0.0230 -0.1126 -0.2001
26997W        W42891   4.055  18.050   1.912  0.0634  0.5423  0.1872
26998W        W42892   7.490  12.620  13.618  0.1364  0.0983 -0.1409
26999W        W42893  11.786   8.428   5.372 -0.2352  0.2691 -0.0194
27000W        W42894  15.165   9.479   5.487  0.3494  0.0119  0.0432
27001W        W42895   1.747  18.037   1.587 -0.0858  0.1037  0.1760
27002W        W42896   0.489  16.060   3.335  0.0132 -0.0042 -0.1805
27003W        W42897  13.315   6.962   1.660 -0.3787  0.1670  0.1630
27004W        W42898   7.211   6.935   4.872 -0.0488 -0.4046  0.0989
27005W        W42899  15.349   2.463   3.597 -0.0406 -0.2000  0.1372
27006W        W42900  10.703  13.969   5.316  0.0226 -0.1508  0.0614
27007W        W42901  11.212  14.681   1.683 -0.0063  0.2421  0.2493
27008W        W42902   9.018  12.965  10.909  0.2310 -0.1681  0.0871
27009W        W42903   0.300   6.036   3.610 -0.1860 -0.2216  0.1436
27010W        W42904  17.629  17.011   1.038 -0.2349  0.3854  0.4007
27011W        W42905  15.517   0.891  11.153  0.3127  0.1247  0.2480
27012W        W42906  18.226  14.664   0.682 -0.2658  0.0655 -0.1116
27013W        W42907  18.271   3.051  15.189  0.4929 -0.0237  0.1163
27014W        W42908  18.195   6.374  14.807  0.0282 -0.0623 -0.0037
27015W        W42909  16.887   9.233  10.832  0.2792  0.0372  0.2548
27016W        W42910  10.156   5.759  14.782  0.3011  0.0249  0.0487
27017W        W42911  12.043   0.389   3.059 -0.0462  0.0498 -0.0530
27018W        W42912  11.916  16.543   0.760  0.1125  0.2662 -0.1711
27019W        W42913   5.672   1.896  10.600  0.1860 -0.3553  0.0311
27020W        W42914   5.250   5.410   3.209  0.0967 -0.4994 -0.2789
27021W        W42915  17.683  13.720  14.892  0.2486  0.2713 -0.0017
27022W        W42916   6.117  14.612  12.312 -0.1198  0.0004  0.0775
27023W        W42917  14.357   2.301  14.806 -0.3716 -0.0147  0.2529
27024W        W42918   2.645   4.156  11.507 -0.2911 -0.2321 -0.0183
27025W        W42919   7.001   8.954   6.194  0.1704  0.2709 -0.0214
27026W        W42920   2.207   3.911  13.406 -0.0528  0.0301 -0.0186
27027W        W42921  11.093   6.972  12.750 -0.2081  0.1930 -0.4017
27028W        W42922  12.623   5.117   5.287 -0.0651 -0.0325 -0.0740
27029W        W42923   2.985   6.634   3.673 -0.0497  0.2661  0.0412
27030W        W42924   6.652   8.995  11.371  0.0467 -0.1149 -0.2707
27031W        W42925   3.559  14.759  14.051 -0.5227  0.1014  0.0061
27032W        W42926  16.916   6.242  13.456 -0.1776  0.2695 -0.1308
27033W        W42927   9.689   8.347  14.756  0.2315  0.0945  0.0817
27034W        W42928   9.500   0.420   4.014  0.4358 -0.1379 -0.1403
27035W        W42929   2.317  18.565  10.895 -0.1309  0.2303 -0.2297
27036W        W42930  16.122  12.408   1.736  0.1331  0.0317 -0.1025
27037W        W42931  17.167  16.498   4.185 -0.0571  0.0324 -0.1236
27038W        W42932  18.226   3.175  14.750 -0.1837  0.1299  0.0509
27039W        W42933   3.319  10.274  14.922 -0.0572 -0.0857  0.0578
27040W        W42934  18.480   1.540   3.736  0.0657  0.1681  0.2322
27041W        W42935  11.880   6.616   1.889 -0.1158 -0.1511 -0.0417
27042W        W42936  18.574   0.272   2.728 -0.0813 -0.0223 -0.0401
27043W        W42937  14.483   4.403   2.929 -0.2521  0.1670 -0.0216
27044W        W42938  11.422  18.364   1.000 -0.0146  0.0419 -0.0565
27045W        W42939   1.635   3.223  13.396 -0.0488  0.1523 -0.3084
27046W        W42940   6.962  11.331   3.703 -0.1332  0.0317  0.0953
27047W        W42941  15.239   9.860  12.011  0.2089 -0.3258  0.0495
27048W        W42942   8.624  10.167  15.054 -0.3397  0.1093  0.0841
27049W        W42943  14.686   0.711  15.104 -0.1788 -0.2743  0.0222
27050W        W42944  13.981   5.264   1.284  0.0470  0.1063 -0.0166
27051W        W42945  17.907  11.812   5.264  0.1112 -0.0663  0.1560
27052W        W42946   4.293   8.851  15.585  0.1322 -0.4803  0.1985
27053W        W42947  13.975   1.312   1.913  0.2015  0.2299  0.0993
27054W        W42948   7.285   0.274  11.139  0.2197 -0.0208  0.1319
27055W        W42949   6.805   8.103  15.228 -0.0218 -0.0231 -0.1508
27056W        W42950   5.706  12.120  14.800  0.1030 -0.0424  0.2886
27057W        W42951   1.793   4.881   0.574  0.3609 -0.2313 -0.1897
27058W        W42952  12.930  12.606   0.202 -0.1746 -0.1239 -0.3940
27059W        W42953   2.620   9.927  13.129  0.1764  0.1921 -0.0429
27060W        W42954  14.671   5.395  11.759  0.1637  0.0524  0.0654
27061W        W42955   3.965  18.608  14.796 -0.2539  0.0022 -0.0378
27062W        W42956   2.331   6.457   0.562  0.0422  0.2100 -0.0798
27063W        W42957   8.749  17.936  13.860 -0.3156 -0.1572 -0.0728
27064W        W42958  11.735   8.277  11.652  0.2130  0.0624  0.0334
27065W        W42959   7.949  13.407   4.757  0.1226 -0.0503 -0.0516
27066W        W42960   3.422  10.958   3.551 -0.0076 -0.0209  0.0163
27067W        W42961  10.232   1.657  14.406 -0.0242  0.3036 -0.0658
27068W        W42962   7.652   5.263  15.567  0.2991  0.0903  0.0960
27069W        W42963  16.296   5.411  10.828  0.1052  0.2221 -0.1279
27070W        W42964   3.246   0.501   4.390  0.0958  0.2169 -0.0854
27071W        W42965  14.626   9.902   1.721 -0.4176  0.2334  0.1552
27072W        W42966  14.661  11.011   4.959 -0.3183  0.0736  0.1166
27073W        W42967  10.804  18.282  10.942  0.0616  0.1470  0.0239
27074W        W42968   8.040  11.428  11.308  0.0190 -0.2053 -0.0882
27075W        W42969  14.093  10.587   1.218 -0.3985 -0.0764 -0.1689
27076W        W42970   3.248   4.341   2.492  0.0402 -0.2289  0.0694
27077W        W42971  18.319  10.520   2.295  0.3521  0.1367  0.0298
27078W        W42972  17.300  11.610  13.107 -0.1676 -0.2693 -0.0807
27079W        W42973  15.813   9.021   3.827  0.2713  0.1509  0.3405
27080W        W42974  17.336  17.018  13.586 -0.0229  0.1117  0.0320
27081W        W42975  13.021  10.698   2.801  0.1759  0.4674 -0.0596
27082W        W42976  17.327  16.557   0.353 -0.0118  0.2020  0.0130
27083W        W42977  16.935  17.755   2.870 -0.1266 -0.0035  0.2861
27084W        W42978  17.196  10.818  15.241 -0.0763 -0.0757 -0.1479
27085W        W42979   4.766  13.420  12.458 -0.1314 -0.0586  0.0251
27086W        W42980  15.770   4.532   4.452 -0.0867 -0.4241  0.2389
27087W        W42981  12.845   7.693  10.432  0.0676 -0.1291  0.2063
27088W        W42982   2.911   4.094   4.693  0.4007 -0.2431 -0.0890
27089W        W42983  18.437   8.977   1.783  0.0556  0.1969  0.0492
27090W        W42984   5.757  12.831  15.295 -0.1326  0.1979 -0.1336
27091W        W42985  12.924   7.229   0.565  0.1441 -0.0915  0.0874
27092W        W42986   8.399   3.824   3.744 -0.2329 -0.0585 -0.3960
27093W        W42987  14.122  12.287  12.874 -0.1328 -0.1022 -0.1590
27094W        W42988  18.600   7.145  14.729  0.2276 -0.0588 -0.1947
27095W        W42989   7.102   8.769  12.757 -0.1291  0.2660 -0.2294
27096W        W42990  12.765  13.892  12.144  0.0595  0.1759  0.0538
27097W        W42991   8.555  17.705   3.083 -0.5134 -0.2343  0.1716
27098W        W42992   7.997  17.809  14.689 -0.1510  0.2096 -0.0464
27099W        W42993  16.633   6.519  14.733 -0.3342  0.0653  0.2613
27100W        W42994  12.228   8.045   4.397 -0.0056  0.0315  0.1055
27101W        W42995  10.495  18.065  10.615  0.0262  0.4405 -0.1076
27102W        W42996   7.499  10.880   3.019  0.0960 -0.1658 -0.1590
27103W        W42997   6.159  15.038   0.765 -0.0860  0.1637  0.1293
27104W        W42998  13.097   3.766   5.325 -0.1546  0.0346 -0.1381
27105W        W42999   2.445  13.476  13.153  0.1810  0.0905 -0.1937
27106W        W43000  12.396   0.497   0.414 -0.0959 -0.1821 -0.0635
27107W        W43001   1.894  16.835  15.085 -0.1144 -0.0876 -0.2116
27108W        W43002  15.256   1.865   5.838  0.3653  0.0082 -0.2537
27109W        W43003  14.281  15.309   3.776 -0.1914 -0.0682  0.2216
27110W        W43004   1.645  10.863   0.148  0.1168 -0.2627  0.4249
27111W        W43005  15.634  11.319   6.524 -0.0754 -0.1392  0.1127
27112W        W43006   8.924   6.187  11.872 -0.1168  0.1228 -0.0421
27113W        W43007   2.964   6.938  12.901  0.1738 -0.0988  0.4431
27114W        W43008   4.361  11.437   1.989 -0.0011 -0.0074  0.0015
27115W        W43009  17.763  17.778   4.367 -0.1852  0.1227  0.0962
27116W        W43010  13.599   4.476  12.510  0.0787  0.0389 -0.0164
27117W        W43011  12.069   4.158   3.424  0.0199  0.1553  0.2499
27118W        W43012   7.463  11.758  13.678 -0.2347 -0.1877 -0.0191
27119W        W43013   3.958  12.979   3.674 -0.2171  0.4085  0.0407
27120W        W43014   8.507   5.993   4.246 -0.2025  0.0797  0.0797
27121W        W43015   1.536   2.239  13.492 -0.2075  0.0395  0.0877
27122W        W43016   8.293  10.097   3.660  0.0101 -0.0114  0.3294
27123W        W43017   6.890  17.604   4.448 -0.1566  0.1147 -0.0306
27124W        W43018  10.397   5.978   0.608 -0.0888 -0.2778 -0.3219
27125W        W43019  14.524  18.409  11.048  0.0075 -0.2067 -0.1161
27126W        W43020  11.537   9.729   0.295  0.2527  0.1400  0.0630
27127W        W43021  12.019  11.370   3.423  0.2196 -0.1672  0.1713
27128W        W43022   4.578   9.256   0.671  0.0634 -0.2815  0.1672
27129W        W43023  10.241  12.430  15.055  0.0731 -0.1884 -0.1923
27130W        W43024  13.539  18.078   4.843 -0.1647 -0.0313  0.1190
27131W        W43025  18.022   9.479  11.858  0.2443  0.1830 -0.1904
27132W        W43026   3.944  13.260  15.443  0.1052  0.1982  0.2728
27133W        W43027   8.446  18.455   3.783  0.0047  0.2624 -0.1475
27134W        W43028   1.000   4.188  11.684  0.1219 -0.1660  0.0264
27135W        W43029  16.653   3.352  15.226 -0.0725 -0.3062  0.1569
27136W        W43030  15.798   5.810   0.295  0.1634  0.0491 -0.0871
27137W        W43031   7.695  12.980   2.132  0.2858 -0.1373  0.1123
27138W        W43032  14.325   4.884   2.883  0.2491 -0.1547 -0.2794
27139W        W43033  11.415   8.035   1.388 -0.1165 -0.0360  0.4310
27140W        W43034   5.630   1.577   0.034 -0.2765 -0.1308 -0.1239
27141W        W43035   3.798   1.524  12.056  0.3552 -0.0992 -0.1687
27142W        W43036   1.779   7.243   0.472  0.0883  0.4586 -0.0336
27143W        W43037  13.711  13.313   3.029 -0.0516 -0.1777  0.0411
27144W        W43038   1.054   1.037  12.307 -0.2780  0.0504  0.1153
27145W        W43039  14.206   4.593  14.152 -0.0928 -0.0037  0.1596
27146W        W43040   0.431   5.945  11.796  0.1374 -0.0343 -0.1834
27147W        W43041  10.188  11.512   5.127  0.3121 -0.1378  0.2627
27148W        W43042  13.597   5.734   2.069  0.0474 -0.1206  0.4517
27149W        W43043   9.462   2.714  15.531 -0.3260  0.0026 -0.2077
27150W        W43044  17.998   7.590  11.993  0.3205 -0.0593  0.1332
27151W        W43045   6.579  16.417  13.531  0.0502 -0.2816  0.0875
27152W        W43046   7.651  10.563  14.564 -0.3693  0.1129  0.0647
27153W        W43047   3.856   3.778  12.966  0.0233  0.2652  0.1188
27154W        W43048  11.454  17.514  11.277 -0.2003  0.0828 -0.0889
27155W        W43049  18.041   0.740  14.955  0.2043 -0.2398  0.2262
27156W        W43050   7.057  11.403   0.584  0.2052 -0.0176 -0.2653
27157W        W43051  17.172  11.431   4.311 -0.4511  0.0407 -0.0957
27158W        W43052  14.302  14.488   5.817 -0.1464  0.0877 -0.2698
27159W        W43053  14.338  10.645   0.486 -0.1219  0.1582  0.0170
27160W        W43054   0.902  14.152  10.946  0.2631 -0.0730  0.3564
27161W        W43055  13.830   1.675   2.473  0.0850 -0.0701  0.1065
27162W        W43056  10.141  13.924   2.670  0.0403 -0.0930 -0.1341
27163W        W43057   9.445  11.328   4.599  0.3102  0.0848  0.3039
27164W        W43058  16.133  14.671   4.009 -0.2002 -0.3082 -0.0374
27165W        W43059   0.615   3.712  14.270  0.1905  0.0182  0.1689
27166W        W43060  12.860  10.015   4.985 -0.2130  0.0177 -0.0492
27167W        W43061   6.677   2.496   3.767  0.2318 -0.2300 -0.2504
27168W        W43062   9.420   9.491   1.037  0.0617 -0.1716  0.0505
27169W        W43063  16.597   5.144   3.128  0.0733  0.0231  0.1544
27170W        W43064   8.981  18.070   0.295  0.0262 -0.4116 -0.0142
27171W        W43065  12.039  12.089   4.001  0.2562 -0.0290 -0.0309
27172W        W43066  13.477   8.867  15.349 -0.2230  0.3120 -0.3983
27173W        W43067  13.031   1.082  13.924  0.2639  0.0136 -0.2518
27174W        W43068  15.659   8.699  14.688 -0.0731 -0.4317 -0.0816
27175W        W43069  10.347  18.022   0.655  0.0692  0.6611 -0.0191
27176W        W43070  11.043   0.597  12.217  0.0644 -0.1021 -0.3234
27177W        W43071   2.664   1.576  14.323  0.2491  0.2701  0.4948
27178W        W43072  10.283   9.894  10.742  0.3204 -0.2357  0.0390
27179W        W43073   9.741   4.529  12.651 -0.1795  0.1942 -0.1881
27180W        W43074   2.092  16.546   2.350 -0.4398  0.1326 -0.1308
27181W        W43075  17.515   3.461  11.710  0.1351 -0.1435 -0.0077
27182W        W43076   4.146   5.639   1.340 -0.0896  0.1685 -0.1745
27183W        W43077  14.401  12.663   5.844 -0.2022  0.0141 -0.2428
27184W        W43078   8.252  15.036  11.047 -0.2973 -0.1047 -0.2632
27185W        W43079   3.022  15.445  15.524  0.3021  0.1318  0.1647
27186W        W43080  13.411   5.811  14.675  0.0643  0.0456 -0.0048
27187W        W43081   9.265   0.937   4.968  0.1382  0.1818  0.3248
27188W        W43082   4.541   4.064  15.233  0.3738 -0.2437  0.2748
27189W        W43083   2.967  15.047   0.282  0.1185  0.1189  0.0878
27190W        W43084  16.048  15.898   1.371  0.3014  0.0414  0.2892
27191W        W43085   0.441  13.985   4.286 -0.0556 -0.2869 -0.1382
27192W        W43086  18.517  14.345   2.907  0.1070 -0.2198  0.2580
27193W        W43087  11.742  16.141  11.358 -0.0508  0.0782  0.1666
27194W        W43088   5.241  14.439   3.289 -0.3722 -0.2202 -0.3663
27195W        W43089  17.554  10.864  11.864 -0.1072  0.1237 -0.0831
27196W        W43090   2.879  13.116  10.274 -0.0236  0.2526  0.0919
27197W        W43091   3.787   1.058   2.402 -0.0895  0.1352 -0.1702
27198W        W43092   8.635   7.862  13.173  0.0668 -0.1903 -0.3747
27199W        W43093   9.397   6.697   1.716 -0.0697  0.0838 -0.0999
27200W        W43094   0.443   8.680   0.267 -0.0050 -0.0194 -0.0715
27201W        W43095  17.638  17.578  12.041 -0.0800  0.1602  0.1253
27202W        W43096  12.155   8.027   1.179  0.0427 -0.1066 -0.1963
27203W        W43097   9.271  17.117   1.853  0.0551 -0.0927  0.0077
27204W        W43098   0.328   1.365   2.700 -0.0307 -0.2335  0.4687
27205W        W43099   3.571  16.772   1.620  0.3659 -0.3507  0.1712
27206W        W43100   6.907  11.651  11.578 -0.1271 -0.1048  0.1127
27207W        W43101   5.921  17.608   0.350  0.0910 -0.4921  0.0312
27208W        W43102   1.593  10.680  13.730 -0.1115 -0.2793 -0.3028
27209W        W43103   4.877   1.616   1.016 -0.3115 -0.0183  0.3706
27210W        W43104  12.084   3.521  14.867  0.1110 -0.5666 -0.1946
27211W        W43105  13.951  17.472  13.783  0.2300 -0.0987 -0.1130
27212W        W43106  10.506   6.862   2.872 -0.2795 -0.2343 -0.2810
27213W        W43107   8.533  11.265   4.484 -0.3730  0.0527 -0.2299
27214W        W43108  11.325   7.070  11.643 -0.5948 -0.2647  0.0434
27215W        W43109  11.160  12.152  13.906 -0.1364 -0.1851  0.2890
27216W        W43110   9.934   1.955   4.468 -0.0422 -0.1076  0.1009
27217W        W43111   5.490  15.584   2.815 -0.2362 -0.0194  0.0254
27218W        W43112   4.117   5.313  11.332  0.1566  0.1635  0.2411
27219W        W43113   1.360  13.101   3.128 -0.3514 -0.2293 -0.2168
27220W        W43114  14.739   1.411   1.416  0.0066  0.1275  0.1628
27221W        W43115  12.525  12.553  12.651  0.1904  0.1415  0.2365
27222W        W43116  11.792   8.773  14.937  0.0960 -0.1020 -0.0633
27223W        W43117  17.509  15.590   4.547 -0.0859 -0.2337 -0.0832
27224W        W43118  17.218   1.416  11.315 -0.3564  0.1871  0.1339
27225W        W43119  16.090   2.878   3.516 -0.0467 -0.1622 -0.1894
27226W        W43120   3.760  12.738  12.207  0.0896  0.0686 -0.0488
27227W        W43121   0.787  17.280   4.514 -0.0107  0.1352 -0.1463
27228W        W43122   3.618   4.004   4.017 -0.1153  0.1635 -0.0729
27229W        W43123  16.323  14.024   5.677 -0.0719 -0.2876 -0.2597
27230W        W43124   9.605  13.013   2.310 -0.1191 -0.2267  0.1376
27231W        W43125   8.158  12.509  14.432 -0.0447  0.1771 -0.0899
27232W        W43126   8.369   4.409  11.696 -0.0982 -0.3402  0.2624
27233W        W43127   3.749  14.235   1.235 -0.3339 -0.2529 -0.0947
27234W        W43128   0.152   7.983   4.279 -0.1752  0.0508 -0.1118
27235W        W43129   2.211   5.439  12.449 -0.0326 -0.0191  0.0378
27236W        W43130  14.584  11.332   3.835 -0.0817 -0.0062 -0.1855
27237W        W43131  16.254   4.305   3.444  0.1626  0.0009 -0.0504
27238W        W43132  16.552  10.292   4.625 -0.3676 -0.2895 -0.0105
27239W        W43133  14.806   0.918  14.668 -0.0030 -0.1094 -0.2303
27240W        W43134   5.840   4.756   1.289  0.2663  0.0491  0.0357
27241W        W43135   9.469  14.446  14.368 -0.2762  0.4039 -0.1164
27242W        W43136  11.541  18.127  15.550 -0.3336  0.0213  0.3399
27243W        W43137   1.850   5.996   2.350 -0.1440  0.1372 -0.0967
27244W        W43138   6.754  14.926   0.766 -0.0189  0.1491  0.3097
27245W        W43139  14.096   0.911   3.625  0.1492 -0.0680  0.1121
27246W        W43140  16.357  14.265   3.869 -0.1393  0.2779 -0.0615
27247W        W43141   3.021  13.811   1.588  0.0531  0.2291 -0.0421
27248W        W43142  17.936  11.443  12.495  0.1341 -0.2160  0.0347
27249W        W43143  16.542  18.457  12.083 -0.2598  0.3549  0.0300
27250W        W43144  17.803   1.091  12.730  0.0634 -0.2659 -0.0073
27251W        W43145   3.808  10.881  10.964  0.0266  0.2493 -0.1257
27252W        W43146  17.097   5.013  13.196  0.0948 -0.4614  0.4990
27253W        W43147   4.008  11.285  10.785 -0.0253  0.0333 -0.2019
27254W        W43148   0.679   2.806  12.690 -0.1403 -0.1575  0.0701
27255W        W43149   9.422   6.025  14.089  0.4187  0.3696 -0.2286
27256W        W43150   7.710   2.806   3.155  0.0393 -0.1053  0.1020
27257W        W43151   4.339  16.845  11.757  0.1705  0.0337 -0.0441
27258W        W43152  14.647   3.832  11.371  0.2932  0.3221 -0.6639
27259W        W43153   3.968  13.732  13.181  0.1567 -0.0349  0.0394
27260W        W43154   5.137   6.587   2.431  0.5506  0.3878 -0.3794
27261W        W43155   7.451   5.093   3.664  0.1215 -0.0285  0.4074
27262W        W43156   9.735   3.586   5.363  0.1645 -0.0793 -0.0751
27263W        W43157  13.847  17.192   3.129 -0.2830 -0.3521 -0.0157
27264W        W43158   9.261   6.503  13.271  0.3595  0.0498  0.1152
27265W        W43159  18.518   8.501  12.242 -0.0703  0.1758 -0.3072
27266W        W43160  14.473   1.773  13.140 -0.1385 -0.3840 -0.2835
27267W        W43161  14.279  11.607   1.053 -0.1447 -0.0386  0.0405
27268W        W43162   6.725  17.237  15.616  0.2341 -0.1754 -0.2267
27269W        W43163   6.076   9.111   1.586 -0.0618 -0.2758  0.0421
27270W        W43164  16.256  10.487   1.597 -0.2814  0.0988  0.3385
27271W        W43165   8.116  12.978   3.549  0.0884 -0.1026 -0.0537
27272W        W43166  15.937  11.130   0.706  0.0378  0.0966  0.1451
27273W        W43167   1.629  14.189   2.133 -0.0360 -0.0274 -0.1777
27274W        W43168   0.788   6.468   1.688 -0.0138  0.1549  0.2853
27275W        W43169   8.925  14.503  15.334 -0.1263 -0.1798 -0.0787
27276W        W43170  18.345   5.738  13.711 -0.1647 -0.0044 -0.1367
27277W        W43171   2.755   7.005   2.851 -0.1252  0.0996  0.0479
27278W        W43172   1.660  16.878   2.458  0.2460 -0.0454  0.0897
27279W        W43173  14.581   1.963   2.183  0.1636 -0.1982  0.3814
27280W        W43174  13.352   4.679   0.593 -0.3251 -0.3147  0.0410
27281W        W43175  11.157   8.589   1.439  0.2141 -0.1543  0.0363
27282W        W43176   7.611  17.279  11.264 -0.0901  0.0068 -0.1153
27283W        W43177   0.882   8.787   3.465 -0.2184  0.0366 -0.0361
27284W        W43178  16.815  10.309  12.955 -0.1860  0.2515  0.0276
27285W        W43179   4.769  12.859   3.890 -0.1399 -0.1764  0.2032
27286W        W43180   3.632   8.950   3.768 -0.1431 -0.0765 -0.1814
27287W        W43181   9.608  16.732   5.260  0.1545 -0.0467 -0.1646
27288W        W43182  10.174   1.369   5.356  0.0508  0.1528  0.2478
27289W        W43183  17.381  15.056  13.068  0.1055  0.0887  0.0147
27290W        W43184   3.866  10.822   4.800  0.2411  0.0419  0.1496
27291W        W43185   9.053   2.498  15.500  0.1619  0.1303  0.1602
27292W        W43186  11.200   3.345   2.158  0.2322  0.2985  0.2595
27293W        W43187  11.164  13.728  12.655 -0.2289  0.0440 -0.1979
27294W        W43188  16.008   3.449  14.720  0.1922  0.3507 -0.1963
27295W        W43189  13.190  16.075   2.746  0.3009  0.0214  0.3083
27296W        W43190  15.534   4.819   3.473  0.0439 -0.1316 -0.0365
27297W        W43191   6.966   7.935  13.928 -0.2442  0.0337  0.0998
27298W        W43192   4.318   6.637  14.738 -0.1762 -0.2155  0.0075
27299W        W43193   7.370   9.640   2.888 -0.3291 -0.0100  0.1362
27300W        W43194   7.132   2.401  11.534 -0.1580  0.0804 -0.0371
27301W        W43195  13.387   2.965   1.488 -0.1926 -0.2206  0.1781
27302W        W43196   4.193  13.135  12.333 -0.2792 -0.0759  0.1386
27303W        W43197  16.443   7.290   3.134  0.0142  0.1591  0.2352
27304W        W43198   8.746   4.042   0.548  0.0874 -0.1939  0.2175
27305W        W43199  15.993  15.912  13.681 -0.2281 -0.2124  0.1661
27306W        W43200   7.893   7.618  14.521  0.1393 -0.2326  0.0132
27307W        W43201   7.009  16.527  10.946 -0.0491 -0.2131  0.2103
27308W        W43202   8.673   1.113  13.092  0.1662  0.2439 -0.2284
27309W        W43203  10.022   0.539   3.060  0.3555  0.0779 -0.3521
27310W        W43204  18.540   7.044   1.448  0.0186  0.3971 -0.1168
27311W        W43205  14.160   1.244  12.463  0.1817  0.0720 -0.2553
27312W        W43206  13.362   9.839   5.096  0.0652 -0.2062  0.1682
27313W        W43207  10.329  18.572  13.979 -0.0187  0.0708 -0.0233
27314W        W43208   9.297   5.069   0.559  0.2184 -0.0366  0.1043
27315W        W43209  13.326  12.977  12.464  0.1465  0.1541  0.1430
27316W        W43210  18.687  18.419  11.587  0.0282 -0.1289 -0.2336
27317W        W43211   4.196  13.486   0.776 -0.3724 -0.1120 -0.0550
27318W        W43212   5.084   6.863  13.701 -0.0206  0.0064 -0.2772
27319W        W43213  17.029   6.959   5.428 -0.1463  0.2715 -0.4087
27320W        W43214  18.654  16.343  11.558 -0.2502  0.0047 -0.1293
27321W        W43215   5.943  14.061   2.707  0.3472 -0.1628 -0.0300
27322W        W43216   0.697   7.039  13.981 -0.0676  0.1336  0.1708
27323W        W43217   4.369   7.356  11.153  0.0533 -0.3726  0.2505
27324W        W43218   1.589   6.568   3.673 -0.1771  0.3161  0.1055
27325W        W43219   9.097  11.065  14.456 -0.0799  0.0149  0.1271
27326W        W43220   2.549  14.620  11.671  0.1464  0.0683 -0.1382
27327W        W43221  15.311   3.060  14.965 -0.0231  0.0034 -0.0185
27328W        W43222  16.080  15.715   3.292 -0.1604 -0.0192  0.4170
27329W        W43223   0.155  12.315   4.336 -0.2709 -0.0448  0.1895
27330W        W43224  11.121   3.936  13.976  0.0232 -0.1166 -0.0349
27331W        W43225   8.920  15.643   4.108  0.1450  0.1545  0.1728
27332W        W43226   9.188   4.036  13.169 -0.0896  0.2441  0.3040
27333W        W43227   1.678   7.603   2.907 -0.2243  0.1579  0.0207
27334W        W43228  13.622   6.983  15.102  0.2480 -0.0822 -0.2101
27335W        W43229   2.356   0.841  10.742  0.1962  0.0285  0.1052
27336W        W43230  14.062   7.708  13.821  0.3287  0.0322  0.1733
27337W        W43231  17.575  14.519  14.340  0.2177  0.1753 -0.1204
27338W        W43232  14.925  17.405   2.923  0.1294 -0.2093 -0.1571
27339W        W43233   6.814  12.271  12.170 -0.0152  0.0844 -0.1024
27340W        W43234   0.550  17.951  12.926  0.1225  0.2105 -0.0443
27341W        W43235   4.425  14.995   0.559  0.0468  0.0776  0.1666
27342W        W43236  11.150  13.590  12.016 -0.1774  0.1918 -0.0751
27343W        W43237  18.066   9.700  12.707  0.0569 -0.2567 -0.2324
27344W        W43238  16.127  11.955  14.799  0.0764  0.3751  0.3300
27345W        W43239   5.215  18.626  14.035  0.1082  0.1013  0.0301
27346W        W43240   2.430   2.112   3.156 -0.0021  0.0126  0.0645
27347W        W43241   7.609  11.340  13.957  0.0829  0.0959  0.0111
27348W        W43242   9.004   8.091   0.469 -0.1866 -0.0394 -0.1462
27349W        W43243   2.470  11.428   1.785 -0.0951 -0.2516  0.1278
27350W        W43244   1.112   1.421  13.868  0.0763 -0.1810  0.0219
27351W        W43245   9.144  11.788  11.713 -0.2287 -0.3044 -0.0294
27352W        W43246  14.589   6.415  15.160  0.0580  0.1960  0.1005
27353W        W43247  13.463   8.999  13.613  0.0341  0.0060  0.0261
27354W        W43248  15.891  12.437  12.891 -0.1766 -0.0599  0.3919
27355W        W43249  11.242  17.903   3.233  0.1125  0.1658 -0.0339
27356W        W43250   2.892   9.283   1.190 -0.0619  0.1621  0.1235
27357W        W43251  18.643   6.292  11.110 -0.1898  0.2620 -0.0006
27358W        W43252   1.305  13.512  15.056 -0.4729 -0.0633 -0.1628
27359W        W43253   1.337   6.606  12.061  0.0928  0.1984 -0.0694
27360W        W43254  17.135   6.019   2.880 -0.1030  0.2243  0.3218
27361W        W43255  10.490  14.026  14.768  0.2421  0.2617 -0.0058
27362W        W43256  13.961  15.874   1.361 -0.0150 -0.1379 -0.1958
27363W        W43257  11.258   2.985  15.313 -0.0517 -0.1367  0.1824
27364W        W43258   8.113  18.091  14.283  0.1727 -0.0507  0.1538
27365W        W43259   8.708   5.043   1.372 -0.1745 -0.0367 -0.0959
27366W        W43260  12.422   6.532   4.478 -0.1330 -0.3879  0.1564
27367W        W43261   4.450   8.047   0.103 -0.2876 -0.1680 -0.2367
27368W        W43262   3.769  17.027  10.281  0.1137  0.3199  0.2107
27369W        W43263   2.668  12.976   4.735  0.2236 -0.2572  0.1031
27370W        W43264  17.579   8.632   0.804 -0.1962 -0.0025 -0.3378
27371W        W43265  14.346  16.764  13.613 -0.2422 -0.0738 -0.3229
27372W        W43266  12.309  17.513  11.182  0.0850  0.2036 -0.3925
27373W        W43267  15.692  14.922  14.605  0.2018  0.0431 -0.1060
27374W        W43268   8.242   2.884  14.935  0.3405 -0.4017 -0.3062
27375W        W43269   9.104   9.423   2.055 -0.1979 -0.0765  0.0705
27376W        W43270  17.249   8.409   2.238 -0.4435 -0.1913 -0.3886
27377W        W43271  15.075   1.337   3.796  0.2770 -0.4596  0.0099
27378W        W43272   3.562   1.975   3.497 -0.1935 -0.1024  0.2932
27379W        W43273   8.948   5.590   1.861 -0.1806  0.1804  0.0795
27380W        W43274   8.587  11.736   0.237  0.0010  0.2418 -0.0080
27381W        W43275   2.704   2.782   3.848  0.0019  0.1008  0.1107
27382W        W43276  12.778  17.321  11.257  0.1359 -0.1185  0.1867
27383W        W43277  13.645  15.552  14.026  0.0614  0.3137 -0.0079
27384W        W43278   3.383  15.191  10.238 -0.0242  0.0928 -0.0406
27385W        W43279   1.049   9.633   0.460  0.1161  0.0964  0.3953
27386W        W43280  11.295  10.144  12.247  0.0751 -0.1069  0.1027
27387W        W43281   1.470  12.553   1.008 -0.2593 -0.0758  0.0335
27388W        W43282  16.024  10.305   2.845 -0.1221  0.3330 -0.2241
27389W        W43283  16.136  10.569   6.036  0.3975  0.1944 -0.0091
27390W        W43284  12.420  13.798  13.728 -0.0935 -0.0116  0.1843
27391W        W43285   5.130   6.321  11.321  0.2843  0.1045  0.2722
27392W        W43286   9.758   1.703   0.900 -0.4894 -0.1513  0.2002
27393W        W43287  13.415   3.650   2.489  0.0312  0.2572  0.0295
27394W        W43288  11.036  10.215  13.838 -0.1320 -0.0647 -0.2050
27395W        W43289   3.048   9.376   1.683  0.1071  0.4109 -0.2117
27396W        W43290   3.663   8.742   1.578  0.1305 -0.0852  0.0707
27397W        W43291   8.470   6.190   2.797 -0.0524  0.2046  0.0089
27398W        W43292   5.787  12.516  14.277  0.1146 -0.1226  0.0535
27399W        W43293   9.753  14.138   4.598  0.2165  0.3050 -0.3704
27400W        W43294  10.458   7.454   3.795  0.1400  0.3596 -0.0569
27401W        W43295  12.729  11.187   2.099  0.0179  0.1323  0.1237
27402W        W43296  16.226   9.603  13.013 -0.1948 -0.0551 -0.0865
27403W        W43297  15.003  13.948  11.688  0.1236 -0.2801 -0.3370
27404W        W43298  10.042  11.007  15.293 -0.0580  0.1603 -0.0812
27405W        W43299  13.311   0.656  13.883 -0.0117  0.0832  0.2115
27406W        W43300   2.826  16.814  12.971 -0.0140  0.0759 -0.4223
27407W        W43301   3.685  13.951  13.635 -0.0622  0.0610  0.0265
27408W        W43302  11.297  13.314   4.285 -0.0251 -0.2739  0.2554
27409W        W43303   3.736  11.681  13.531  0.0573  0.1312  0.0410
27410W        W43304   2.603   7.413   3.281 -0.0705  0.0353 -0.0141
27411W        W43305   6.622   6.022  15.392  0.1951 -0.3791  0.1327
27412W        W43306  16.940   6.301   1.601  0.0077 -0.0909 -0.0182
27413W        W43307   0.890   0.301   2.921  0.0375  0.0236  0.3806
27414W        W43308   7.358   9.316  14.629  0.0542 -0.1905  0.1021
27415W        W43309   5.324  12.275  10.463 -0.3275  0.1452  0.2652
27416W        W43310   2.629  16.833   2.522 -0.0963 -0.1676 -0.0061
27417W        W43311   5.081   9.633   1.004  0.0140  0.1624  0.3549
27418W        W43312  14.447  11.519  14.479 -0.3395 -0.1260  0.4150
27419W        W43313  17.319  15.285   0.457 -0.0791  0.0233  0.0854
27420W        W43314   3.657  13.317  14.973 -0.0231  0.1504 -0.1368
27421W        W43315  12.849   5.106  11.602 -0.0731 -0.1430  0.0325
27422W        W43316  11.359  14.920  11.446 -0.1607 -0.1424  0.0925
27423W        W43317   1.344  18.452   1.554 -0.1879 -0.0165 -0.1369
27424W        W43318   4.467  13.611  12.828 -0.4096 -0.1880 -0.1531
27425W        W43319  15.212   1.159   2.275 -0.2654 -0.3279 -0.0735
27426W        W43320   1.121  17.362  10.840  0.0885  0.3758 -0.0534
27427W        W43321  10.333  14.614  12.046  0.0823 -0.1940  0.0195
27428W        W43322  13.922  12.994   4.516 -0.0380 -0.2698 -0.3217
27429W        W43323   7.552   5.033   0.862  0.0418 -0.1352 -0.0577
27430W        W43324  16.422   0.812   3.699  0.3034  0.2385  0.0850
27431W        W43325  11.323  16.991  11.382  0.1284  0.2320  0.3698
27432W        W43326  15.173  10.822   2.111 -0.2996  0.0043  0.0569
27433W        W43327   2.669  10.855  11.034 -0.2203  0.0769  0.1073
27434W        W43328  15.758   2.676   3.852  0.1456 -0.0046 -0.0797
27435W        W43329  14.022  11.451   2.086  0.0938  0.1024 -0.1158
27436W        W43330   3.521  11.303   5.187 -0.0653 -0.1937  0.1654
27437W        W43331   4.836  15.989   3.291  0.1196  0.0461  0.1716
27438W        W43332   0.126  10.139  10.904 -0.3694 -0.3597  0.3445
27439W        W43333   6.240   0.817   3.754  0.0252 -0.1190 -0.0491
27440W        W43334  15.424   5.750  12.311 -0.1724  0.4659 -0.1837
27441W        W43335  14.430   3.610   3.584 -0.0469  0.0194  0.1338
27442W        W43336  18.096   8.079   4.657 -0.1824 -0.0397  0.1212
27443W        W43337   6.513   9.541  10.572 -0.1263  0.2664 -0.2232
27444W        W43338   8.007   5.094   2.523  0.1209  0.1152  0.0893
27445W        W43339   4.039  15.646   3.975 -0.1895 -0.0366  0.1091
27446W        W43340   5.039  10.099   9.350  0.1307 -0.2958  0.0656
27447W        W43341  18.046   8.435  11.327  0.2893  0.0476 -0.3574
27448W        W43342  13.684   5.951   0.331 -0.0595  0.0224  0.0307
27449W        W43343   6.928  10.970   4.032 -0.0882  0.2694 -0.3033
27450W        W43344   1.141   4.989   2.991  0.1288  0.1769 -0.2071
27451W        W43345   7.366  10.321   0.859  0.0326 -0.3245  0.3594
27452W        W43346   3.580  12.105   3.495  0.0432  0.0593  0.0757
27453W        W43347   2.016  12.372  10.583 -0.1099  0.1825  0.1246
27454W        W43348   4.959   0.746  12.663 -0.1050  0.1431 -0.1284
27455W        W43349   5.644   6.414   3.385  0.1547  0.1673  0.2050
27456W        W43350  15.213   8.968   1.317  0.0815  0.0063  0.1962
27457W        W43351   1.080  14.970   3.193  0.3472  0.1044 -0.2956
27458W        W43352   2.474   2.139   1.569  0.3011 -0.0980  0.1601
27459W        W43353   7.655  17.375  13.082  0.2956 -0.2504 -0.2556
27460W        W43354   3.154  16.235  10.278  0.1413  0.0394 -0.1685
27461W        W43355  17.048  12.755   0.556  0.0183  0.1400 -0.2119
27462W        W43356   0.328  17.494  13.688  0.3407  0.0566  0.0511
27463W        W43357  10.239   0.092   3.542  0.2041  0.0814  0.0882
27464W        W43358   8.957  13.440   0.253 -0.5645  0.4485  0.1022
27465W        W43359   3.426   6.902   3.494  0.2084 -0.1294 -0.2181
27466W        W43360   2.677   4.653  14.102 -0.0022  0.0888  0.0177
27467W        W43361  11.087   9.798   2.816 -0.0715 -0.0131  0.1569
27468W        W43362  12.003   3.313   4.573 -0.1026  0.0194  0.1459
27469W        W43363   6.336  16.820  15.294 -0.0231 -0.3077 -0.1236
27470W        W43364  18.392   4.905  13.170 -0.2947 -0.1130  0.1111
27471W        W43365   8.611   2.681  11.842 -0.2010 -0.0486 -0.2091
27472W        W43366  17.499  14.794   4.471  0.2671  0.1584  0.3838
27473W        W43367  14.733   3.692  12.257 -0.0017 -0.0764 -0.4215
27474W        W43368   7.866   1.887  11.768 -0.4183  0.1419 -0.1415
27475W        W43369  11.485   5.353   5.322  0.0827 -0.0557 -0.0605
27476W        W43370   1.087   9.989   5.086  0.1148  0.0664  0.4440
27477W        W43371  15.639  12.845  12.601 -0.0860 -0.0473  0.0665
27478W        W43372   0.002  10.759  14.945  0.1823  0.0105  0.3719
27479W        W43373  16.930   6.656   0.363 -0.2171  0.0008 -0.1723
27480W        W43374   8.788  11.536   4.896  0.1770  0.1851 -0.0971
27481W        W43375   0.583   6.297  13.228  0.0907 -0.0255  0.3547
27482W        W43376  12.591  15.016   1.754  0.2872  0.0426 -0.0544
27483W        W43377   7.219   2.543  10.569 -0.3332 -0.0690 -0.5424
27484W        W43378  18.121   3.521  15.500  0.1288 -0.0845 -0.3906
27485W        W43379  11.049   5.470   4.162  0.0699  0.0768  0.0086
27486W        W43380   0.565   5.577   3.458  0.0213 -0.2303  0.0775
27487W        W43381  18.202   4.780  12.062  0.1739  0.0867  0.1610
27488W        W43382   4.431  16.617  14.036 -0.1096 -0.2972 -0.0511
27489W        W43383   8.267   6.924   5.123  0.0360 -0.1594  0.1219
27490W        W43384  15.812  18.299  11.250 -0.0478 -0.3044 -0.1548
27491W        W43385  17.567  12.358   4.783  0.4228 -0.0548  0.0302
27492W        W43386   9.610   8.355  11.332  0.1829 -0.1143 -0.1587
27493W        W43387   7.465   0.098   3.475 -0.1197  0.0435 -0.0282
27494W        W43388  12.235   0.728   4.843 -0.1558  0.1530  0.0338
27495W        W43389   5.733  13.549  12.408  0.1501 -0.3131  0.1360
27496W        W43390   8.332   2.700   4.895 -0.0509  0.0789 -0.1016
27497W        W43391   4.416   6.746  13.630 -0.3191 -0.0359  0.0204
27498W        W43392   3.658  15.675   0.051 -0.0582  0.0821 -0.0931
27499W        W43393   1.202  14.117  12.777  0.4435 -0.1804 -0.1531
27500W        W43394   4.746  17.660  14.076 -0.1943 -0.0478 -0.2493
27501W        W43395   4.056   7.634   4.985  0.0464  0.3805 -0.0452
27502W        W43396  18.623  10.577   0.021  0.0250  0.3469  0.1496
27503W        W43397  13.322   9.980  13.498 -0.1305 -0.0511  0.0805
27504W        W43398   1.399  18.051   1.227 -0.3936 -0.0775 -0.2813
27505W        W43399  10.921   0.155   2.232  0.0807  0.2383  0.0332
27506W        W43400  16.887  11.050  12.377 -0.0345 -0.2042  0.1321
27507W        W43401  16.581  17.414   2.383 -0.0465  0.0127  0.2300
27508W        W43402   5.354  13.992   4.182  0.1788 -0.0638 -0.1293
27509W        W43403   9.119   0.854   2.534 -0.2949 -0.4512  0.2384
27510W        W43404   0.599  11.234  12.375  0.0862  0.0036  0.2221
27511W        W43405   7.988   8.645   2.261  0.1300  0.1560  0.2109
27512W        W43406   8.340   4.204   2.961  0.2725  0.3200  0.1356
27513W        W43407  10.596   0.936   3.145 -0.2070  0.1192 -0.2248
27514W        W43408   0.634  12.856  14.610 -0.0471 -0.3079  0.0036
27515W        W43409  11.317  17.277  12.705 -0.0045  0.0827  0.1816
27516W        W43410  11.134   8.014  14.776  0.1466 -0.0589  0.0346
27517W        W43411   4.427  13.228   4.482 -0.0283  0.0290  0.0382
27518W        W43412   8.633  15.441  13.220  0.1460  0.0389 -0.1044
27519W        W43413  16.980  14.588  12.598  0.2015  0.4084  0.1233
27520W        W43414  15.909  11.399  13.258  0.2837 -0.2069  0.1569
27521W        W43415  13.459  14.380  14.981  0.0597 -0.2660  0.3149
27522W        W43416   4.628   5.740  15.573  0.0255  0.3481  0.1394
27523W        W43417  18.234  13.725   0.681  0.0085  0.1779 -0.0897
27524W        W43418  16.021   2.340   4.741  0.0697 -0.1119  0.1720
27525W        W43419   8.443  18.614  11.480  0.3521 -0.0747  0.0367
27526W        W43420   2.138   4.880  15.310  0.0558 -0.2872  0.0471
27527W        W43421  13.510  16.393  15.423 -0.3392  0.1273 -0.2554
27528W        W43422   3.792  11.863   1.537 -0.0254  0.3101  0.0263
27529W        W43423   3.005   8.645   2.664 -0.1111  0.2273  0.0786
27530W        W43424  10.830   3.749  13.512 -0.2150 -0.0803 -0.1057
27531W        W43425   5.664  17.532  10.472 -0.5390 -0.1978  0.0414
27532W        W43426  17.459  15.253   1.173 -0.1058 -0.0661 -0.3221
27533W        W43427   8.041  13.051   5.545 -0.0409 -0.1228 -0.0807
27534W        W43428   2.894  18.587   5.586 -0.0777 -0.0742 -0.2513
27535W        W43429   5.396  15.074  12.709  0.0383 -0.1488  0.2170
27536W        W43430   8.042  16.931  13.311 -0.2774 -0.1283 -0.3012
27537W        W43431   0.056   3.975  11.733  0.0817 -0.0710  0.0296
27538W        W43432   8.472   9.439   1.310 -0.0943 -0.0001 -0.0037
27539W        W43433   8.054   3.702   5.552  0.0673  0.1737  0.3682
27540W        W43434  12.279   8.801  11.789 -0.1456 -0.1331  0.0932
27541W        W43435   0.232  17.941  11.499  0.0722 -0.4612  0.2097
27542W        W43436   6.603  17.576  14.693 -0.0645  0.2009  0.0190
27543W        W43437   6.065  14.729  13.148 -0.0870 -0.0676  0.0165
27544W        W43438   5.652   4.391   4.784 -0.0677  0.1067  0.0085
27545W        W43439  14.328   4.970  11.541 -0.3667 -0.2973 -0.0477
27546W        W43440  12.719  18.127  13.595  0.1732  0.2399 -0.3600
27547W        W43441   2.325   7.538   1.225 -0.3553 -0.1743 -0.4417
27548W        W43442   7.300  10.116  15.423  0.1744 -0.1684  0.1000
27549W        W43443   5.256  10.971   3.917  0.0434  0.1565  0.0397
27550W        W43444  11.516   3.149   3.694  0.2063 -0.0317 -0.1175
27551W        W43445  15.208   5.478  14.770 -0.0699  0.1975  0.2180
27552W        W43446  10.027  11.279   3.053 -0.0708  0.6173  0.0391
27553W        W43447  10.028  12.276   3.268 -0.0313 -0.1229  0.3934
27554W        W43448   4.879  17.012   3.046  0.2537  0.2124 -0.1487
27555W        W43449  13.325   5.054  11.860  0.2158  0.1640 -0.3675
27556W        W43450   6.078   7.071  12.151 -0.0228  0.2180 -0.2333
27557W        W43451  12.619  16.756  13.441 -0.2679 -0.6151  0.1515
27558W        W43452   4.040  18.656   3.040  0.1455 -0.4092  0.0671
27559W        W43453   8.137   9.897  13.393  0.2177 -0.2770  0.2167
27560W        W43454   1.121  11.311   2.868 -0.1082 -0.2650  0.3098
27561W        W43455  14.904  10.367  12.754 -0.0691  0.1045 -0.2988
27562W        W43456  16.217   7.078   1.707 -0.2521  0.0310 -0.1923
27563W        W43457   6.131  12.736   0.857 -0.0628  0.0536  0.2260
27564W        W43458   4.310   3.591  10.977 -0.2005  0.0534 -0.0851
27565W        W43459   3.715   5.370  13.755 -0.2864  0.3066 -0.1354
27566W        W43460   4.370  11.790   3.289  0.1511  0.0425  0.2192
27567W        W43461   8.018  14.068   1.223  0.0808  0.3496 -0.0802
27568W        W43462   5.252   5.487   0.426 -0.0760 -0.3002  0.0466
27569W        W43463  16.770  11.826   4.887 -0.1660 -0.0883 -0.3413
27570W        W43464  12.613  15.501  15.576 -0.0702  0.1296 -0.0922
27571W        W43465  12.985   3.996   2.453 -0.2160 -0.0070 -0.2966
27572W        W43466   5.720   8.582  14.548 -0.0095 -0.0965  0.1371
27573W        W43467   2.625  18.623   4.156  0.3217 -0.1083 -0.3884
27574W        W43468  12.895   2.692  15.079 -0.3287  0.0810 -0.1196
27575W        W43469   7.795   5.715  15.357  0.0613 -0.0256  0.2351
27576W        W43470  14.007   6.702  14.598  0.0725 -0.0320 -0.2104
27577W        W43471  17.874  11.795  13.827 -0.0556  0.1636 -0.0571
27578W        W43472   2.110  16.267  12.958  0.4363  0.0131  0.0822
27579W        W43473   6.417   3.856   4.520  0.1306 -0.0852  0.1202
27580W        W43474  13.141  11.673  13.716  0.1229  0.0404  0.2140
27581W        W43475   3.050   4.803  11.637  0.0682  0.1161  0.1528
27582W        W43476  16.971   6.692   2.314 -0.3565  0.1094 -0.1298
27583W        W43477   8.539  15.124  14.168 -0.0186 -0.1790  0.3124
27584W        W43478  16.823  14.712   0.982  0.0239  0.4707 -0.0059
27585W        W43479   8.928  15.769  12.154  0.1116  0.2079  0.1651
27586W        W43480   8.726  13.408   1.096 -0.2178  0.0725  0.0704
27587W        W43481   1.382  17.744   0.631 -0.2293  0.0315 -0.0277
27588W        W43482   3.333  17.249   9.372 -0.0576  0.0381  0.1423
27589W        W43483   8.650  17.576   4.926  0.1381  0.0969 -0.0342
27590W        W43484  18.377  12.133   4.402  0.0150 -0.2795 -0.1880
27591W        W43485  12.606  18.355   0.607 -0.1773  0.0939 -0.0669
27592W        W43486  13.903   8.053   5.445  0.2121  0.1959  0.0764
27593W        W43487   3.454   6.379   1.737 -0.1191 -0.4011 -0.1246
27594W        W43488   2.001  14.202   3.635 -0.2415 -0.3248  0.0791
27595W        W43489  13.575   7.649  11.535  0.2019  0.1742  0.1911
27596W        W43490  10.005   6.405   4.224  0.3217 -0.0898  0.0426
27597W        W43491  13.136  18.744  12.392 -0.0277  0.2170  0.0476
27598W        W43492   0.528  14.591   3.142 -0.0534 -0.2779 -0.1282
27599W        W43493   7.836   3.687  14.248 -0.1687 -0.1891 -0.1530
27600W        W43494  16.433  18.417   2.319  0.1795  0.0031  0.1973
27601W        W43495  16.436   9.174  15.374 -0.1840  0.1635 -0.0115
27602W        W43496   6.172   8.312  11.211  0.1093 -0.0466  0.3126
27603W        W43497   2.261  12.146  14.159 -0.0374 -0.1749  0.0933
27604W        W43498  13.593  18.348   2.727  0.0028  0.1163 -0.1437
27605W        W43499   0.512   4.079   1.763 -0.0080 -0.0393  0.1279
27606W        W43500  12.619  14.197   2.057 -0.0840  0.0116 -0.0787
27607W        W43501   6.468   1.607   3.219  0.0877 -0.0818 -0.1083
27608W        W43502   2.811   3.727  15.024 -0.0432  0.2059 -0.2923
27609W        W43503   7.671   8.734   2.608  0.1639 -0.4541 -0.0540
27610W        W43504   7.107  12.110  11.606 -0.4876  0.0756 -0.0034
27611W        W43505   8.600   8.175  11.505  0.1406  0.1695  0.1636
27612W        W43506   3.217  10.689  10.427  0.0971  0.1725 -0.1380
27613W        W43507   5.817   8.523   1.035  0.0991  0.1841  0.0654
27614W        W43508   4.533  14.834   3.778 -0.1216 -0.2146  0.3188
27615W        W43509  10.878   0.007   1.723 -0.0356 -0.0664  0.3261
27616W        W43510  13.577   6.418   0.292  0.2892 -0.1142 -0.1454
27617W        W43511  12.619  14.114  14.813 -0.2122 -0.3243 -0.1096
27618W        W43512   0.378   8.200  14.664  0.1037  0.2005  0.2345
27619W        W43513   5.662   6.023  15.492  0.0507  0.1336 -0.0834
27620W        W43514  12.519   9.339  13.864 -0.0831 -0.2260  0.1135
27621W        W43515   0.054   6.164  12.600 -0.0121  0.3211 -0.0402
27622W        W43516   8.478  15.279   4.384 -0.0570 -0.1433  0.4071
27623W        W43517  11.736  12.110  10.896 -0.2371  0.2697 -0.0593
27624W        W43518  17.526   7.647   3.376 -0.3291  0.0938 -0.1620
27625W        W43519  12.014  11.027   2.670 -0.2035 -0.2190 -0.4311
27626W        W43520  16.741  16.384   2.891 -0.0736 -0.0735 -0.1204
27627W        W43521  17.701   3.221  15.610 -0.0286 -0.0531  0.3449
27628W        W43522   0.269   4.135  13.430  0.0009  0.0684  0.0456
27629W        W43523   9.321  15.883   4.329 -0.1239 -0.2059 -0.3022
27630W        W43524  15.606   5.158   2.424 -0.5170 -0.0444  0.1493
27631W        W43525   6.981   5.532   2.502 -0.1562 -0.0181  0.2161
27632W        W43526   4.131  13.482   3.752 -0.2336  0.2939 -0.0943
27633W        W43527  15.798   5.459  13.291  0.1224 -0.2310 -0.1103
27634W        W43528  13.939  10.421   0.729 -0.1040 -0.3356 -0.1201
27635W        W43529   8.312   9.532   1.901 -0.1882 -0.0459  0.0639
27636W        W43530  16.699   9.705   3.510  0.3557 -0.1540  0.0974
27637W        W43531   9.485   8.195  11.781  0.0049 -0.2868 -0.0022
27638W        W43532   1.425  17.240  10.049 -0.0107 -0.1863  0.2293
27639W        W43533   7.832   8.421   0.215  0.0797  0.1720 -0.2903
27640W        W43534  12.198   4.608   3.554  0.3217  0.3976 -0.0365
27641W        W43535  11.220   7.549   5.597 -0.2309  0.2163  0.3313
27642W        W43536   2.490   3.726   9.769 -0.1026  0.1157 -0.0814
27643W        W43537   5.127   5.558  12.834  0.0416 -0.3036 -0.1165
27644W        W43538   9.115  17.602  15.490  0.0539 -0.0842 -0.1767
27645W        W43539  10.064   4.664  12.247 -0.3263 -0.0053 -0.1698
27646W        W43540   9.343  12.058  15.384 -0.2004  0.3617 -0.1674
27647W        W43541   1.959  17.849  14.008  0.0764  0.0824  0.0655
27648W        W43542   1.368  16.172  15.012  0.2890 -0.3672  0.0771
27649W        W43543   7.004  14.259  11.183 -0.2580 -0.1489  0.2384
27650W        W43544   3.604  12.390  14.557  0.3496 -0.1007  0.1994
27651W        W43545   8.591   6.021   0.256  0.0309 -0.0445  0.4030
27652W        W43546   3.648  18.289   4.366  0.0427  0.0341 -0.2465
27653W        W43547   0.238  18.759   0.151  0.0686 -0.3532  0.1186
27654W        W43548  15.505   0.746  13.050 -0.0284 -0.1075  0.0662
27655W        W43549  14.269   7.051  13.145  0.0921 -0.1287  0.0716
27656W        W43550   6.681  15.053  15.183  0.2391  0.1078 -0.2964
27657W        W43551   5.368  16.694  14.917 -0.2350 -0.2058  0.1329
27658W        W43552  14.623  11.220   6.443  0.0134  0.0144  0.3094
27659W        W43553   8.431  13.304   3.207 -0.2317  0.0729 -0.0125
27660W        W43554  10.556   4.910   5.517 -0.0617 -0.0393 -0.1406
27661W        W43555  10.826   7.191   2.466 -0.2267 -0.1948  0.0348
27662W        W43556  18.044   3.748  15.016  0.0847 -0.0803  0.1176
27663W        W43557  14.155  13.980  11.967 -0.2807 -0.0153 -0.0937
27664W        W43558   9.868   7.585  12.928  0.4301 -0.2536  0.0569
27665W        W43559   2.123   7.881   0.216 -0.1061 -0.0141 -0.0487
27666W        W43560  16.500  10.670   2.445  0.0704 -0.0983  0.2384
27667W        W43561  14.815  15.081  14.313  0.0954  0.1423  0.2037
27668W        W43562  15.963   8.938   5.237  0.3559  0.0152 -0.0655
27669W        W43563   3.442   1.778  14.703 -0.0897 -0.3465  0.0495
27670W        W43564   8.233  11.691   0.848 -0.0876 -0.2445  0.2568
27671W        W43565  15.682  17.598   4.146 -0.1558 -0.3009  0.2631
27672W        W43566   2.380  18.295  13.591  0.2090  0.3075 -0.2269
27673W        W43567   6.598   7.514   1.930 -0.0014  0.0373  0.0838
27674W        W43568  13.385   9.466   2.897 -0.1931  0.2146 -0.3744
27675W        W43569   5.940   4.334  13.946 -0.2092 -0.0021 -0.1407
27676W        W43570  16.523  16.210  12.012 -0.1657  0.1584 -0.1672
27677W        W43571   4.868  11.075   1.767  0.0397  0.0103  0.0162
27678W        W43572   1.377  11.114  11.560  0.2373  0.0924 -0.0846
27679W        W43573  15.748   4.306  11.269  0.1026  0.2530  0.0675
27680W        W43574   7.957  12.687  13.559 -0.3533 -0.2861 -0.2033
27681W        W43575  11.450  13.096   4.709 -0.1238 -0.3255  0.1287
27682W        W43576  14.200  15.525  12.255 -0.1729  0.0635  0.0015
27683W        W43577  14.370  14.804   1.290  0.2586 -0.0787 -0.1474
27684W        W43578   1.583   8.962  11.645 -0.0176  0.1436  0.0630
27685W        W43579   2.824   5.846  13.799 -0.2240 -0.1297  0.3236
27686W        W43580   1.744   9.276   2.578  0.0835 -0.0525 -0.1182
27687W        W43581   3.480   0.657  12.358 -0.1209 -0.0479 -0.0493
27688W        W43582   4.781   4.564  10.781 -0.0129  0.2370  0.1813
27689W        W43583   8.110  13.678   3.194  0.1362 -0.0142 -0.0620
27690W        W43584  12.728  16.514  12.953 -0.2073 -0.1516 -0.0439
27691W        W43585  16.207  14.926  13.929 -0.0856  0.2799 -0.1256
27692W        W43586   0.799   6.642   4.335 -0.0981 -0.0546  0.1104
27693W        W43587   0.955  16.247  13.191  0.2615  0.1813  0.0442
27694W        W43588  11.551  12.109  14.249  0.0364 -0.3538 -0.0647
27695W        W43589  16.806   3.107  14.226  0.2334 -0.3310  0.0200
27696W        W43590  17.517   6.247   4.160 -0.0163  0.2395 -0.0211
27697W        W43591   0.732  15.285  12.130 -0.0525  0.2118  0.0690
27698W        W43592  16.469   4.366  12.503 -0.1845 -0.2717 -0.0118
27699W        W43593  16.157  18.012   1.097 -0.1452  0.1551 -0.0298
27700W        W43594   5.083   4.186   4.206  0.1997 -0.0487 -0.0113
27701W        W43595   7.897   6.111   3.588  0.1188 -0.2885 -0.0545
27702W        W43596  18.623  10.321  14.242  0.2721  0.1238  0.0551
27703W        W43597   9.821  17.948   4.612 -0.0423  0.1926  0.0951
27704W        W43598  11.258   6.519   0.724  0.0651  0.1004  0.3763
27705W        W43599  12.596   2.693   2.124 -0.2937  0.0390 -0.0518
27706W        W43600  11.357  11.367  12.659 -0.1715 -0.0963  0.0738
27707W        W43601   6.670   6.894   2.596  0.2470  0.0230  0.1630
27708W        W43602   6.248  15.984  13.374  0.1126  0.4430 -0.1497
27709W        W43603  12.644  11.157   3.172 -0.1553 -0.4693 -0.1509
27710W        W43604   7.803  17.442  12.642 -0.2248  0.2464  0.2171
27711W        W43605  10.774   3.828  11.924 -0.0706 -0.1708 -0.4696
27712W        W43606   1.443   5.867   1.663  0.1784  0.1593 -0.0943
27713W        W43607  14.651  14.478  12.912  0.0902  0.0901 -0.0152
27714W        W43608   5.504  17.709   2.875 -0.0424  0.0231 -0.3304
27715W        W43609  12.735   3.909   4.954  0.1060  0.1684 -0.2194
27716W        W43610   2.629   3.264   5.168 -0.4407  0.1762 -0.0758
27717W        W43611   3.404  13.699  12.544 -0.1567  0.1585  0.2158
27718W        W43612   6.490   7.145   3.267 -0.0448 -0.3575 -0.1736
27719W        W43613   6.685   1.642   5.566 -0.1424 -0.1408  0.1643
27720W        W43614  15.043   4.687  12.638 -0.3216 -0.0494 -0.2293
27721W        W43615  15.704  15.705   4.813  0.2631 -0.2835  0.1128
27722W        W43616   9.029   9.787   2.457  0.1228  0.0075  0.3980
27723W        W43617  16.477   9.738  14.985  0.0242  0.3972 -0.1454
27724W        W43618   7.070  13.433   2.761  0.0931 -0.3343 -0.2774
27725W        W43619   5.510  11.379   2.627  0.0141  0.0068  0.1435
27726W        W43620   6.093  17.331  10.735 -0.0718  0.2312 -0.1156
27727W        W43621   9.071  18.280  12.339  0.3399 -0.2545  0.1554
27728W        W43622  18.270   7.208  11.098  0.1814  0.1052  0.1120
27729W        W43623   8.541  16.686   2.946 -0.1168  0.0531  0.1070
27730W        W43624   2.663  17.303  15.582 -0.1566  0.2015  0.0057
27731W        W43625  18.571  15.617   5.063 -0.1105  0.0688  0.1391
27732W        W43626   2.448  12.507  10.886  0.1544  0.0258 -0.0221
27733W        W43627  16.905   5.366  14.322  0.2070 -0.3178  0.1985
27734W        W43628   3.954  12.130  13.509 -0.3455 -0.2380 -0.2264
27735W        W43629  13.892   9.332  13.326  0.1301 -0.1627 -0.0082
27736W        W43630  11.208  10.738  13.904 -0.1891  0.1944  0.2873
27737W        W43631   4.990  15.231   4.609 -0.1529 -0.0255 -0.2814
27738W        W43632   9.436   9.731  13.774 -0.1596  0.0622  0.0005
27739W        W43633  13.745   4.829   1.577 -0.2584  0.4665  0.0245
27740W        W43634   7.107   6.453  13.870  0.1036 -0.0466 -0.1698
27741W        W43635   3.340  12.780   2.821  0.2213 -0.1023 -0.1296
27742W        W43636   2.291   4.590  10.240  0.0071  0.0011  0.0313
27743W        W43637   6.212   2.823  12.340  0.1170 -0.1026  0.3140
27744W        W43638   5.187   2.645  11.024  0.0683 -0.1283 -0.1525
27745W        W43639   8.080   9.219  12.525  0.2296  0.1875 -0.1022
27746W        W43640   5.563  14.268   4.617  0.1650  0.1402  0.1272
27747W        W43641  13.979   8.039   2.778  0.1893  0.1444  0.1278
27748W        W43642   1.676   0.198  13.627  0.2364  0.6045  0.0251
27749W        W43643  18.297  17.194   1.582 -0.1228  0.0961 -0.0059
27750W        W43644  13.827   9.471  14.795  0.1175 -0.0094  0.0094
27751W        W43645   6.572   3.576   1.069  0.0674 -0.3626  0.0338
27752W        W43646  12.958  18.425  11.760 -0.3580 -0.0271  0.0111
27753W        W43647   7.132  16.382  15.609 -0.0089 -0.0370 -0.2561
27754W        W43648  13.589   9.672  13.184 -0.1079 -0.4304  0.3580
27755W        W43649  12.086   5.628  12.651 -0.0021  0.0195  0.0063
27756W        W43650   0.471  12.087  14.893 -0.1966  0.0655  0.3556
27757W        W43651   0.564  12.520   4.573  0.3204  0.0384 -0.0908
27758W        W43652   7.734  14.877   5.006  0.1368  0.0299  0.0607
27759W        W43653   9.422   4.984  12.962 -0.0083 -0.1270 -0.1347
27760W        W43654  16.517  12.053   3.084 -0.1432  0.1241  0.1503
27761W        W43655  16.659   6.356  12.888  0.0958  0.2274  0.2144
27762W        W43656   1.859  13.630  11.163 -0.0286  0.1120  0.1580
27763W        W43657  13.115  10.002   1.874 -0.1360  0.0242 -0.0727
27764W        W43658  10.538   4.838   3.760 -0.1146 -0.2518 -0.2594
27765W        W43659   6.067   3.639  11.715 -0.1670 -0.1798 -0.2971
27766W        W43660   9.947   5.862  12.951  0.0384  0.1411 -0.4197
27767W        W43661  11.755  11.067   0.419  0.5989 -0.2178  0.2292
27768W        W43662   2.409   1.011   1.734  0.0009 -0.1038  0.3621
27769W        W43663   1.416   6.738   4.987  0.0748  0.0817  0.2962
27770W        W43664  12.032  11.328   4.248  0.1498 -0.2420 -0.1614
27771W        W43665  18.386   1.148   4.608 -0.2972  0.1701  0.0224
27772W        W43666  11.148   6.135   2.093 -0.0492  0.1237 -0.2480
27773W        W43667   6.568  14.897   1.668 -0.1661  0.1624 -0.0218
27774W        W43668   5.191   3.116   2.405 -0.1104  0.0450  0.5572
27775W        W43669   3.226   3.093   3.666  0.0329  0.0835  0.4526
27776W        W43670   4.544   2.102  14.865 -0.0194  0.1184 -0.0893
27777W        W43671   8.765   0.890   1.451 -0.1093 -0.2325 -0.0353
27778W        W43672   2.221   7.002  12.136  0.2671 -0.0110 -0.0469
27779W        W43673   0.947   5.429   1.828  0.1054 -0.0496 -0.2601
27780W        W43674   7.707   7.082   5.182 -0.1995 -0.0515 -0.0098
27781W        W43675   4.953   6.169  11.997  0.0705 -0.2541 -0.1565
27782W        W43676   0.008   0.917  13.198 -0.2195  0.0940 -0.2337
27783W        W43677  13.327  14.300  12.956  0.3170 -0.0881  0.4306
27784W        W43678  18.356  15.961   1.926 -0.1300  0.2108 -0.2032
27785W        W43679   6.100  16.030   1.846 -0.1883  0.1008  0.0804
27786W        W43680  14.896  14.590  12.038 -0.0456 -0.4166  0.1890
27787W        W43681   4.637  13.437  10.309  0.0580  0.2309  0.0441
27788W        W43682   9.999   6.996   1.532  0.0820  0.0179  0.3061
27789W        W43683  10.093  11.759  11.539  0.0449 -0.1332 -0.1116
27790W        W43684  16.754  18.247   0.349 -0.2933 -0.2675  0.3725
27791W        W43685  16.517   0.559   4.097  0.0272 -0.1268 -0.1426
27792W        W43686  16.419   5.223   5.536  0.2517 -0.1335 -0.0168
27793W        W43687  12.652  16.711  11.496  0.1356 -0.1233  0.1702
27794W        W43688  12.313   5.268  11.182  0.1071 -0.0243 -0.3362
27795W        W43689  11.413  17.535   2.278  0.5044 -0.1664 -0.0249
27796W        W43690   6.499   5.285   2.250 -0.1908 -0.0326  0.1575
27797W        W43691  15.976  14.436  13.771  0.0240 -0.0348  0.1988
27798W        W43692   4.740  14.664   0.366 -0.2786 -0.0672 -0.0176
27799W        W43693  17.622  14.846  15.395 -0.4600  0.2334  0.0432
27800W        W43694  13.510   2.614   0.914 -0.0617  0.1827  0.0025
27801W        W43695   3.984   9.467  14.475 -0.1619  0.1115 -0.4394
27802W        W43696  10.717   0.605   5.514 -0.1090 -0.3013  0.2558
27803W        W43697   3.662  17.651   0.601 -0.3594  0.3407  0.0015
27804W        W43698  17.672  12.556  13.234  0.4784  0.0848  0.1679
27805W        W43699   3.151  15.166  14.151 -0.0525  0.0424 -0.3486
27806W        W43700  16.825  13.227   0.278 -0.4781  0.3044 -0.1708
27807W        W43701  14.427  16.638   1.935  0.5102 -0.1047 -0.0646
27808W        W43702   4.650   7.441   2.153  0.0868  0.0903  0.1649
27809W        W43703  10.907   7.882   1.231  0.1711 -0.0217 -0.3521
27810W        W43704   1.161  15.306   4.392 -0.3063  0.0113  0.1240
27811W        W43705   7.729  15.866  14.668 -0.1295  0.0459 -0.0411
27812W        W43706   7.921   2.163   3.233 -0.2892 -0.2271 -0.1222
27813W        W43707   7.641  13.939   2.684 -0.0797  0.1663  0.1383
27814W        W43708  14.011  16.421   2.304 -0.0268 -0.0805  0.1368
27815W        W43709  16.281  10.397   5.573 -0.1670 -0.1464  0.0364
27816W        W43710  18.471   8.650   0.879 -0.1303 -0.0985 -0.0479
27817W        W43711   4.618   6.582  12.748  0.0078 -0.0274 -0.1148
27818W        W43712  17.104   0.473   3.000 -0.1201  0.1492  0.4446
27819W        W43713  17.082  16.549   2.167  0.0669  0.0380  0.0948
27820W        W43714  13.512  14.035   2.730  0.0608  0.1982  0.0950
27821W        W43715  11.771   5.662   0.157 -0.0608 -0.0669  0.3409
27822W        W43716  16.033  16.972   0.902 -0.0151 -0.0730  0.1824
27823W        W43717   5.606   1.196   4.275 -0.0145 -0.2457  0.3533
27824W        W43718   8.038   7.111   4.359 -0.0563 -0.3068 -0.3987
27825W        W43719   1.295  12.089  12.617 -0.1140 -0.1410  0.1497
27826W        W43720   1.189  17.641   0.144 -0.2071  0.0531 -0.1286
27827W        W43721  11.799   3.617   5.044 -0.2991 -0.0758 -0.0971
27828W        W43722   5.353   4.956  14.646 -0.3405  0.0179  0.1907
27829W        W43723   8.234   2.782   1.319 -0.3225  0.2959  0.0001
27830W        W43724  14.485  17.017   3.808 -0.2296  0.2751 -0.1145
27831W        W43725  18.072   3.735   5.287  0.0476 -0.0940  0.0650
27832W        W43726   6.160  17.876  14.931 -0.1594  0.1073  0.0631
27833W        W43727  14.076  11.987   3.547 -0.3969  0.1731 -0.0105
27834W        W43728   6.878   7.610   2.342 -0.0136 -0.0263 -0.0313
27835W        W43729  13.228  17.077   1.168 -0.3529  0.0820  0.0471
27836W        W43730  18.010  17.312  15.261 -0.1733 -0.4705  0.0281
27837W        W43731   4.450  17.538   0.654 -0.1162  0.2721  0.3612
27838W        W43732  11.160   3.714  14.903 -0.1656  0.2001  0.1713
27839W        W43733   5.623   9.176  14.361  0.0537 -0.0207 -0.4160
27840W        W43734  13.280   1.803   4.175  0.1221 -0.3354 -0.1063
27841W        W43735   4.400   3.300  13.959 -0.0382 -0.4165  0.1921
27842W        W43736   1.460  14.092   5.133 -0.0081 -0.3639 -0.1455
27843W        W43737   2.201   8.293   1.864 -0.1449 -0.0952 -0.2914
27844W        W43738  17.887  17.167   5.588 -0.0535 -0.1261  0.0794
27845W        W43739  15.791   7.623  12.213 -0.1647  0.1002  0.4206
27846W        W43740   8.396   8.284  11.038 -0.2696 -0.0354  0.1624
27847W        W43741   6.312  13.046   4.606  0.1626  0.1902  0.0559
27848W        W43742   3.393   8.748  12.873  0.1185  0.0033 -0.2002
27849W        W43743   8.766   6.258  14.939  0.1772 -0.3011 -0.1763
27850W        W43744   8.312  12.526   0.984  0.2359 -0.1536 -0.3110
27851W        W43745   6.865   7.344  11.211  0.0471 -0.1020 -0.1711
27852W        W43746  15.069  10.205  13.269 -0.0937 -0.0714 -0.2095
27853W        W43747  10.472   7.143   4.147  0.3725  0.1208  0.0045
27854W        W43748  18.742  13.839   2.799  0.2832 -0.1786  0.1858
27855W        W43749  13.997   6.989   1.359 -0.1395  0.2847 -0.0928
27856W        W43750  17.949   8.711   4.190  0.0214  0.1263  0.1679
27857W        W43751   4.734   6.792  13.218 -0.0077  0.4698 -0.0583
27858W        W43752  16.998   8.488   0.891  0.2929  0.0843  0.0374
27859W        W43753   8.806   8.365   3.765 -0.5765 -0.0621  0.0674
27860W        W43754   0.023  17.246  15.314 -0.0989  0.2818  0.1551
27861W        W43755   5.916   6.642  14.087  0.2676 -0.1671 -0.1701
27862W        W43756  17.225   6.899   4.940 -0.3931 -0.0946 -0.0580
27863W        W43757  12.974  14.224  15.310 -0.0219 -0.0943  0.2360
27864W        W43758   8.467   0.293  11.965 -0.1623  0.0789 -0.0060
27865W        W43759   4.145   0.844  12.930  0.0346 -0.1914  0.1056
27866W        W43760  15.303  14.884   2.515  0.0551  0.3379  0.1983
27867W        W43761  16.634  12.567   5.498 -0.0108 -0.1826 -0.1514
27868W        W43762  10.713  15.043  12.025  0.2344  0.3546  0.1699
27869W        W43763  16.798   5.087   0.409  0.1539 -0.0300  0.1063
27870W        W43764  15.857   1.024   4.659  0.0187 -0.1540  0.1791
27871W        W43765  10.000   6.216  14.724  0.0035 -0.0088  0.1578
27872W        W43766   4.365  17.323   4.205 -0.1110 -0.1725 -0.1218
27873W        W43767   8.108   0.640  10.992  0.0033 -0.0754  0.2000
27874W        W43768   5.335  16.797  12.420 -0.0577 -0.2938 -0.2067
27875W        W43769  18.076   6.206  13.835 -0.1322 -0.0433 -0.0253
27876W        W43770  15.257   4.796   4.545 -0.2816 -0.0528 -0.3008
27877W        W43771   6.549   5.322   2.736  0.1106  0.2510  0.1377
27878W        W43772   2.028  12.547   2.340 -0.1037  0.2134 -0.1509
27879W        W43773   1.790  16.060   1.903  0.0201  0.1117  0.2024
27880W        W43774   0.071   5.556   2.186 -0.1112 -0.0427  0.1345
27881W        W43775   5.995   1.862   0.553  0.0295  0.0560  0.1190
27882W        W43776  15.087  15.123  13.458 -0.1066  0.2646  0.0186
27883W        W43777  11.913  16.428  14.164  0.3211  0.0828  0.2266
27884W        W43778  12.089  13.465   2.707 -0.1805  0.0591  0.1537
27885W        W43779  18.462   0.655  12.144 -0.0033  0.2780  0.0917
27886W        W43780   7.087  18.711   3.050 -0.1245 -0.1019 -0.0523
27887W        W43781  11.976  14.923   0.231 -0.2391 -0.0777  0.0170
27888W        W43782   2.507  17.064  13.687  0.0629  0.0414 -0.0905
27889W        W43783   4.024   3.456   2.190 -0.1375  0.1460 -0.0586
27890W        W43784   9.549   9.481   2.275 -0.2508  0.0640  0.0270
27891W        W43785   2.552  14.725   0.077 -0.3135 -0.1565 -0.0956
27892W        W43786   7.421   9.815   5.067 -0.0719  0.2060  0.0224
27893W        W43787   7.529   4.298  14.235  0.1888 -0.1448 -0.2054
27894W        W43788  16.154   6.015   4.956  0.0695  0.1285  0.0757
27895W        W43789   4.961   2.749  10.565  0.5056 -0.2997  0.0289
27896W        W43790  15.055  10.605   4.146 -0.1201 -0.0096  0.2746
27897W        W43791   7.970   0.127  11.751  0.0046 -0.1147 -0.0800
27898W        W43792  14.546   1.995  11.029  0.1552 -0.0232 -0.1017
27899W        W43793  16.679  13.336  13.340  0.0005  0.1477 -0.0978
27900W        W43794  18.349  12.946  10.177 -0.2808 -0.0429 -0.2601
27901W        W43795  12.416   3.956  14.273 -0.3793  0.1204  0.0610
27902W        W43796   1.292  11.402  15.224  0.3662  0.0778 -0.0866
27903W        W43797  14.122  18.766   2.198  0.4135  0.0264  0.0322
27904W        W43798  15.099   9.494  15.367  0.2025 -0.0780 -0.3499
27905W        W43799  12.308   4.647  13.799 -0.3148 -0.1869 -0.3650
27906W        W43800   7.229  18.614   4.401  0.1645  0.1917 -0.2179
27907W        W43801   1.226   2.125   1.907 -0.2108 -0.0853  0.0639
27908W        W43802   0.359  13.006   3.157  0.0611 -0.0932  0.3888
27909W        W43803   3.796   0.420   3.420  0.0693 -0.0286 -0.0219
27910W        W43804   0.952   5.325  12.192  0.1319  0.2426  0.2079
27911W        W43805   4.603  18.699  12.932 -0.0402  0.2705  0.3702
27912W        W43806  10.655  17.541   2.588  0.1334 -0.0052 -0.0967
27913W        W43807   2.105   5.324   2.899 -0.1054 -0.0824  0.3234
27914W        W43808  16.389  17.912   1.552 -0.2947 -0.0582  0.1230
27915W        W43809  13.365  18.619   0.331  0.1444 -0.1086  0.0743
27916W        W43810   4.353  15.282  15.390  0.1811 -0.1796 -0.1876
27917W        W43811   0.748  13.379   0.867 -0.0024 -0.3597  0.0664
27918W        W43812   3.237  12.783  14.239 -0.1210  0.4557 -0.0306
27919W        W43813   1.322  17.968   2.974 -0.0668  0.0393  0.0657
27920W        W43814  15.995  15.220   3.104  0.0574 -0.1912 -0.2248
27921W        W43815  14.450  12.069   0.340 -0.2485  0.0337 -0.0430
27922W        W43816   5.836   5.676  14.137  0.2461 -0.0298  0.2848
27923W        W43817  14.519  10.845  13.481  0.0226  0.0514  0.1900
27924W        W43818  14.907   5.232  14.117 -0.2530 -0.2208  0.2592
27925W        W43819   2.753  14.559  14.188  0.3435 -0.1389 -0.0593
27926W        W43820   4.935  13.775   1.282 -0.1230  0.0461 -0.2102
27927W        W43821  13.906   5.492  14.763 -0.1795 -0.0516  0.1227
27928W        W43822   6.816   2.661   4.198 -0.2644 -0.0036 -0.2634
27929W        W43823   5.763  17.039  15.230  0.0924  0.0296  0.0779
27930W        W43824   1.620   4.892  13.177 -0.0498  0.0803  0.1489
27931W        W43825  11.276  11.544  15.477 -0.3434  0.0731  0.3740
27932W        W43826   4.958   2.682  14.838  0.2602 -0.5159  0.1475
27933W        W43827  17.431  14.333  11.222  0.0659  0.2155 -0.0154
27934W        W43828   5.443  12.402  15.293 -0.0065 -0.0810 -0.1288
27935W        W43829   3.920  10.727   1.891  0.0947 -0.0594  0.0861
27936W        W43830  10.093   0.547   0.027 -0.0886 -0.0270  0.0773
27937W        W43831   5.458   7.630  12.940  0.1795  0.0832 -0.0916
27938W        W43832  12.470  14.054  14.133 -0.0625 -0.2525  0.0150
27939W        W43833   2.552   7.380   0.687 -0.2561  0.0734 -0.0198
27940W        W43834  17.027   3.882   3.454  0.5787 -0.2583 -0.1975
27941W        W43835   1.267  18.034  11.060 -0.2053 -0.2877 -0.2626
27942W        W43836  16.687   6.885   6.001  0.0163  0.0002  0.0346
27943W        W43837  10.402   3.361  12.771 -0.0158  0.2629 -0.0300
27944W        W43838   9.333  12.924   1.002 -0.0435  0.2120  0.1354
27945W        W43839   2.075  18.461   5.619  0.1265  0.0442  0.2380
27946W        W43840   8.898  18.290  11.793 -0.4897 -0.0693 -0.0004
27947W        W43841   1.363  10.181  13.639 -0.3475 -0.1981  0.5978
27948W        W43842   8.583  13.671   4.555 -0.2982  0.1017  0.2735
27949W        W43843  11.021   8.776   0.774  0.0898 -0.1599 -0.2483
27950W        W43844   6.225  15.013   2.435 -0.2759  0.0110 -0.0312
27951W        W43845  16.456   6.814   2.283  0.0004  0.0487 -0.0282
27952W        W43846   7.120   8.971   1.896  0.1816 -0.2717 -0.0588
27953W        W43847  18.154   4.374  14.053  0.2689 -0.0635  0.1884
27954W        W43848   1.378   7.851  11.058 -0.0291 -0.1590 -0.0241
27955W        W43849  18.520  15.244  12.364  0.2377  0.0550  0.1369
27956W        W43850   7.447   6.180  13.506 -0.0735 -0.0915 -0.0642
27957W        W43851   3.565  14.671  12.282  0.1718 -0.1315  0.2361
27958W        W43852   3.705  10.179  13.528  0.0773  0.1239  0.0552
27959W        W43853  17.204  17.656   1.656  0.0304  0.1267  0.0382
27960W        W43854   1.352   1.342   0.065  0.1646  0.6351 -0.1550
27961W        W43855   8.955   8.140   1.546 -0.1102  0.2185  0.1171
27962W        W43856   7.459  18.499  11.035 -0.0009 -0.2039 -0.0271
27963W        W43857   6.124   2.381   9.381  0.6312 -0.3190  0.2180
27964W        W43858   0.503  14.466   5.139  0.1772 -0.0125  0.4285
27965W        W43859  10.400  13.103  14.996  0.2917 -0.0675  0.0245
27966W        W43860   9.443  18.329  14.300 -0.0233  0.0295  0.2056
27967W        W43861  18.049  11.054   2.199 -0.1170  0.3507  0.0154
27968W        W43862   6.253  14.666   3.494 -0.1427  0.1577  0.0455
27969W        W43863  12.083  10.415   3.312 -0.2733 -0.1522  0.0559
27970W        W43864   2.183   2.049   5.331 -0.1555  0.2227 -0.2586
27971W        W43865  14.283  12.402  13.718 -0.0213 -0.4544  0.1593
27972W        W43866   7.567  10.687   1.298 -0.1083 -0.2282 -0.0620
27973W        W43867   9.766  15.878  14.331  0.2701 -0.2755  0.0881
27974W        W43868  14.436   6.346   0.633 -0.3695  0.0194  0.0224
27975W        W43869   0.347  17.067   3.103 -0.4369  0.0647  0.1828
27976W        W43870   0.958  11.871  11.801 -0.2948 -0.4648 -0.0759
27977W        W43871  15.149  15.511   2.647 -0.0014 -0.0089 -0.0909
27978W        W43872  17.168  15.640  11.050 -0.3672 -0.1293 -0.4323
27979W        W43873  13.026  13.585  14.472 -0.1061 -0.1171 -0.2840
27980W        W43874   3.859   6.832   3.337 -0.1805 -0.1590 -0.1590
27981W        W43875  15.720   8.124  12.478 -0.0787  0.2664  0.2204
27982W        W43876  12.060  10.883  12.129  0.0756  0.0643  0.0724
27983W        W43877  12.342   5.762   0.619  0.1458  0.0481  0.1142
27984W        W43878   8.137  11.369  13.151  0.0171 -0.0993  0.1795
27985W        W43879   2.789   5.405  13.633 -0.0036 -0.4601 -0.1251
27986W        W43880  12.764   6.786   5.331  0.1025 -0.1066 -0.1118
27987W        W43881   8.560  13.806   3.888  0.0305 -0.2496  0.1905
27988W        W43882  18.628   2.123  11.956 -0.1604  0.1498  0.1612
27989W        W43883   3.240  16.216  11.083 -0.2663 -0.1311 -0.1318
27990W        W43884  16.762  10.514  12.415 -0.1346 -0.0422 -0.0867
27991W        W43885  10.659   5.650   3.105 -0.1268  0.1117 -0.2231
27992W        W43886  12.655  15.734   1.023 -0.1085  0.0574 -0.1872
27993W        W43887   8.355  13.925  12.415 -0.0453 -0.3271 -0.0159
27994W        W43888   3.388   0.458   1.531 -0.0528 -0.1063 -0.2226
27995W        W43889  18.450  10.420   0.501  0.0382  0.2198  0.1962
27996W        W43890   1.206  10.642   0.077  0.1368 -0.0392 -0.0040
27997W        W43891   2.364  12.021  15.241 -0.0924  0.3650  0.0517
27998W        W43892   2.636  11.194  13.093  0.0179  0.1641  0.3069
27999W        W43893  14.964   6.057  12.275  0.0995  0.1089  0.3072
28000W        W43894   5.735   2.301  15.424  0.1229  0.0126  0.2355
28001W        W43895   3.373  17.525   4.048  0.0698 -0.1166 -0.1093
28002W        W43896   7.859   2.678  12.476 -0.0637 -0.1692 -0.1855
28003W        W43897  18.190   9.036   4.490 -0.0248 -0.2610  0.1834
28004W        W43898  17.756   6.800   2.603 -0.1770  0.1423 -0.2189
28005W        W43899   8.758  18.486   2.450  0.1662 -0.0549  0.2016
28006W        W43900   4.978   0.230  14.732  0.2125 -0.3435 -0.3202
28007W        W43901  10.515  10.146   4.740  0.1302  0.0221 -0.0291
28008W        W43902   7.912  16.904   4.702 -0.3646 -0.1335 -0.0127
28009W        W43903   8.214   8.427   3.777 -0.0242  0.3437  0.2562
28010W        W43904  12.496   4.169  10.791  0.0170 -0.2044  0.1224
28011W        W43905  18.013   5.636   5.076  0.0555 -0.2156 -0.1725
28012W        W43906  11.990   5.132  13.991  0.2473 -0.1171 -0.0643
28013W        W43907   3.071  11.315  11.376  0.1976  0.2055  0.0564
28014W        W43908  13.109   4.355   0.848  0.1622  0.0514 -0.0967
28015W        W43909   5.536  18.093  12.169 -0.0130  0.2570 -0.0202
28016W        W43910   7.686   0.530   3.677 -0.5016  0.1201 -0.2196
28017W        W43911   0.744  16.945  11.016 -0.0262 -0.1385  0.1171
28018W        W43912   7.982  13.978   1.726  0.1861 -0.1332  0.2378
28019W        W43913  13.845  16.903  15.254  0.1833  0.1026  0.0141
28020W        W43914   2.594   8.938  14.194 -0.2400 -0.1420  0.2852
28021W        W43915  13.845   3.531  11.977 -0.3765  0.2764 -0.1522
28022W        W43916  13.759  10.033   4.827 -0.0626 -0.3035  0.0404
28023W        W43917   2.078   6.912  14.404  0.1076  0.0035  0.2755
28024W        W43918  17.394   7.612  12.065 -0.0586 -0.2535  0.0046
28025W        W43919  11.902   6.452   2.341  0.0398  0.1796 -0.0979
28026W        W43920   9.813   4.599  11.330 -0.1023 -0.3462 -0.0257
28027W        W43921   9.185   9.578   0.581  0.1758  0.0547 -0.2302
28028W        W43922   4.369  10.829   4.381  0.2916 -0.0677  0.0618
28029W        W43923  15.042  14.363  12.580  0.3250  0.1817 -0.0781
28030W        W43924   7.534   1.261  10.435  0.1309  0.3734  0.3335
28031W        W43925   3.329  10.467  12.893  0.2194 -0.5355  0.0813
28032W        W43926   6.897  15.548   3.118  0.1913 -0.0141  0.1006
28033W        W43927   2.075   8.950  11.257  0.2737 -0.0666  0.3000
28034W        W43928   6.631   6.069   1.308  0.0012  0.1648 -0.0045
28035W        W43929   1.543  13.434   3.530 -0.1766  0.0762  0.3037
28036W        W43930   9.432  18.719  13.789  0.1465 -0.2782  0.1337
28037W        W43931  13.613  14.551   2.829  0.0962  0.0636 -0.1039
28038W        W43932  17.293   1.143  12.609 -0.0631  0.1229  0.2746
28039W        W43933   3.044   9.367   3.834 -0.2061 -0.0290  0.2764
28040W        W43934  18.134   2.870   1.111 -0.0017  0.0186 -0.0252
28041W        W43935  14.526   4.720  15.092  0.1827 -0.1126  0.2389
28042W        W43936   3.432   3.721  12.555 -0.2376  0.0079  0.0592
28043W        W43937  17.371   0.540   1.278 -0.0611 -0.0846 -0.0675
28044W        W43938   4.618   2.753  13.942 -0.0863 -0.2203 -0.4555
28045W        W43939   8.634   0.917  12.638 -0.1977 -0.1305 -0.2718
28046W        W43940   8.589   7.218  11.939  0.1253  0.0977  0.0053
28047W        W43941   1.932   2.031   2.521 -0.1205  0.0657 -0.0979
28048W        W43942   7.005  10.071  11.227  0.1367  0.0883  0.0789
28049W        W43943  14.153  11.021   1.775 -0.0868  0.1612  0.1061
28050W        W43944  18.414  16.188  12.871 -0.3158 -0.0101  0.1435
28051W        W43945  10.279   5.524  12.121  0.3982 -0.0282  0.0861
28052W        W43946   0.523  17.199  14.623 -0.1336  0.1784  0.0358
28053W        W43947   8.623   5.903  12.412 -0.1931  0.0462 -0.1239
28054W        W43948  11.706  14.274   1.662  0.2300 -0.1483  0.1770
28055W        W43949  15.944  14.037  14.292 -0.0937 -0.0979  0.0413
28056W        W43950   2.831  10.364  13.034 -0.0337 -0.2270 -0.0927
28057W        W43951  17.153   9.187   3.598 -0.2489 -0.0151  0.0577
28058W        W43952  12.748   9.718   2.070  0.0624 -0.0715  0.1803
28059W        W43953  18.268  10.060   3.616 -0.0454  0.2870 -0.2971
28060W        W43954  13.826  10.980   1.315  0.0084  0.3678 -0.1073
28061W        W43955  10.535  15.366   4.970  0.1743 -0.2106 -0.0791
28062W        W43956  15.819  12.056   3.604 -0.3434  0.0037 -0.0441
28063W        W43957   8.557  14.041   0.990  0.1804 -0.0588  0.0923
28064W        W43958   3.408   6.837  12.669  0.3154 -0.1781 -0.3586
28065W        W43959  17.687   0.480  13.843  0.1792  0.0625 -0.0353
28066W        W43960   6.366   2.898   2.993  0.2139 -0.0081 -0.1996
28067W        W43961   3.774   8.821  15.242  0.1096  0.1723  0.1404
28068W        W43962   3.014   6.160   3.333 -0.4356 -0.1730 -0.0111
28069W        W43963  13.719   5.081  14.755  0.0284  0.3525  0.0038
28070W        W43964  15.541   3.046   5.308 -0.1546 -0.1073 -0.2826
28071W        W43965  18.013  10.032   4.543  0.2071  0.5717 -0.1872
28072W        W43966   4.767  11.044   1.229 -0.2213 -0.1125  0.0517
28073W        W43967  13.075   2.673   3.933  0.1559 -0.0437 -0.1041
28074W        W43968  16.813  13.606   4.522 -0.0849  0.1618  0.1995
28075W        W43969   2.987  12.796   3.496  0.3121  0.0014 -0.0750
28076W        W43970  13.048  16.040  12.249 -0.0282 -0.1673  0.4706
28077W        W43971   2.402   3.890   2.635  0.1607  0.1798  0.3736
28078W        W43972   1.914  14.030   0.482  0.0256  0.2339 -0.2264
28079W        W43973  10.639   9.548   5.566 -0.1204 -0.1621 -0.3309
28080W        W43974   3.823   3.904   2.405 -0.0545  0.0691 -0.1798
28081W        W43975  17.589   7.675   1.042 -0.2380  0.0302  0.0141
28082W        W43976   8.933   1.882  12.207 -0.4386 -0.1590  0.0454
28083W        W43977  18.530   7.561   0.686 -0.0476  0.1296 -0.0156
28084W        W43978  14.466   1.658  14.327  0.0292  0.3566 -0.0452
28085W        W43979  12.673   9.205  10.936  0.3654  0.1242  0.0451
28086W        W43980   0.705   5.177   9.907  0.0864  0.2746  0.1540
28087W        W43981   9.752  17.571   2.271 -0.1113 -0.0189  0.0754
28088W        W43982  16.961   0.869  10.643 -0.1320  0.0938 -0.1907
28089W        W43983  17.316   7.029   2.186 -0.0894  0.0126  0.0226
28090W        W43984   5.550  14.521  14.858  0.0336 -0.1114 -0.2628
28091W        W43985  10.664   7.268   5.123 -0.1737  0.1311 -0.3988
28092W        W43986   6.266   5.509  14.323  0.2957  0.1442 -0.2844
28093W        W43987   9.350  17.486  10.973  0.1935  0.1464 -0.3417
28094W        W43988  14.570   6.314  12.078  0.0497  0.0132 -0.1014
28095W        W43989  17.179  16.223   2.664 -0.0616 -0.1431 -0.0552
28096W        W43990  15.553  10.345   3.931  0.1057 -0.0730 -0.2446
28097W        W43991   9.351  11.811   5.484  0.1827 -0.3054  0.1089
28098W        W43992  13.266   3.633  12.590  0.1060 -0.0633  0.1601
28099W        W43993   7.214   7.869  13.442  0.3585  0.1028  0.2923
28100W        W43994  15.747  18.069   5.345  0.4203  0.0062 -0.1171
28101W        W43995   1.952  16.833  13.683 -0.1877  0.1252 -0.2016
28102W        W43996  16.585   4.814   3.538  0.0064 -0.0205 -0.2330
28103W        W43997  11.528  12.632  14.713 -0.2486 -0.1006  0.1928
28104W        W43998   1.002   4.207  11.108  0.0880 -0.3824 -0.2012
28105W        W43999   6.347   0.046  10.198  0.0512  0.3210 -0.0608
28106W        W44000   0.971  13.933   5.132 -0.1844 -0.1808 -0.0866
28107W        W44001   7.777   4.810  11.081 -0.0964  0.3654  0.0829
28108W        W44002  16.601  10.161   2.698  0.0853  0.0425  0.1515
28109W        W44003   5.234   4.360   0.900  0.1578 -0.2373 -0.1056
28110W        W44004  17.786  18.557   1.523  0.0054 -0.0474  0.2879
28111W        W44005  17.320  15.480  12.047  0.3036  0.1387  0.5413
28112W        W44006  16.783   2.133   0.649 -0.3197  0.0276 -0.0416
28113W        W44007   0.240   2.013  14.802  0.1690  0.3605  0.2987
28114W        W44008   4.852  13.224   2.022 -0.0395  0.0772 -0.0279
28115W        W44009  18.758  13.662  11.748  0.1751  0.0507 -0.2006
28116W        W44010   9.004  16.401  13.623 -0.0166  0.0240 -0.1122
28117W        W44011   5.561  13.604  12.993  0.1508  0.1917  0.3238
28118W        W44012  18.571  13.125   3.176  0.1144  0.0766  0.1788
28119W        W44013   8.614  15.088   2.563  0.2428 -0.0025 -0.0901
28120W        W44014  16.409  15.233   4.090  0.0909 -0.1490 -0.1861
28121W        W44015   1.691  11.764   3.869 -0.3099 -0.0155  0.4794
28122W        W44016  18.444  12.837  14.202 -0.4971  0.0328  0.0960
28123W        W44017   4.557   4.882   2.096 -0.0894 -0.2073  0.0243
28124W        W44018   4.899   5.115  12.819  0.0422  0.0250 -0.2020
28125W        W44019  10.719  12.866   3.849  0.1423 -0.2772  0.4071
28126W        W44020  11.061   8.779  14.864 -0.0441  0.0539 -0.2524
28127W        W44021   1.432   4.601   9.846 -0.0391  0.3301  0.0082
28128W        W44022  17.833  14.371  12.647 -0.0834  0.1530  0.2053
28129W        W44023   9.724  13.225   0.039  0.0835 -0.0279 -0.0309
28130W        W44024  13.255   1.736   0.377  0.0705 -0.1503  0.2319
28131W        W44025  13.805  13.373  15.179  0.1778  0.0816 -0.0827
28132W        W44026  13.633  10.726   1.907 -0.0866  0.2038 -0.1441
28133W        W44027  12.950   3.339   4.811  0.0996 -0.0742 -0.0233
28134W        W44028   6.236   7.238  11.057 -0.2637 -0.0024 -0.0817
28135W        W44029  13.141   5.533  11.524 -0.0060  0.0665  0.1649
28136W        W44030   1.686   9.514  12.179  0.1723 -0.0552 -0.0388
28137W        W44031   3.541   7.568  14.961  0.0993  0.0942  0.0029
28138W        W44032  16.996  10.645   3.710  0.1432  0.0425  0.0545
28139W        W44033   9.431   2.768  14.987  0.1047  0.1057  0.0012
28140W        W44034  13.175   5.187  13.528  0.5630 -0.0384  0.1031
28141W        W44035  15.550   8.537  15.118  0.5322 -0.0618  0.0726
28142W        W44036   9.697   6.122  11.213  0.0173  0.0679  0.2504
28143W        W44037   6.991  12.518  13.063  0.0026 -0.1111 -0.2244
28144W        W44038   7.350  18.448  14.565 -0.1291  0.1256  0.0537
28145W        W44039   3.070  15.691   4.734 -0.1950  0.3012 -0.1894
28146W        W44040  17.287   3.587  12.608  0.7259 -0.0223  0.0012
28147W        W44041  13.933   7.150   3.873 -0.2586 -0.1271  0.0138
28148W        W44042  15.999   8.940  14.963 -0.0569 -0.1814  0.1358
28149W        W44043   3.230  10.687  14.561  0.0294 -0.1837  0.0578
28150W        W44044  11.995   6.082  13.736 -0.0503  0.1489 -0.0812
28151W        W44045  15.834   4.681   1.703  0.1230  0.2012 -0.2664
28152W        W44046  16.243   8.342   3.072 -0.1132 -0.1377  0.0442
28153W        W44047  16.211   2.253  12.313 -0.0884 -0.0500  0.0417
28154W        W44048   9.306   4.233   3.801  0.2318 -0.1168 -0.1488
28155W        W44049   5.776  16.273  14.081  0.0725 -0.0656  0.0390
28156W        W44050  15.469   7.700   3.433  0.0919 -0.0472 -0.2151
28157W        W44051  10.312  13.464  12.938  0.0600 -0.1229  0.0144
28158W        W44052  14.537   2.307   4.295  0.2024  0.4344  0.3971
28159W        W44053   8.148   1.940   2.282 -0.0682  0.2522 -0.2445
28160W        W44054   4.218   6.358   5.586  0.1135 -0.3973  0.1430
28161W        W44055   1.697   5.310  11.654 -0.1582 -0.0594 -0.1401
28162W        W44056   9.502   8.297  15.256  0.1443 -0.4151  0.0078
28163W        W44057  16.555  16.699   2.522 -0.0284  0.3619  0.4570
28164W        W44058   2.352   5.938   0.709 -0.1620 -0.0208 -0.0212
28165W        W44059   1.339   8.988  12.970  0.0969 -0.0667 -0.0582
28166W        W44060  13.290  10.492   3.865 -0.2426 -0.1864 -0.1147
28167W        W44061  11.649  18.298   0.584  0.0843  0.0943  0.2063
28168W        W44062  17.541  17.980  12.646 -0.0927 -0.1188 -0.2177
28169W        W44063   7.408   6.323  13.013 -0.0474  0.5458 -0.0307
28170W        W44064  15.976   2.128   4.061  0.0866  0.0971  0.1051
28171W        W44065  18.653   8.311   3.099 -0.0343  0.4083  0.2932
28172W        W44066   7.216  15.333  15.618 -0.0559  0.0506  0.0245
28173W        W44067   6.911   0.757   0.868  0.0125  0.0453 -0.1775
28174W        W44068   6.725  16.064  14.748 -0.1801 -0.0732  0.2279
28175W        W44069   3.995   1.205  15.226 -0.0187  0.0002 -0.3010
28176W        W44070  13.170  15.396   2.515 -0.1558 -0.0559  0.1839
28177W        W44071  18.752  16.105   3.781 -0.0679  0.0123  0.1729
28178W        W44072  17.010  17.176   6.069 -0.2869 -0.1653 -0.0484
28179W        W44073  17.597   9.913   2.935  0.3125  0.0239 -0.3184
28180W        W44074   6.943   1.753   3.431  0.0549 -0.0781 -0.0964
28181W        W44075   1.944   4.670  14.558  0.0043 -0.1539  0.2335
28182W        W44076   9.864  10.399   5.619 -0.0754  0.4249 -0.0573
28183W        W44077   1.807  17.413  14.230  0.2376 -0.0755 -0.1567
28184W        W44078   8.320  11.344  15.105 -0.0997 -0.1096  0.0242
28185W        W44079  17.147   3.773  10.959 -0.0914 -0.2689 -0.0186
28186W        W44080   2.445  15.545   5.428 -0.2663 -0.0666  0.2552
28187W        W44081   1.835  15.043  13.448 -0.0956  0.0009 -0.0556
28188W        W44082   0.685  13.185  12.235 -0.0838 -0.0209  0.1594
28189W        W44083   8.896   1.657   2.893 -0.3173 -0.1170  0.0071
28190W        W44084   1.000   5.657  14.934 -0.0695  0.3019  0.0455
28191W        W44085  13.385  16.732   2.325  0.1004  0.0851  0.0171
28192W        W44086  10.426  14.820   2.565  0.0162 -0.0190  0.1138
28193W        W44087  13.174   0.768   0.172  0.0027  0.4286  0.2571
28194W        W44088  11.888   6.018  13.173 -0.0997  0.2068  0.3119
28195W        W44089  17.390   1.053  13.167  0.0247  0.0417  0.6714
28196W        W44090   0.829   0.554   2.451 -0.2812  0.1507  0.1885
28197W        W44091  13.070  15.724  13.403  0.1310 -0.1174  0.0836
28198W        W44092  17.880  12.617   1.025  0.0207 -0.3833 -0.1844
28199W        W44093   1.210  11.667   3.859 -0.1185 -0.0698 -0.1635
28200W        W44094   7.690   8.015   5.169  0.0586 -0.1571  0.0692
28201W        W44095   6.628   4.586  14.478 -0.1233  0.1900 -0.1275
28202W        W44096  18.310   4.189  14.575 -0.0696 -0.0313 -0.3508
28203W        W44097  16.070   5.733   3.326 -0.3983  0.2287 -0.1132
28204W        W44098   3.750   5.364   3.592 -0.0320  0.1723  0.1064
28205W        W44099   5.351   6.217   2.703  0.0393  0.1386 -0.0038
28206W        W44100   8.660  15.417  11.239  0.1505 -0.1878 -0.1827
28207W        W44101  12.318   6.926  11.653 -0.1117  0.0048 -0.6396
28208W        W44102  10.867  11.593   4.444 -0.1736  0.1626  0.0073
28209W        W44103   8.737   5.057   3.998  0.3148  0.2004 -0.0683
28210W        W44104   5.257  16.932   0.815 -0.1173 -0.1845 -0.2112
28211W        W44105  12.359  17.181   1.142 -0.1180  0.0811  0.2363
28212W        W44106   9.023  14.555  12.703 -0.1436  0.0441 -0.2459
28213W        W44107   1.416   0.309  13.054 -0.0506  0.0057 -0.1281
28214W        W44108   2.742   7.812  10.169  0.2066 -0.0287 -0.1493
28215W        W44109   9.120  14.658   0.118  0.0826  0.0961  0.0885
28216W        W44110   8.681   5.156   1.897 -0.0647 -0.1239 -0.1424
28217W        W44111   5.017  10.885   0.180  0.2168 -0.1171 -0.1085
28218W        W44112  10.098   3.848   3.046 -0.1231  0.0758  0.1653
28219W        W44113   8.010   8.166   2.603  0.0436 -0.0167  0.0113
28220W        W44114   1.592   0.996  11.141  0.2332 -0.1907 -0.1139
28221W        W44115  15.773  12.791   2.078 -0.0542 -0.0448  0.0238
28222W        W44116  18.532   0.741  12.621 -0.0841  0.1256  0.2352
28223W        W44117   3.528  10.284   0.532  0.3109 -0.0641 -0.2217
28224W        W44118  13.426   3.398  13.444  0.1152  0.2010  0.0977
28225W        W44119   1.032   9.860   4.198  0.0508  0.2673 -0.2389
28226W        W44120  16.407   6.725   3.066 -0.1526  0.0582 -0.0447
28227W        W44121   3.773  12.559   3.280 -0.0706 -0.1844 -0.1279
28228W        W44122  18.198  18.560   5.522  0.3023 -0.1955  0.3694
28229W        W44123   9.691   1.448  11.485  0.0077 -0.1297  0.1673
28230W        W44124   3.836  10.640   0.465  0.4513 -0.0587  0.1212
28231W        W44125  18.287  15.656  10.498 -0.0718 -0.0387  0.2408
28232W        W44126   1.085  11.393   3.473 -0.1327  0.0050  0.0924
28233W        W44127  18.338   5.128  11.125  0.2104  0.1657 -0.0559
28234W        W44128  16.827   8.850   2.360  0.1157  0.1472  0.0007
28235W        W44129   3.544   8.388   0.531  0.0131 -0.1641 -0.3443
28236W        W44130   7.457  16.606  11.186  0.2521 -0.0756 -0.0803
28237W        W44131   8.534  13.145  13.738  0.1807  0.1447  0.1379
28238W        W44132  14.147   9.045  14.926 -0.0331  0.0735 -0.6018
28239W        W44133  12.599   0.079  13.074 -0.1276 -0.1842 -0.1170
28240W        W44134  14.784  12.510   1.190  0.0181 -0.1916  0.0058
28241W        W44135   8.133   4.937  13.929  0.1932  0.3394 -0.1320
28242W        W44136  17.975   7.907  15.551 -0.1608  0.1652  0.3598
28243W        W44137   2.692   9.734  14.516 -0.1990 -0.1462  0.1248
28244W        W44138   6.174   6.363  15.401 -0.3873  0.1021 -0.0320
28245W        W44139   6.876   0.241   2.622  0.0078 -0.0833 -0.1539
28246W        W44140  14.360   7.944  13.098 -0.0790 -0.0012 -0.0931
28247W        W44141  12.754  15.650   2.662 -0.1685 -0.0185 -0.2094
28248W        W44142   6.466  11.875  13.804  0.1458 -0.1500  0.0092
28249W        W44143   5.158  16.196   5.540  0.1027  0.1863  0.1174
28250W        W44144  13.325  14.243   1.944 -0.2889 -0.1463 -0.0168
28251W        W44145   8.386   4.339   0.843  0.4591 -0.1523 -0.2884
28252W        W44146   8.409   6.008  13.838 -0.1891 -0.0897 -0.0441
28253W        W44147  15.761   1.626  10.070  0.0697 -0.0969 -0.0705
28254W        W44148  17.410   5.878  13.082 -0.0133 -0.0543 -0.0855
28255W        W44149  14.604  18.468   4.698 -0.0810 -0.0612 -0.0999
28256W        W44150  17.625  16.336  10.672 -0.1241 -0.2159 -0.1658
28257W        W44151   6.922   6.575   2.998 -0.0048 -0.3363  0.0812
28258W        W44152   9.451   1.619   3.002 -0.0222  0.1052 -0.0792
28259W        W44153  12.763  10.143   5.518 -0.1035 -0.0705 -0.0942
28260W        W44154  16.487   4.539  14.652  0.0063  0.3927 -0.4980
28261W        W44155   8.875   3.482   0.736  0.0092 -0.1444 -0.0532
28262W        W44156   3.736  15.770   0.536 -0.0695 -0.0811 -0.1783
28263W        W44157   5.698   0.220  15.619  0.1962 -0.1226  0.2148
28264W        W44158   2.199   2.794   3.683  0.1178 -0.2964 -0.0356
28265W        W44159   9.316  17.814  14.179  0.4297  0.0221 -0.3014
28266W        W44160   5.110  17.028   5.663 -0.1124  0.1304 -0.2766
28267W        W44161  17.963   4.554   2.414  0.3387 -0.0699  0.1171
28268W        W44162   4.631  15.602  10.477  0.1765  0.1276  0.1916
28269W        W44163  14.714  10.761  15.621 -0.5250 -0.0155  0.2874
28270W        W44164   4.905  11.874  13.588 -0.2599 -0.0088 -0.0900
28271W        W44165   9.445   0.758   0.593 -0.0284  0.2307 -0.0367
28272W        W44166  10.143  14.626  11.209  0.0378  0.0644 -0.0038
28273W        W44167   2.368   9.514  14.178 -0.1699 -0.1735  0.0474
28274W        W44168  18.750  10.757  13.955  0.0183  0.0492  0.1720
28275W        W44169   0.233   3.465  11.711  0.0964 -0.1089 -0.1611
28276W        W44170   8.921   4.079   1.012 -0.1136 -0.0912 -0.2537
28277W        W44171  17.274  12.144  15.399  0.1761  0.0284 -0.0477
28278W        W44172  10.601   6.469  12.715  0.3468 -0.1097  0.2534
28279W        W44173   2.586   8.984   1.417  0.0031 -0.1887 -0.0051
28280W        W44174  16.425   7.424   0.627  0.0264 -0.1002  0.2829
28281W        W44175  10.487   2.390  13.037 -0.2558 -0.0686  0.3137
28282W        W44176   0.632   6.864  11.501 -0.3426 -0.3341  0.1845
28283W        W44177   7.159  17.945  12.876  0.1781 -0.1455  0.0478
28284W        W44178  10.219   7.922  13.083 -0.1107  0.3969  0.2771
28285W        W44179   0.130   6.327  12.075 -0.0371  0.2311 -0.4073
28286W        W44180   1.277   0.207  12.068 -0.1244 -0.0159 -0.1390
28287W        W44181  16.273   9.807   3.257 -0.1699  0.0025  0.0568
28288W        W44182  15.415   6.122   0.469  0.1053 -0.3112  0.1240
28289W        W44183  16.627  17.750   0.626 -0.0994 -0.0378 -0.3883
28290W        W44184  14.024  14.095   2.499 -0.2481 -0.0245  0.0918
28291W        W44185   1.024   8.681   5.155  0.3790  0.0469  0.0454
28292W        W44186   2.824   4.781  14.681  0.2684  0.1336  0.1410
28293W        W44187   1.488  14.164  12.373  0.2002 -0.0541  0.1615
28294W        W44188   8.357   6.930  14.160  0.0996 -0.0040  0.0249
28295W        W44189  17.720  10.901   4.856 -0.1760  0.0838 -0.1399
28296W        W44190  18.266   9.556   4.345 -0.0453 -0.2341 -0.0326
28297W        W44191  17.167  13.707  12.702  0.0361 -0.1523  0.1075
28298W        W44192   2.554   0.337   2.725  0.0494 -0.0528  0.2686
28299W        W44193   9.645   7.107   1.875 -0.1650 -0.0585  0.0893
28300W        W44194  13.710   5.701   3.671 -0.1559 -0.2632 -0.1634
28301W        W44195  15.599  11.108   5.358  0.2925 -0.2310  0.1333
28302W        W44196  17.804  11.301   0.139 -0.3134  0.2640  0.0646
28303W        W44197  13.820   5.751   5.290 -0.1413 -0.2661  0.1541
28304W        W44198   7.428   7.754   5.505  0.2308 -0.1477 -0.0410
28305W        W44199   0.062   3.663  13.429 -0.1029  0.0803 -0.0248
28306W        W44200  15.110  15.442   2.152 -0.1841  0.2783 -0.0058
28307W        W44201   1.669   6.340   4.880 -0.4216  0.0064  0.2015
28308W        W44202   7.850   1.403  12.719 -0.1128  0.2615 -0.0332
28309W        W44203   2.362   6.235  14.819  0.0032 -0.0440  0.0749
28310W        W44204  12.975  14.151   2.376  0.2508 -0.1209  0.1398
28311W        W44205   5.342  16.061  13.241  0.0101  0.1382  0.1584
28312W        W44206   6.992  12.083  10.353  0.2448  0.0925 -0.2239
28313W        W44207   9.451   5.340  11.975 -0.0702  0.0182 -0.1138
28314W        W44208   3.487  16.469  14.448  0.3004 -0.0828  0.3208
28315W        W44209  10.999   5.773  11.344 -0.1894 -0.0537 -0.0574
28316W        W44210  14.640  18.612   0.209  0.4516  0.2821  0.3004
28317W        W44211   2.955  16.398   0.256  0.0768 -0.0320 -0.0883
28318W        W44212   9.027   8.650   2.422 -0.0959  0.0850  0.0900
28319W        W44213   4.667   6.595   2.107 -0.3749  0.0570  0.2066
28320W        W44214   2.260   8.273  11.636  0.0768 -0.0661  0.3536
28321W        W44215   5.672   2.178   0.729  0.0867 -0.2434  0.1379
28322W        W44216  12.663  16.512   1.743 -0.3156  0.0626 -0.3473
28323W        W44217  10.005   6.775   2.015  0.0317  0.1003 -0.1504
28324W        W44218  13.952   7.349  12.465 -0.0896 -0.0339 -0.0078
28325W        W44219   7.347   6.953   3.608  0.2450  0.0651  0.0470
28326W        W44220  15.431  14.896  12.669 -0.1987  0.2558 -0.0987
28327W        W44221   8.246  18.175  11.684 -0.1175 -0.2082  0.0100
28328W        W44222  12.748  17.850  14.517 -0.0195  0.2712  0.0965
28329W        W44223   8.473  13.662   2.273  0.1154 -0.0442  0.1493
28330W        W44224  16.018  14.393   5.474 -0.2561 -0.0830  0.1078
28331W        W44225  12.003  10.548   3.857  0.1239  0.0043  0.0685
28332W        W44226   8.464  13.728  10.817 -0.3135 -0.0717  0.1707
28333W        W44227  18.104  13.873  12.926  0.1264 -0.2037 -0.2942
28334W        W44228  17.205   7.396  15.540  0.4330 -0.1963 -0.3924
28335W        W44229   5.575  10.357   1.980  0.2963  0.0075 -0.0558
28336W        W44230   6.266  16.851   3.694 -0.1579 -0.2311 -0.0027
28337W        W44231  10.373   9.458   0.037 -0.0402 -0.1335  0.1247
28338W        W44232   3.688   6.071  14.612 -0.1086 -0.0420  0.3661
28339W        W44233  15.758  13.710   3.377 -0.2483 -0.2649  0.0130
28340W        W44234  12.583  16.102   1.440  0.0126  0.0031 -0.3570
28341W        W44235   5.788  18.217  13.555 -0.1107 -0.0741 -0.0502
28342W        W44236  13.277   1.161  11.284 -0.1212  0.0217  0.0537
28343W        W44237   7.643  12.713  13.098 -0.1220 -0.0039 -0.1897
28344W        W44238   6.125  13.189   2.079 -0.2005  0.0743 -0.0464
28345W        W44239  14.317   1.184   2.690  0.1147 -0.2723 -0.3329
28346W        W44240   4.384   0.301   4.796 -0.3167 -0.2723 -0.0484
28347W        W44241  15.537  18.558   2.378  0.3910  0.0221 -0.0616
28348W        W44242  14.880  12.546  12.311  0.2095 -0.4743  0.0026
28349W        W44243  11.251   5.990  12.568  0.0712 -0.1465 -0.2648
28350W        W44244  14.416   5.737  12.019 -0.0026 -0.1673  0.1596
28351W        W44245   5.011   9.631  10.620  0.1641 -0.4651  0.3073
28352W        W44246  11.034   5.139  15.068 -0.0276  0.0053 -0.1346
28353W        W44247  11.120  13.724   1.918 -0.1064 -0.2505 -0.0409
28354W        W44248   1.640   7.841  15.498  0.0403 -0.3368  0.1979
28355W        W44249   9.628   8.880  11.368  0.0560 -0.0166 -0.2355
28356W        W44250  18.584   6.902   2.715 -0.2601 -0.3584 -0.0763
28357W        W44251  12.068   3.705   0.740 -0.1305 -0.0690 -0.1226
28358W        W44252   5.162   9.762   4.620  0.3974  0.0291 -0.0116
28359W        W44253  15.958   9.997  14.110 -0.7138 -0.0717  0.1630
28360W        W44254   9.047   0.900  11.945 -0.2928  0.1038 -0.2820
28361W        W44255  14.569   7.493   1.172 -0.0037  0.4626 -0.1173
28362W        W44256   5.113   8.819   0.556  0.0374  0.5057  0.0704
28363W        W44257  10.275  15.259   0.607  0.0098 -0.2078 -0.3929
28364W        W44258  16.277   1.256   3.567 -0.1235 -0.0399  0.4284
28365W        W44259   1.647   4.483  12.852  0.1928 -0.2091  0.1532
28366W        W44260  12.790   9.962   4.116 -0.0353  0.2051 -0.1893
28367W        W44261  12.074   7.953   2.272  0.0588 -0.0779 -0.2112
28368W        W44262  14.795  17.137   3.408 -0.2031  0.3032 -0.3038
28369W        W44263  13.577   8.531   1.640 -0.2225  0.1874  0.2204
28370W        W44264  12.556   1.131  10.839  0.0730  0.0486 -0.1369
28371W        W44265  14.166  15.972  11.403  0.0707  0.0289 -0.0990
28372W        W44266  16.699   3.586   4.410  0.2887  0.4730 -0.0659
28373W        W44267  18.589  14.829  11.089  0.2147  0.2291  0.1668
28374W        W44268   1.524   8.470  13.598  0.2429  0.4110 -0.0452
28375W        W44269   1.167  16.959   3.643  0.0160  0.1336  0.3750
28376W        W44270   5.687  10.278   4.696  0.0380 -0.1236  0.1503
28377W        W44271  18.094   1.708   2.402 -0.2535 -0.0504  0.1065
28378W        W44272   2.003   8.564   2.858  0.3544 -0.2389 -0.0568
28379W        W44273   7.725  18.395  13.637 -0.0321 -0.0336  0.0630
28380W        W44274  13.628   7.513  14.088 -0.5366 -0.0592 -0.0441
28381W        W44275  18.291   0.726  11.677 -0.0488 -0.2453  0.0806
28382W        W44276  11.027  13.785  14.104 -0.2269 -0.5109 -0.0884
28383W        W44277   5.845  18.469  14.429  0.0963  0.1033 -0.0817
28384W        W44278   9.669   5.392   0.512 -0.0805  0.0207 -0.1472
28385W        W44279   6.632  16.328  12.554 -0.2165 -0.0510  0.0820
28386W        W44280   5.454  11.720   9.837  0.2340  0.1566  0.3077
28387W        W44281   0.594   6.725   3.841 -0.0463 -0.0270  0.1478
28388W        W44282  13.093   8.686  12.274 -0.0954 -0.2854  0.3714
28389W        W44283   7.510  13.330  15.627 -0.1495 -0.1322  0.2804
28390W        W44284  10.418   0.766  10.931  0.0934  0.0679 -0.1296
28391W        W44285  17.499   2.692  11.904 -0.2255  0.1027  0.0339
28392W        W44286  14.439  12.399   4.622  0.2471 -0.1891  0.1726
28393W        W44287  18.677   7.532  14.401  0.1322 -0.0151 -0.2750
28394W        W44288  16.085  17.477  12.077  0.0870 -0.1855 -0.1411
28395W        W44289   6.683  13.925  10.974  0.3009 -0.0015  0.1502
28396W        W44290  10.944   7.074   5.533  0.3272  0.0576  0.2559
28397W        W44291   3.581   4.449  14.997  0.2745 -0.0469 -0.0593
28398W        W44292   6.130  10.516  13.243  0.1565 -0.1211  0.1166
28399W        W44293   8.089   3.603  10.534  0.1577  0.4925 -0.2396
28400W        W44294   4.545   7.523   0.180 -0.0599 -0.1680 -0.1671
28401W        W44295   6.164  17.871  12.335 -0.3059 -0.0743 -0.1958
28402W        W44296   0.466  11.211   2.594 -0.0107 -0.0286 -0.0247
28403W        W44297  14.583   5.917  12.507  0.2024  0.0244  0.3022
28404W        W44298  11.062  13.702   4.581  0.0176 -0.2510  0.1576
28405W        W44299   2.511  12.359  14.561  0.0005 -0.1230  0.1554
28406W        W44300  18.031  16.431  11.612 -0.1010 -0.1105  0.0848
28407W        W44301   3.225  15.248   5.138  0.1343  0.0231  0.2182
28408W        W44302  15.380  12.571   2.968 -0.0240  0.0528  0.1804
28409W        W44303   1.495   9.918   4.127  0.2043  0.0355 -0.0683
28410W        W44304  18.753   8.436   0.421  0.1452 -0.0295  0.4409
28411W        W44305  15.759   9.910   3.712 -0.1043  0.2433 -0.3123
28412W        W44306  14.924   7.495   5.461 -0.2500 -0.0319 -0.0787
28413W        W44307   1.047  10.368  15.307  0.1883 -0.0594  0.1221
28414W        W44308  13.557   6.825  12.409 -0.2080 -0.1221 -0.1133
28415W        W44309   4.105   0.005  12.712 -0.0617 -0.2486  0.5074
28416W        W44310   8.215   4.658   2.193  0.2416  0.0059 -0.0685
28417W        W44311   6.154   1.734   4.159 -0.1614  0.1276 -0.1861
28418W        W44312  14.014  17.036   0.481  0.1120  0.2601  0.2946
28419W        W44313   2.004  16.579  15.548  0.0682 -0.1391  0.1169
28420W        W44314   6.635  13.154  13.875  0.0229 -0.3014 -0.1270
28421W        W44315   2.723   6.564   0.126  0.0126 -0.1628 -0.1461
28422W        W44316   1.802   5.387  14.099 -0.1234  0.1890 -0.2186
28423W        W44317  16.784   2.319  13.025  0.0232 -0.0879 -0.0845
28424W        W44318  16.108  12.037  13.960 -0.1176 -0.2871 -0.0017
28425W        W44319  13.501  15.129   1.841  0.2203  0.2408 -0.1645
28426W        W44320   7.320   3.876   2.475  0.1281 -0.2685  0.3958
28427W        W44321  15.236   3.788  13.741  0.0528 -0.6240 -0.0787
28428W        W44322   8.967  14.476   4.518  0.1167  0.0482  0.1164
28429W        W44323  16.522   1.149  12.009 -0.0451  0.0372 -0.0203
28430W        W44324   6.681  18.436  14.503 -0.0738 -0.0316 -0.0449
28431W        W44325  14.199   4.038  14.450  0.1339  0.2610  0.1802
28432W        W44326   8.217  13.253   2.209 -0.0918 -0.0499 -0.1665
28433W        W44327  12.927  12.519   3.263 -0.1265  0.0732 -0.0565
28434W        W44328  15.346  16.100  12.959  0.4307  0.2207  0.0820
28435W        W44329   5.599  17.207  10.897 -0.1378  0.1151  0.0129
28436W        W44330   6.973   0.160   4.066 -0.1407 -0.2382 -0.2461
28437W        W44331  16.822   6.868   3.647 -0.3067 -0.2668  0.0421
28438W        W44332  18.019   1.023   5.085  0.3118  0.0708 -0.3564
28439W        W44333   8.044   6.395   5.021 -0.0276 -0.1975  0.1265
28440W        W44334   1.263   7.623   2.560  0.2281 -0.1268  0.1039
28441W        W44335   7.099  12.525  10.113  0.2863  0.0445 -0.0213
28442W        W44336   9.333  10.915   0.381  0.1054 -0.5545 -0.3751
28443W        W44337  14.323  13.081   6.293  0.2001 -0.0078  0.0747
28444W        W44338   2.061   8.772   0.179 -0.1782  0.1291  0.1353
28445W        W44339   5.056  12.462   0.038 -0.1621 -0.0429 -0.1374
28446W        W44340   9.569   7.010   1.236 -0.4468  0.1028  0.3128
28447W        W44341   3.951   8.892   3.352  0.0854 -0.1804  0.0559
28448W        W44342  15.727  18.735  12.323  0.1133 -0.1629 -0.0507
28449W        W44343   9.273  17.426  14.557 -0.0137  0.0923  0.2284
28450W        W44344   6.119  15.344  13.387  0.0747 -0.2935 -0.0866
28451W        W44345   2.904   8.334   4.525  0.0214 -0.0468 -0.5365
28452W        W44346   4.078   9.003  12.281 -0.1551 -0.0205  0.1298
28453W        W44347  17.915   5.605  12.882  0.0024 -0.1938  0.2425
28454W        W44348   5.172   0.256  15.602  0.0779 -0.0726  0.3297
28455W        W44349  16.931   0.580   1.012 -0.1008 -0.0987  0.1191
28456W        W44350  16.268  15.168   1.775  0.0700  0.2214  0.1040
28457W        W44351   0.301  13.763   3.807 -0.3616 -0.1122 -0.3532
28458W        W44352  12.211   8.567  15.484  0.1276  0.0670  0.1031
28459W        W44353  14.816   8.760   0.126  0.0410  0.0653 -0.2153
28460W        W44354   3.842  18.151   3.731 -0.3114 -0.0862 -0.1897
28461W        W44355  12.891   3.318  12.528 -0.3784 -0.0042 -0.0631
28462W        W44356   3.894   6.029  12.992  0.1552  0.0976 -0.1485
28463W        W44357  16.674  11.731   3.722 -0.1363 -0.3148  0.4075
28464W        W44358   1.357  10.202   0.223 -0.2350 -0.1478  0.3676
28465W        W44359  10.483   6.481   3.213 -0.1304  0.3357 -0.0654
28466W        W44360  13.977   3.085   2.921  0.1634 -0.2795 -0.2027
28467W        W44361   1.866  15.790   4.069 -0.0750  0.1067 -0.2788
28468W        W44362  16.074  17.053  13.676  0.0184 -0.0833 -0.2006
28469W        W44363   0.070   2.032  11.304  0.0087  0.0059 -0.1789
28470W        W44364   5.764   9.592   3.570  0.5842 -0.1079 -0.0816
28471W        W44365   2.989   2.047   3.204  0.2059  0.0219 -0.2359
28472W        W44366  11.899   7.114   1.865 -0.2630  0.0600 -0.0502
28473W        W44367  10.396   5.094  12.338 -0.2225 -0.3658 -0.1366
28474W        W44368  16.873   6.368  15.140  0.2223 -0.0775  0.0090
28475W        W44369  17.909  11.252  11.737 -0.3330 -0.0999 -0.0262
28476W        W44370   4.572   4.140  14.694  0.0335 -0.0218  0.0792
28477W        W44371   2.080  13.964  12.082 -0.2138  0.1376  0.2202
28478W        W44372  15.307  10.570   6.307 -0.0796  0.0801 -0.2314
28479W        W44373  15.714  16.074   2.799 -0.0123 -0.1200  0.0854
28480W        W44374  16.537  16.045   3.144 -0.0573  0.2200  0.3028
28481W        W44375   2.887  18.755  12.852 -0.0210  0.0289 -0.2001
28482W        W44376  12.680  10.528   5.897 -0.1596  0.3263  0.2427
28483W        W44377   8.248   6.453   1.054 -0.2823  0.1491  0.5301
28484W        W44378  11.476  11.108  13.586 -0.1492  0.0002 -0.1985
28485W        W44379   4.086  15.591   4.498  0.1280  0.0221  0.3286
28486W        W44380   0.028  12.788   4.558  0.0683 -0.1656 -0.2038
28487W        W44381   2.655  16.686  14.414 -0.0255  0.1659 -0.0100
28488W        W44382  18.494   2.151  13.884 -0.0889  0.1772  0.0510
28489W        W44383  16.098   2.550   1.361 -0.3880 -0.2582 -0.3790
28490W        W44384   8.219   8.151   2.151  0.1231 -0.0140 -0.1552
28491W        W44385   6.416  12.287   1.029  0.2317 -0.0654  0.0683
28492W        W44386  14.403  14.157   5.469  0.1061 -0.1044 -0.1595
28493W        W44387  17.327   4.637  10.709  0.2949  0.2778 -0.1082
28494W        W44388   4.890   2.766   0.720 -0.2867 -0.0037 -0.1413
28495W        W44389  12.305   8.458   0.330 -0.0840  0.2279 -0.1784
28496W        W44390  14.754  16.445  15.197  0.1855 -0.0764  0.0336
28497W        W44391  18.159  16.734  13.716 -0.0204 -0.0347  0.0438
28498W        W44392   7.268  12.625  14.161  0.3274  0.5313 -0.2329
28499W        W44393  12.233   0.746   3.708  0.1818 -0.0093 -0.1118
28500W        W44394  11.469   4.237  13.798  0.0457  0.3192 -0.0372
28501W        W44395   3.658  12.042  11.804 -0.2529  0.3565 -0.2866
28502W        W44396  11.230  18.652  13.266  0.0549  0.1085 -0.1055
28503W        W44397   7.512   0.077  12.043  0.1560 -0.1322 -0.1197
28504W        W44398   3.158  18.560  15.011 -0.0622 -0.0056 -0.2815
28505W        W44399  16.261  17.829  11.382 -0.0351  0.1016 -0.2085
28506W        W44400   2.476  17.201  15.045  0.0079 -0.3414  0.2533
28507W        W44401   5.133  11.703   0.992 -0.2650  0.0429  0.0094
28508W        W44402  15.616   0.954   5.549 -0.0626 -0.0642 -0.0459
28509W        W44403   9.565   7.641   3.955 -0.2081  0.2108  0.2767
28510W        W44404  14.652  16.863  10.990  0.0078  0.1671 -0.1962
28511W        W44405  15.939   2.930  14.285  0.0468  0.1327 -0.0102
28512W        W44406  12.693   0.008   1.281  0.1198 -0.0582  0.1135
28513W        W44407   8.118  17.198   4.197  0.0017 -0.1920 -0.0177
28514W        W44408   5.027  18.730  12.590 -0.0607 -0.1746  0.0128
28515W        W44409   5.638  12.597  14.739  0.1962  0.0355  0.1217
28516W        W44410   4.311  14.240  14.277 -0.0811  0.1120  0.1689
28517W        W44411   0.705  14.052   3.284  0.0089 -0.3614 -0.2590
28518W        W44412   9.576  11.007  12.746  0.0259  0.0766  0.2351
28519W        W44413  14.921  17.230   0.760 -0.0808  0.3059 -0.1561
28520W        W44414   3.685   2.441  13.971 -0.1170 -0.0748  0.2793
28521W        W44415   1.350   4.331   5.393  0.1526  0.4613 -0.1024
28522W        W44416  10.586  16.674   0.843  0.2014  0.0293 -0.1739
28523W        W44417  17.724  15.450   5.121 -0.0098 -0.1183 -0.0179
28524W        W44418   4.529  16.358  12.400  0.1392 -0.1253 -0.1491
28525W        W44419   3.400  13.590   0.859 -0.2281  0.2761  0.2272
28526W        W44420  14.647   5.922  15.385  0.1882  0.0061 -0.0971
28527W        W44421  14.799  14.798   0.619  0.1313 -0.1846 -0.1345
28528W        W44422   7.823   5.252  14.444  0.0858  0.3307 -0.1352
28529W        W44423   5.600   4.209   9.773 -0.1556 -0.4613  0.0707
28530W        W44424   7.303   4.217  12.411  0.3105 -0.2329 -0.1487
28531W        W44425   4.853   3.378   4.611  0.0054  0.4845 -0.1442
28532W        W44426  13.458  15.889   5.747  0.1359 -0.4012 -0.0446
28533W        W44427   6.357  17.540   0.657 -0.4370  0.5777 -0.0145
28534W        W44428   2.409  17.383  11.658  0.0419  0.1065  0.1429
28535W        W44429  11.177   0.384   5.125  0.2398 -0.0673 -0.0118
28536W        W44430  18.080   2.381   1.218  0.4856 -0.1317 -0.3144
28537W        W44431  13.665   2.895  12.932  0.0974 -0.2248 -0.0019
28538W        W44432   1.517   6.914  10.710 -0.0245  0.2199 -0.1485
28539W        W44433   5.636   4.819   3.727 -0.1714  0.2293 -0.0506
28540W        W44434  18.164  13.259   0.525  0.2844 -0.0296 -0.1825
28541W        W44435   4.448  14.519  14.688  0.1506 -0.1742 -0.2076
28542W        W44436   3.691  10.547  14.378 -0.2095 -0.1084 -0.3487
28543W        W44437  10.415  14.038   1.263 -0.0119 -0.6932  0.0250
28544W        W44438  13.609  12.739   2.976 -0.1300 -0.1416 -0.4352
28545W        W44439  14.156   4.880   3.729 -0.0164 -0.1410 -0.0546
28546W        W44440  13.377  10.545   0.666 -0.1757  0.1327 -0.4899
28547W        W44441  16.244   7.803  14.334  0.0458 -0.2636  0.2900
28548W        W44442  11.074   9.566   1.086  0.1633 -0.2343  0.0437
28549W        W44443  13.030   0.140   5.125 -0.0284  0.0345  0.0454
28550W        W44444  12.018   6.458  11.718  0.0961 -0.1305 -0.0401
28551W        W44445   4.815   0.541  13.483  0.1411 -0.2178  0.2735
28552W        W44446  12.347   1.086  12.088 -0.0477 -0.3144  0.0980
28553W        W44447  17.742   1.442  11.388 -0.2812  0.1023  0.0711
28554W        W44448   9.995  18.548  11.062  0.1406 -0.0761 -0.4149
28555W        W44449  13.853   0.074   3.207  0.1437 -0.0188 -0.1753
28556W        W44450   4.364   7.578  10.624 -0.0742 -0.0569 -0.1830
28557W        W44451   3.127  14.722  13.815 -0.1094  0.0781 -0.1757
28558W        W44452   7.634   9.911  13.264 -0.3002 -0.0479  0.0445
28559W        W44453   5.068  15.823  10.389  0.1730  0.3070 -0.2094
28560W        W44454  11.299   6.518  14.322  0.2561  0.0121 -0.3547
28561W        W44455   7.205   9.551   4.406 -0.0809 -0.1895 -0.1743
28562W        W44456   9.710   1.710  11.045 -0.0443 -0.1830 -0.1235
28563W        W44457   0.662   2.537  13.715 -0.0601  0.2356  0.1518
28564W        W44458  17.585   1.488   5.769  0.2827 -0.0129 -0.4563
28565W        W44459  13.957   5.552   2.437  0.2201 -0.3612 -0.1355
28566W        W44460  16.393  11.755   0.988  0.2338  0.1448  0.0479
28567W        W44461  15.821   0.832  15.346  0.1369  0.3761  0.0647
28568W        W44462  10.261   4.830  12.752  0.0428  0.0554 -0.0309
28569W        W44463   1.580  10.596   2.542  0.4734  0.5170 -0.2495
28570W        W44464  16.935  11.602   5.257 -0.1945  0.0725 -0.0411
28571W        W44465  17.197   6.638   1.858  0.0873  0.0365  0.1595
28572W        W44466   9.109   8.404  14.489 -0.1725 -0.0119 -0.4192
28573W        W44467   8.796  10.273   0.804 -0.1321 -0.0682  0.2084
28574W        W44468  10.586   3.642  11.309  0.2629 -0.2166 -0.1284
28575W        W44469   6.789   9.794   0.062  0.2383 -0.4115  0.3163
28576W        W44470   0.219  13.649  15.111 -0.0718  0.1245  0.1442
28577W        W44471  12.264  16.907   2.413  0.1940  0.0719  0.1066
28578W        W44472  10.220  14.870   4.876 -0.0273  0.1498 -0.2931
28579W        W44473  11.928   3.821   4.450 -0.0748 -0.1043 -0.0284
28580W        W44474   1.505   6.443  10.951  0.2766  0.2607  0.0936
28581W        W44475  10.666   4.285   2.389  0.1802  0.3362  0.0086
28582W        W44476  13.419  12.651   0.019 -0.1104 -0.2125  0.3022
28583W        W44477   4.859   8.810  13.210  0.0020 -0.1665 -0.1157
28584W        W44478   9.323  17.102   3.422 -0.2850 -0.1297 -0.1399
28585W        W44479   2.007   9.315   4.793 -0.6862  0.1902  0.0003
28586W        W44480   0.172   7.904  14.170  0.1119  0.0828 -0.2802
28587W        W44481   2.172  10.213  11.218 -0.0546 -0.2177  0.1230
28588W        W44482   8.245   0.323  11.359  0.1126 -0.1254 -0.2135
28589W        W44483   9.931  15.862   1.437  0.2110  0.2911 -0.1555
28590W        W44484   7.450   3.361  12.937  0.0525 -0.1179 -0.1014
28591W        W44485   2.316   3.630  15.091 -0.0903  0.2676 -0.4550
28592W        W44486  14.892   4.820   1.505 -0.2679 -0.3834 -0.2459
28593W        W44487   9.451   1.968   0.552  0.1877  0.0248 -0.1969
28594W        W44488  18.148   9.547  13.531  0.1853  0.1452  0.2838
28595W        W44489  11.422   3.482   3.203  0.1814 -0.0452  0.1687
28596W        W44490  17.127   7.643  13.085 -0.2154  0.1347 -0.0110
28597W        W44491   0.592  10.681   0.167 -0.2624  0.1572 -0.5513
28598W        W44492  17.013  10.591  10.988 -0.4081 -0.4027  0.0445
28599W        W44493   3.963   7.657   0.941  0.2132  0.1604  0.2353
28600W        W44494   3.879   5.628   3.109  0.1569  0.2650  0.4057
28601W        W44495  18.535  10.941  15.333  0.1178 -0.0064  0.3515
28602W        W44496   5.906  10.269   1.580  0.0805  0.1743  0.1457
28603W        W44497   9.939  17.491   1.491 -0.2242  0.0708 -0.3696
28604W        W44498   2.807   6.996   0.355 -0.0327 -0.2809  0.2366
28605W        W44499   2.902   0.594  14.706  0.2564 -0.0519 -0.0040
28606W        W44500   6.280  10.272   4.676  0.1308 -0.0955  0.1365
28607W        W44501  17.925   2.910   5.588  0.2269 -0.0098 -0.1505
28608W        W44502   0.226  10.601  11.069 -0.2051  0.0497  0.2860
28609W        W44503  14.792  17.385   3.847 -0.0914 -0.0792  0.2189
28610W        W44504  17.779   9.422   2.493 -0.2669  0.0371 -0.2143
28611W        W44505  15.381  16.494   2.830  0.4093 -0.0045 -0.1732
28612W        W44506  16.811   8.140   4.687  0.0474 -0.0698  0.0307
28613W        W44507   1.645   2.490   0.916  0.1980  0.2329 -0.2436
28614W        W44508  14.400   3.012  12.541 -0.1017 -0.1259  0.1548
28615W        W44509  12.069   9.202  11.615 -0.1819  0.1303 -0.1058
28616W        W44510   2.193   2.742  14.097  0.2254 -0.1314  0.0314
28617W        W44511  12.328  17.429   2.069  0.1210  0.1194  0.0915
28618W        W44512  12.744  18.353  12.246  0.2267  0.2600  0.0826
28619W        W44513   2.441   1.792  13.759  0.0421  0.0716  0.2153
28620W        W44514  17.688   9.638  14.568 -0.0735  0.1019  0.2836
28621W        W44515  18.629   0.412  13.969 -0.3736 -0.3009 -0.1816
28622W        W44516   6.511  17.015   4.216  0.4486 -0.0288 -0.1443
28623W        W44517   5.134   4.965   1.444  0.3525 -0.2344 -0.0661
28624W        W44518   2.690  11.993   1.845  0.0309 -0.0597 -0.3008
28625W        W44519  15.160   7.021   5.323  0.1860  0.2910  0.1236
28626W        W44520  16.581   1.740   3.047 -0.2931 -0.0397 -0.1675
28627W        W44521   8.625   5.600   1.374  0.2553 -0.3228  0.1951
28628W        W44522  12.811   8.059  13.256  0.0546  0.2671 -0.2003
28629W        W44523   5.155  17.732  12.126 -0.1129  0.0791  0.0889
28630W        W44524   6.588   1.705   4.312  0.1584 -0.0649  0.3473
28631W        W44525  11.188  10.929  14.554  0.1947  0.3057  0.0521
28632W        W44526   9.065  10.696   4.082  0.0603  0.0566  0.3015
28633W        W44527  10.727  17.589  15.068 -0.0007  0.0807  0.0940
28634W        W44528   6.574   8.152   3.829  0.0928 -0.0262 -0.1060
28635W        W44529   3.077  12.349  13.191  0.0372 -0.0699 -0.0777
28636W        W44530   6.381  11.733   2.782 -0.1402 -0.0221  0.0565
28637W        W44531  13.143   3.649  15.020 -0.1572 -0.0238  0.0258
28638W        W44532   3.133  14.722  14.945 -0.0725 -0.1231 -0.1738
28639W        W44533  15.005  14.773   3.964  0.1043  0.1361 -0.0603
28640W        W44534  16.286  11.864   3.465 -0.2066 -0.0393 -0.1320
28641W        W44535  12.689  13.206  14.393 -0.1180  0.0117 -0.0263
28642W        W44536   5.760  15.309  11.881  0.0809  0.2227  0.3553
28643W        W44537   7.998   1.638   3.890 -0.0735  0.0957  0.1391
28644W        W44538  17.292  12.108  14.446 -0.3335 -0.0836  0.0978
28645W        W44539   5.314   1.315   0.761  0.1254 -0.1824  0.0785
28646W        W44540   9.688   9.580   1.736 -0.0097  0.3237  0.1029
28647W        W44541   6.345   8.501  13.808 -0.1911  0.0948  0.1025
28648W        W44542   9.757  15.199  13.688  0.0318 -0.1116 -0.0580
28649W        W44543   3.198   5.860  13.458  0.1153  0.1871  0.0714
28650W        W44544   0.136  11.771   5.845 -0.0287 -0.4357 -0.0715
28651W        W44545   2.595  14.161   1.400 -0.1309  0.3403 -0.0253
28652W        W44546   0.357   9.431  13.902  0.0223  0.0596 -0.0158
28653W        W44547  17.392  10.916  10.832 -0.1204  0.1991  0.0287
28654W        W44548   4.954   7.026   4.970  0.0830 -0.0542  0.1373
28655W        W44549   6.481   9.770   2.907  0.0670  0.2703  0.1204
28656W        W44550  17.171   4.509  15.464  0.0749 -0.1198 -0.1613
28657W        W44551   7.360   4.715  10.820  0.0061 -0.1036  0.2105
28658W        W44552  12.423  12.284  11.767  0.0717 -0.1128  0.3593
28659W        W44553  14.220  14.655   0.836  0.0771 -0.1872  0.0799
28660W        W44554   6.459  15.348   3.948 -0.1558 -0.5962 -0.1128
28661W        W44555  11.961   7.335   0.898 -0.1646  0.0489 -0.2134
28662W        W44556  17.323  10.865   3.051  0.0761 -0.0954 -0.1700
28663W        W44557   0.325  17.634  15.374  0.3015 -0.3543  0.0287
28664W        W44558   7.490  11.822  14.668  0.1042  0.2593  0.0991
28665W        W44559  15.207   9.176   2.613  0.0652 -0.2177  0.0696
28666W        W44560  17.962  10.264   3.038 -0.3037 -0.0623  0.0802
28667W        W44561  11.707  15.472  14.036 -0.0380  0.2899  0.1293
28668W        W44562  12.905  15.837   0.537  0.0192  0.2161  0.2180
28669W        W44563   1.224  13.398   0.463 -0.0986 -0.1448  0.3748
28670W        W44564   6.048  14.396   3.142 -0.0638  0.1016 -0.1660
28671W        W44565  13.787   5.144   2.833  0.2855  0.0291  0.0772
28672W        W44566  11.271  17.032   0.187  0.2011 -0.2038 -0.0682
28673W        W44567   9.013  14.204   0.902 -0.0711  0.0868 -0.0982
28674W        W44568  15.689   1.124  13.725 -0.2344 -0.1889 -0.2370
28675W        W44569  11.543   3.641  14.172  0.3784 -0.1926  0.1825
28676W        W44570   3.690  16.246  13.210  0.3219  0.1968 -0.2388
28677W        W44571  10.070   8.067  14.408  0.0087 -0.1165 -0.0090
28678W        W44572  12.424   6.845  15.246  0.3326  0.0729 -0.3744
28679W        W44573   1.137  13.758  13.201  0.0445  0.0188 -0.0963
28680W        W44574   9.081   7.135  13.694 -0.0083  0.0707  0.0059
28681W        W44575   4.474  12.007  15.366 -0.1706 -0.0740 -0.0274
28682W        W44576   6.678   1.495  12.801 -0.0835  0.0542  0.0733
28683W        W44577  13.745  12.683   0.681 -0.0137 -0.0775 -0.1565
28684W        W44578  11.520  11.313   5.149  0.0091 -0.2034 -0.0211
28685W        W44579  15.123  14.154   3.112  0.3719  0.0218 -0.3015
28686W        W44580   1.597   8.061  13.333  0.0041 -0.0420  0.1991
28687W        W44581  17.145   3.302   1.602  0.2658  0.0595 -0.4473
28688W        W44582   3.678   6.504   0.223  0.1877  0.0920 -0.0161
28689W        W44583   1.074   3.727  11.403  0.0219  0.0497 -0.0385
28690W        W44584   7.561  18.487   3.139  0.0198  0.0228 -0.1087
28691W        W44585   9.568   1.172   1.063 -0.0177 -0.2340  0.1891
28692W        W44586   1.766  16.182   4.557 -0.0555  0.0385  0.3547
28693W        W44587  13.433   0.958  14.786 -0.2189 -0.0720  0.1905
28694W        W44588  11.319   5.456   3.726  0.0799 -0.0541  0.1676
28695W        W44589   5.386   8.098   2.956  0.1224  0.0849  0.0786
28696W        W44590  10.798   5.618  14.311  0.0696  0.1696  0.1812
28697W        W44591   0.818  14.053  15.162  0.2197 -0.1474 -0.0268
28698W        W44592   0.230   1.295  14.235  0.0657  0.0839 -0.2963
28699W        W44593  18.464   4.687   2.599 -0.1359 -0.0270  0.0625
28700W        W44594  18.668  15.463  14.224 -0.2810  0.0978  0.0741
28701W        W44595  15.222   3.567   1.172  0.0809 -0.0432 -0.0494
28702W        W44596   2.818  10.084  14.871 -0.2938  0.0607  0.0297
28703W        W44597   3.512   9.378   2.595  0.1975 -0.1166  0.1936
28704W        W44598   7.771   6.384  11.330 -0.1127 -0.0094 -0.0389
28705W        W44599   8.832  16.476   2.260  0.0554  0.0418  0.2006
28706W        W44600   3.331   7.796   2.417 -0.0011 -0.4324 -0.3440
28707W        W44601  14.890   6.616   3.113  0.3171 -0.1696  0.3969
28708W        W44602  13.287  18.017   9.642 -0.0599  0.0250  0.1687
28709W        W44603  12.704  13.712   4.663  0.1900 -0.0516  0.0520
28710W        W44604  10.950   2.683  15.581  0.0083  0.1136 -0.0269
28711W        W44605   3.173   7.284   2.608 -0.1893  0.0482 -0.0035
28712W        W44606  11.978   5.835  14.444  0.4511  0.1723  0.3124
28713W        W44607   8.807   3.870   4.424 -0.2818 -0.0462 -0.2206
28714W        W44608  13.162   7.526  13.749 -0.0467 -0.0095  0.0820
28715W        W44609  18.752  14.795  12.414 -0.3316 -0.2275  0.3675
28716W        W44610   6.695  16.231   0.015  0.1110 -0.0497 -0.0418
28717W        W44611  12.134  14.009  14.725  0.0175 -0.0441 -0.3651
28718W        W44612  13.242  14.801   1.058 -0.3450  0.1597  0.3170
28719W        W44613  13.641  17.662  14.685  0.2034 -0.1955  0.1018
28720W        W44614  18.684   2.247  15.532  0.0589  0.0112  0.4113
28721W        W44615  14.542   7.486   3.349 -0.1678  0.0803 -0.2478
28722W        W44616  13.140  17.835   0.434 -0.3302  0.1283  0.0994
28723W        W44617   8.377   9.328   4.726 -0.2935  0.0676 -0.0840
28724W        W44618  15.712   1.728  13.778 -0.0115 -0.2187  0.2072
28725W        W44619   9.610  17.537   4.794 -0.1184  0.0529  0.1791
28726W        W44620   6.792  17.799   5.303  0.0434 -0.1838 -0.1572
28727W        W44621  14.562   4.471  12.263 -0.0085  0.1987 -0.0887
28728W        W44622  17.994   0.492  11.240 -0.1040 -0.2425 -0.1112
28729W        W44623  18.001   7.391   0.656 -0.0769  0.1224  0.3635
28730W        W44624  17.787   6.964   0.304 -0.0844 -0.1515 -0.1347
28731W        W44625   3.582   1.628   2.401 -0.1851  0.0756 -0.2915
28732W        W44626  11.309   7.610   3.272 -0.0803 -0.3345 -0.1061
28733W        W44627  10.483   1.853   3.289  0.0616 -0.0136  0.1849
28734W        W44628  13.108   7.620  14.264  0.1073  0.0898  0.0655
28735W        W44629   6.642   3.041  12.182 -0.1262  0.1512  0.1087
28736W        W44630  17.156   2.277   4.162 -0.0887  0.0958  0.4184
28737W        W44631  13.388  11.513   4.934  0.1923 -0.1909 -0.0213
28738W        W44632  11.123   4.958  15.513 -0.4513 -0.1408 -0.0732
28739W        W44633   8.291  16.244  12.960 -0.0917 -0.0276 -0.0910
28740W        W44634   1.913  15.027  14.609  0.2513 -0.0751  0.0498
28741W        W44635  12.119   0.440   1.993  0.2349  0.0531 -0.1949
28742W        W44636  17.430  17.229  11.749 -0.1937 -0.2013 -0.1000
28743W        W44637  18.676   2.234   4.786 -0.1893 -0.2645  0.2977
28744W        W44638  15.099  12.869  15.049 -0.4314 -0.2163  0.1161
28745W        W44639   8.109  17.774  10.171 -0.0129 -0.0492  0.1991
28746W        W44640  16.236  15.830   0.847  0.0937  0.2436  0.1289
28747W        W44641  12.234  10.918   1.235  0.2453  0.0379 -0.1825
28748W        W44642  15.701  10.421  11.143 -0.0606 -0.2275  0.0090
28749W        W44643  17.068   4.400  13.933 -0.0472  0.0509 -0.2690
28750W        W44644  10.003   7.193   0.509 -0.1261 -0.1797 -0.1198
28751W        W44645   4.098   9.985   2.037  0.1608 -0.0090 -0.0135
28752W        W44646   4.827  10.505  11.537 -0.2605  0.0980 -0.0698
28753W        W44647  18.108   9.669   4.963  0.1078 -0.0220  0.5921
28754W        W44648   8.300  16.727  12.260  0.0251 -0.0811 -0.1911
28755W        W44649   8.027   7.959  11.055  0.0175 -0.3198 -0.2502
28756W        W44650  17.489  12.864   3.625 -0.3135 -0.2077 -0.0789
28757W        W44651  11.084   0.682   2.814 -0.0360 -0.2169 -0.2164
28758W        W44652  11.694   1.637  14.962  0.3613  0.1309  0.1555
28759W        W44653   4.713   1.792  15.387 -0.4577 -0.1855  0.0877
28760W        W44654  14.952   6.064   3.966  0.1552  0.3036 -0.0664
28761W        W44655  12.921  16.866   0.668 -0.0046  0.1092  0.0318
28762W        W44656  18.593  14.638   1.124 -0.0757 -0.2360  0.2361
28763W        W44657  11.259   6.516  12.302  0.3201  0.0368  0.0421
28764W        W44658  10.920  15.508   1.493 -0.2541 -0.2886  0.0759
28765W        W44659   3.449  10.608   2.982 -0.0309 -0.0612  0.0751
28766W        W44660  15.978   0.004   2.492  0.1471  0.3033 -0.1080
28767W        W44661  13.782   6.350  14.242 -0.0239  0.0107  0.2363
28768W        W44662  11.514   8.809   0.943  0.3022  0.1214 -0.1151
28769W        W44663   1.713   0.490   3.322 -0.1498 -0.0653  0.1020
28770W        W44664   2.283   0.549   4.383  0.0098  0.1786  0.0275
28771W        W44665   0.296   1.477   5.075 -0.0837 -0.3277  0.2341
28772W        W44666  17.935  15.219  15.264 -0.0068 -0.0770 -0.0491
28773W        W44667   8.693   0.518   3.535  0.0562  0.1559  0.2335
28774W        W44668   4.676   4.988   1.194 -0.1002  0.1782 -0.1651
28775W        W44669  12.055  16.501   0.304  0.2433 -0.2086 -0.0169
28776W        W44670   0.193   3.591   1.965 -0.0607  0.0390 -0.0682
28777W        W44671   4.339   1.993   0.538 -0.0686  0.0543  0.2181
28778W        W44672   4.792   2.931  11.507  0.1602 -0.0726 -0.2807
28779W        W44673  15.064   4.405   3.611  0.1365  0.1415  0.2140
28780W        W44674  17.773   9.654  14.078 -0.1478  0.1621  0.0156
28781W        W44675  15.548   4.509   1.255  0.0455 -0.2753 -0.0723
28782W        W44676   7.278  15.710  13.514 -0.3477 -0.1398  0.1590
28783W        W44677  14.409   1.994  11.553  0.1117 -0.1089  0.0468
28784W        W44678   1.577  11.191   2.413  0.0087 -0.0400  0.2178
28785W        W44679   0.054  14.304   2.282 -0.2483 -0.0684 -0.0543
28786W        W44680  12.172  10.884   6.479  0.1331  0.0114 -0.0525
28787W        W44681  15.486   1.001   0.124 -0.2859 -0.3990 -0.2803
28788W        W44682   3.623  18.379  15.076  0.0576  0.1680  0.1385
28789W        W44683  16.074  12.632   2.500 -0.0634  0.0252  0.0693
28790W        W44684   1.261  12.161  14.410  0.1058  0.2119 -0.1850
28791W        W44685  14.260  18.119  15.149 -0.1651 -0.1092  0.1725
28792W        W44686   3.023   3.122  11.086 -0.0122 -0.0170  0.3311
28793W        W44687  18.718  10.122   5.349  0.0016 -0.3998  0.0610
28794W        W44688   1.047   1.874   2.901  0.0974 -0.0014  0.1614
28795W        W44689  12.750  11.712  14.680 -0.1931  0.0391  0.0994
28796W        W44690  12.163   9.418   3.336  0.1871  0.1193  0.1106
28797W        W44691   0.267  13.720  14.461  0.4219 -0.1933 -0.0839
28798W        W44692  15.670   4.048   4.286 -0.0915  0.0572  0.0811
28799W        W44693  11.759   8.411   2.099 -0.3115  0.2857  0.0172
28800W        W44694   2.487  13.008   0.951 -0.1096  0.1262 -0.2229
28801W        W44695  14.156  17.735  14.870 -0.0060  0.0222 -0.1173
28802W        W44696  17.780  15.331   2.042  0.0888  0.2276  0.0712
28803W        W44697  14.878   5.691  14.443  0.1775  0.0395  0.2421
28804W        W44698   7.840  16.057  12.993 -0.0810  0.1285 -0.0274
28805W        W44699   7.772   6.368  14.895 -0.0026 -0.2867 -0.0641
28806W        W44700   1.014   2.471   4.797 -0.2106 -0.0924  0.0143
28807W        W44701  12.618  18.696  15.472 -0.1390  0.4163  0.1061
28808W        W44702  15.915   1.275   3.195  0.2732  0.2472 -0.1236
28809W        W44703  11.973  13.230  15.401 -0.0907 -0.0148 -0.1560
28810W        W44704  16.710   0.191   5.090  0.1911 -0.0737  0.1876
28811W        W44705  16.776   9.325   0.645  0.3775  0.2240 -0.0267
28812W        W44706  11.734   8.614   0.072 -0.0418  0.1963 -0.0963
28813W        W44707   6.058   8.743  10.657  0.0381 -0.2748  0.2056
28814W        W44708  17.802   9.498  15.469 -0.2542 -0.0406 -0.1566
28815W        W44709  10.509   6.833   5.542  0.0420  0.2406  0.1015
28816W        W44710  18.343  12.188   3.487  0.0374  0.2973  0.0076
28817W        W44711  12.956   8.453  13.626 -0.2282  0.0013  0.1870
28818W        W44712  11.534  15.771   2.323 -0.0838 -0.0119  0.3696
28819W        W44713  14.647   7.960  12.641 -0.0324  0.1106 -0.2573
28820W        W44714  11.732   5.060  11.097  0.0540  0.0651  0.1150
28821W        W44715   8.133  16.317  11.401 -0.1538 -0.0809 -0.0989
28822W        W44716  17.879   5.363   2.026 -0.1216 -0.0372 -0.0955
28823W        W44717   1.944   3.245   3.777 -0.0621 -0.0325  0.1361
28824W        W44718  17.320   2.944   2.485 -0.0152 -0.2004 -0.0738
28825W        W44719   1.625  16.649   5.280 -0.0511 -0.2209 -0.3689
28826W        W44720  18.322  12.856  13.171  0.0403 -0.0876  0.0755
28827W        W44721  10.042   7.649  15.420 -0.1373 -0.3160  0.0579
28828W        W44722   5.705  16.730  12.906 -0.0605 -0.0756  0.2039
28829W        W44723  11.288   7.862   0.426  0.0608  0.0028  0.3990
28830W        W44724   7.024   7.872   1.729 -0.0474  0.2081 -0.0070
28831W        W44725   8.535   8.725   4.027  0.0334 -0.2203  0.0781
28832W        W44726  14.556   1.292   0.960  0.2465 -0.0383  0.0614
28833W        W44727  14.360  12.663   1.515  0.0204 -0.0111  0.3817
28834W        W44728   9.473  15.340   0.508  0.0331  0.2106 -0.2063
28835W        W44729   5.247  15.164  12.141 -0.3103 -0.0146  0.0120
28836W        W44730  12.184  11.346  15.256 -0.1283 -0.1548  0.1764
28837W        W44731   8.726  18.615  14.622 -0.2733  0.4288 -0.0730
28838W        W44732  16.820  11.085  14.085  0.1394 -0.2874  0.0449
28839W        W44733   2.042   7.022   3.810  0.0432  0.2659 -0.1075
28840W        W44734  13.738   0.656   3.264  0.3612  0.0907  0.0783
28841W        W44735   5.898   6.122  11.306 -0.2243  0.1481 -0.1745
28842W        W44736   0.056   5.483  13.551 -0.0072 -0.0339 -0.2648
28843W        W44737   9.558  17.596  12.899  0.0387  0.0943 -0.1252
28844W        W44738  17.635  18.555  15.452 -0.5557 -0.2525  0.1297
28845W        W44739  17.888  17.714  12.899  0.1421 -0.2153 -0.2074
28846W        W44740  18.439   9.333   4.826 -0.1173  0.0063  0.3122
28847W        W44741   4.220  15.909  12.507 -0.0267  0.1662  0.2181
28848W        W44742   3.938   9.628  14.022  0.0485  0.0012 -0.0292
28849W        W44743  11.260  15.276   4.229  0.1019  0.3091 -0.3888
28850W        W44744   2.034   5.640   5.195  0.1540  0.0317  0.2992
28851W        W44745  16.812  12.353   4.254 -0.2995 -0.0814  0.1619
28852W        W44746   4.428   5.798  14.433 -0.0021 -0.0545 -0.3340
28853W        W44747  10.078  17.360   3.494  0.1400  0.0551 -0.2397
28854W        W44748   6.411  10.392  12.789  0.0451  0.2452  0.3352
28855W        W44749   9.190   5.881  13.166 -0.1081  0.1313  0.5076
28856W        W44750   2.290   8.343  12.966 -0.4842  0.3628 -0.2978
28857W        W44751  12.919   0.494   0.464 -0.0620 -0.1040 -0.0299
28858W        W44752  16.826  18.093  15.260  0.1836  0.0255 -0.3967
28859W        W44753   0.425   9.130   0.849 -0.0904 -0.0060  0.0793
28860W        W44754   4.460   9.199   3.615  0.0437 -0.3885 -0.1871
28861W        W44755  14.946  16.876  14.024  0.0024  0.0095 -0.0902
28862W        W44756   8.351   2.929  11.502  0.1413  0.0716  0.1620
28863W        W44757   8.850   6.560   3.327 -0.1896  0.3197 -0.3903
28864W        W44758  11.084  13.061  12.045  0.0651  0.2403 -0.0475
28865W        W44759  18.013   4.775   1.587 -0.0864  0.2004 -0.1504
28866W        W44760   4.178  12.464  11.550  0.1909 -0.2763 -0.1622
28867W        W44761   4.370  14.932  14.443 -0.2069 -0.0563  0.1035
28868W        W44762   7.869  11.737   2.875  0.0460 -0.1154  0.1775
28869W        W44763   0.225  12.522   2.495 -0.0513 -0.2601 -0.1774
28870W        W44764  16.398   1.738  14.960 -0.1522  0.2889  0.2532
28871W        W44765   2.486   0.845   0.120  0.0829 -0.0780 -0.0297
28872W        W44766   8.852  14.090  10.792 -0.4769  0.0965 -0.2627
28873W        W44767   6.968  10.629  12.384 -0.2262  0.3488 -0.2845
28874W        W44768   2.416   1.951   4.167 -0.2839  0.0264  0.1245
28875W        W44769   5.006  18.006   0.115 -0.0932  0.3031  0.0346
28876W        W44770   3.196  11.822   0.660 -0.2237  0.0198 -0.2580
28877W        W44771  11.735  14.201   1.071  0.2161 -0.2746  0.0671
28878W        W44772   6.026   0.699   3.001 -0.2419 -0.0112 -0.1473
28879W        W44773  13.713  10.820  14.523  0.4203  0.1060  0.0785
28880W        W44774  12.273   8.878  12.706  0.0048  0.2702 -0.3021
28881W        W44775  17.562   7.963  13.895  0.0218 -0.2305  0.0435
28882W        W44776   6.969  14.876  12.519 -0.0970  0.1935 -0.0629
28883W        W44777   9.781   4.488   1.950 -0.2406  0.2706 -0.1999
28884W        W44778   0.368  11.235  13.660 -0.1873 -0.0886  0.0377
28885W        W44779   8.602   2.648   3.841  0.0543 -0.0983  0.1253
28886W        W44780   2.976  14.385   0.889  0.0376 -0.1135  0.0084
28887W        W44781   3.841  11.156  15.081  0.5524 -0.2879 -0.1012
28888W        W44782   4.813   3.681  10.192 -0.0709 -0.0850  0.0541
28889W        W44783   4.988   1.904  11.086 -0.0839  0.3656  0.2727
28890W        W44784   4.283   8.504   0.275  0.0995  0.0227  0.1228
28891W        W44785  11.983  13.949   5.547  0.1028  0.1831  0.0295
28892W        W44786  16.003  17.729  14.772 -0.0891 -0.0186 -0.0631
28893W        W44787   0.626   4.948  14.311  0.2497 -0.0290  0.1703
28894W        W44788   3.197  17.974   4.367 -0.0581 -0.0221  0.1173
28895W        W44789   7.838  14.371   3.332 -0.3127 -0.1471 -0.2025
28896W        W44790  15.236  12.996  12.106 -0.2087 -0.0401 -0.1212
28897W        W44791   7.869  13.699   2.178  0.5448  0.0034 -0.0992
28898W        W44792  15.491  13.092   5.467 -0.0813  0.0498 -0.1742
28899W        W44793  17.009  16.313   3.357 -0.2256 -0.3670  0.0565
28900W        W44794   3.242   3.637  13.037 -0.1676  0.1974  0.0644
28901W        W44795   7.594   1.135  11.210 -0.0602  0.1530 -0.1041
28902W        W44796  17.673   4.119   0.596  0.0745  0.0329  0.1797
28903W        W44797   3.725   0.355   9.789 -0.0587  0.5062 -0.1484
28904W        W44798  13.703  12.977  11.741 -0.3302 -0.1151 -0.3626
28905W        W44799  15.996   6.427   4.650 -0.2069 -0.1382  0.0140
28906W        W44800  11.408   3.033  11.875  0.0850  0.3048 -0.0691
28907W        W44801  18.405  10.962   2.987  0.0782 -0.1362  0.2019
28908W        W44802  12.069  18.687   1.275  0.1194 -0.1851  0.2377
28909W        W44803  10.143  14.332   5.551  0.0402  0.0130  0.2430
28910W        W44804  13.202  13.163  10.928  0.1340  0.3668 -0.1502
28911W        W44805   9.604   2.522   4.011 -0.4193 -0.0666  0.0092
28912W        W44806  17.773   8.562   4.730 -0.0206 -0.1397 -0.2854
28913W        W44807   7.569   9.503  12.409 -0.3993  0.1440 -0.1997
28914W        W44808  14.091   0.602   4.164 -0.0669  0.2561  0.2029
28915W        W44809  14.275  10.425   2.530 -0.0350  0.1624  0.1224
28916W        W44810   0.161   3.218  13.562  0.3179 -0.2045 -0.0618
28917W        W44811  12.729  16.391   4.002  0.2376 -0.1765  0.5205
28918W        W44812   5.560   0.403   2.955  0.0037 -0.0388  0.3024
28919W        W44813  15.937  16.987   0.332 -0.0735 -0.0832 -0.1636
28920W        W44814   4.751  12.510   3.310  0.1077 -0.0427  0.2803
28921W        W44815  12.317  17.030   5.898  0.2828  0.4043 -0.2814
28922W        W44816   8.984  11.934  14.963 -0.1075 -0.3019 -0.1968
28923W        W44817  15.727   3.977   1.281 -0.3004 -0.0359 -0.0228
28924W        W44818   6.565  17.731  13.314  0.0148 -0.1920  0.1574
28925W        W44819   5.110   3.872   3.784 -0.2463  0.2583 -0.0916
28926W        W44820   5.833   9.205  13.895 -0.1701  0.3234 -0.2907
28927W        W44821   4.953  14.607   0.850  0.0773  0.2635  0.2110
28928W        W44822  11.843   6.258  11.275  0.0715 -0.0620  0.3059
28929W        W44823   1.879   0.853  12.157  0.1262 -0.0066 -0.4538
28930W        W44824  15.661   1.849   2.633  0.0744 -0.3619 -0.1610
28931W        W44825  13.026   1.223   2.647 -0.0063  0.2708  0.3804
28932W        W44826   3.743   6.466   2.485 -0.1475 -0.0794 -0.1206
28933W        W44827   4.054   5.462  12.251  0.0182  0.0798 -0.0008
28934W        W44828   6.378  14.270  14.588 -0.1179  0.1303 -0.1558
28935W        W44829  15.972   4.491  14.811 -0.2174  0.0081  0.0079
28936W        W44830   6.779  16.512   3.093  0.0943  0.0271 -0.1036
28937W        W44831  12.739  10.977   5.368  0.1955  0.1345 -0.0489
28938W        W44832  14.227  14.640  15.506  0.0738 -0.0547  0.2040
28939W        W44833  11.684   4.111  14.249  0.3200  0.0032 -0.2872
28940W        W44834   5.542  15.772   0.449  0.3193  0.0423  0.0596
28941W        W44835  15.138  18.582   5.527 -0.2108  0.1322 -0.1494
28942W        W44836  17.097   0.297   4.787  0.1074 -0.0801 -0.1891
28943W        W44837   9.776  17.207  12.666 -0.0565  0.2795 -0.0322
28944W        W44838  10.368   5.797   1.576  0.4093 -0.0727 -0.1693
28945W        W44839  16.671   5.703   2.557 -0.3262 -0.1095  0.0098
28946W        W44840   6.410  10.322   0.043  0.1664 -0.0423 -0.2081
28947W        W44841  10.428  10.355  12.803 -0.1487  0.0182 -0.1427
28948W        W44842   0.407  16.384  11.580  0.3302 -0.0493 -0.0151
28949W        W44843  17.167   9.635  14.804  0.0094 -0.0883  0.1580
28950W        W44844   4.151   8.430   4.930  0.0852 -0.1034 -0.0302
28951W        W44845   9.933   0.869   1.411 -0.0593  0.0504 -0.0865
28952W        W44846  13.609  14.030   3.541 -0.2416  0.1156 -0.1457
28953W        W44847  17.070   6.533  12.110 -0.1249 -0.1281 -0.2792
28954W        W44848  18.760   7.103  11.206  0.4684  0.3143  0.0977
28955W        W44849  10.456  12.226  12.037 -0.0151 -0.0436 -0.1283
28956W        W44850   5.132  15.457  14.630  0.0392  0.2117  0.0638
28957W        W44851   8.692   6.353   0.759  0.0148 -0.1929 -0.1465
28958W        W44852   7.840  17.811   1.011  0.0945 -0.0072  0.0555
28959W        W44853   7.493   8.731   0.428  0.1380 -0.0241 -0.1556
28960W        W44854   7.085   8.514  11.488  0.1634  0.1417  0.2697
28961W        W44855  11.601  11.729   2.189 -0.3265 -0.1250  0.1560
28962W        W44856   6.424  16.250   5.659  0.1933 -0.0608  0.0439
28963W        W44857  10.723  14.558   1.784 -0.0541 -0.2701  0.0339
28964W        W44858   1.839  14.981  11.706 -0.2840 -0.0755  0.2795
28965W        W44859   4.557   9.771   1.196 -0.0296 -0.1260  0.3105
28966W        W44860  16.441   1.230  12.855  0.0443 -0.0093  0.0608
28967W        W44861  17.710   8.694   1.930  0.0283  0.0621 -0.2064
28968W        W44862  18.098  18.187   3.954 -0.0767 -0.1480 -0.1339
28969W        W44863   3.585  17.684   1.108 -0.2611  0.3252  0.1327
28970W        W44864  12.179  15.788   5.850 -0.0982 -0.2501 -0.1751
28971W        W44865  17.960  16.654   5.616 -0.2697  0.1323 -0.2007
28972W        W44866   0.401   4.665  12.775 -0.2550 -0.3235 -0.3238
28973W        W44867  11.784  14.461   0.083  0.2487 -0.1197  0.2380
28974W        W44868  14.491   3.092  10.975 -0.0518 -0.2774  0.1977
28975W        W44869  13.915   4.788  13.434  0.0276 -0.0179 -0.0030
28976W        W44870   6.884   6.184  11.525  0.2647 -0.1634  0.0707
28977W        W44871   9.655   6.325  12.915 -0.1843  0.1421  0.1717
28978W        W44872   6.037   9.939   0.714 -0.0293  0.0720 -0.1067
28979W        W44873   4.091  11.523   4.126 -0.1360  0.0145 -0.0348
28980W        W44874   4.684   9.427   5.548 -0.0826  0.2637  0.1509
28981W        W44875  12.467   6.134  15.096 -0.2031 -0.1032  0.2404
28982W        W44876   8.988   5.193   2.285 -0.0591  0.0502  0.2448
28983W        W44877   0.238   9.846   4.724  0.4487 -0.1528  0.1534
28984W        W44878   7.461  15.335   2.380  0.3409  0.2132 -0.0655
28985W        W44879   4.384   2.684  14.816 -0.1100  0.2407 -0.0472
28986W        W44880  12.782   5.284   2.084 -0.1078  0.1452 -0.4377
28987W        W44881   6.570  11.124   0.443  0.3106 -0.0862  0.2050
28988W        W44882  11.868  10.009   2.627  0.2867  0.0260  0.1632
28989W        W44883   7.048  12.681   0.501 -0.0882  0.2174 -0.0387
28990W        W44884   6.383  12.547  12.469  0.0510  0.0308  0.3017
28991W        W44885  13.810  13.932   0.948 -0.0701 -0.2787  0.0486
28992W        W44886  14.960   3.622   1.597  0.0226 -0.3216 -0.1298
28993W        W44887   2.141   9.692  11.927  0.0975 -0.0867 -0.0835
28994W        W44888   9.396  11.997   0.248  0.3200 -0.1078 -0.1680
28995W        W44889   9.422  12.411   0.634  0.0492  0.0964  0.1675
28996W        W44890   4.392  18.537   4.879  0.0585  0.0516 -0.0034
28997W        W44891   2.929   0.216   2.394  0.2776 -0.0874 -0.1101
28998W        W44892   2.599  11.757   4.214 -0.0859  0.4687  0.2843
28999W        W44893  17.576   6.683  11.904  0.0378  0.0036 -0.2809
29000W        W44894  13.803  13.316  13.726  0.2151  0.1380  0.0646
29001W        W44895   8.969   0.028  13.411 -0.0753  0.0594  0.1740
29002W        W44896   7.070   0.922   3.259 -0.1560 -0.3921 -0.0096
29003W        W44897   0.906   3.747  10.280  0.1842 -0.1900  0.0381
29004W        W44898   9.033   8.728   4.693  0.1710 -0.1710  0.0852
29005W        W44899   1.715   0.037   4.635 -0.0141 -0.1383 -0.0255
29006W        W44900   8.685  16.814  14.560 -0.0118  0.1148 -0.0928
29007W        W44901   0.660   2.350   4.157 -0.1776 -0.1630  0.2340
29008W        W44902  17.480   5.341   0.925  0.0332  0.0530  0.2656
29009W        W44903   6.258   0.163  10.805  0.0250 -0.1423  0.1305
29010W        W44904  16.170   8.004   1.159  0.2812 -0.2413 -0.1116
29011W        W44905  18.330   7.980   3.820  0.2356  0.2417  0.2938
29012W        W44906   5.344   8.877   2.340  0.0199  0.0897  0.1599
29013W        W44907   3.680   9.882   3.643 -0.1069  0.0632  0.0211
29014W        W44908  12.812   1.015   1.023 -0.0941 -0.0623  0.0832
29015W        W44909   6.885  13.667  12.577 -0.0951 -0.1216 -0.1039
29016W        W44910   5.696  18.090  14.895 -0.0908  0.0295  0.1676
29017W        W44911   7.903   2.764   0.223  0.0243 -0.1819  0.0224
29018W        W44912  14.022   3.660   0.404 -0.3566 -0.0703 -0.0633
29019W        W44913   1.933  16.166  13.460 -0.0165 -0.1118 -0.2312
29020W        W44914  18.049  13.633   2.236 -0.0172 -0.2105  0.3669
29021W        W44915   3.904  15.411  15.231  0.0544  0.1236 -0.1514
29022W        W44916   2.597   1.640   3.358  0.3231 -0.0438 -0.0103
29023W        W44917   0.534  11.812   0.065  0.1341 -0.1415 -0.1894
29024W        W44918   7.589   2.582  13.221 -0.3422 -0.1354  0.5557
29025W        W44919   7.710   1.582  14.551 -0.0494 -0.1625  0.1913
29026W        W44920  11.694  16.629   2.085  0.2171  0.0742  0.1096
29027W        W44921  10.672  13.427   5.931 -0.1039 -0.0108 -0.1292
29028W        W44922   5.396  17.729   2.424 -0.1162  0.2458  0.0817
29029W        W44923   7.882  16.855  14.265  0.0129  0.0420 -0.0171
29030W        W44924   0.932   0.621  13.149  0.0564 -0.0855 -0.1141
29031W        W44925  10.838   5.328   2.778  0.1131 -0.2845 -0.1901
29032W        W44926  18.131  10.338  14.286 -0.1515  0.0957  0.3078
29033W        W44927  11.798  17.057   0.205 -0.2871 -0.1077  0.1150
29034W        W44928   1.074   9.568  13.840  0.0312  0.1612 -0.2739
29035W        W44929  11.176  16.174  11.713  0.0063  0.1566  0.0134
29036W        W44930   0.785   7.122   4.154 -0.1879 -0.3761  0.2090
29037W        W44931   3.922  10.799  15.611  0.0599  0.3460 -0.1084
29038W        W44932  10.710  16.148   2.379  0.1782  0.3444 -0.1279
29039W        W44933   9.298  15.155  13.507  0.0405  0.0081  0.5150
29040W        W44934  13.371  13.781   0.757  0.3289 -0.2219  0.2935
29041W        W44935   4.892   7.666  11.798  0.0571 -0.2488 -0.1629
29042W        W44936  12.259   7.505  13.810 -0.1008 -0.0594 -0.0833
29043W        W44937  16.539  11.755  13.995  0.0212  0.1465 -0.2189
29044W        W44938   4.262  11.871   0.718 -0.0409  0.0034  0.0625
29045W        W44939  13.779  10.229  13.660  0.0751  0.0526 -0.1930
29046W        W44940   3.720  11.319   4.742  0.2188 -0.0304 -0.1721
29047W        W44941   2.780   1.092   2.572 -0.0648 -0.0044 -0.2940
29048W        W44942   5.531   3.074  13.563 -0.0512  0.1264  0.0486
29049W        W44943  14.837   7.305  14.240 -0.0361 -0.0352 -0.0597
29050W        W44944  13.519  12.073   4.090  0.0143 -0.0377 -0.0458
29051W        W44945  18.262   4.297  12.319 -0.2202  0.2267 -0.2216
29052W        W44946   6.622   0.303   5.219 -0.0482 -0.0292  0.0313
29053W        W44947   9.254  17.107   5.536 -0.0322  0.0963  0.1032
29054W        W44948   7.608  18.138   2.777  0.0693 -0.2865  0.1109
29055W        W44949   6.077  16.710   3.198  0.2275  0.2296 -0.1263
29056W        W44950   5.882  13.440   4.627  0.1735  0.1373  0.2329
29057W        W44951  12.342  12.742   3.706 -0.0060 -0.1946 -0.0317
29058W        W44952   7.192   0.850  12.533  0.1247 -0.0347 -0.5137
29059W        W44953  16.897   8.718  12.256 -0.2520 -0.0224  0.1610
29060W        W44954  18.257  14.529  11.745 -0.1173 -0.0640 -0.1000
29061W        W44955  14.634   4.099  14.839 -0.1395 -0.0792  0.0825
29062W        W44956  12.384  17.840   0.476 -0.2583  0.0626  0.2723
29063W        W44957  13.348  15.719   4.107  0.0084  0.2427 -0.2030
29064W        W44958  18.112  11.673  12.950  0.1143  0.0398  0.0253
29065W        W44959   8.254   0.791  14.376  0.2773 -0.0416 -0.1887
29066W        W44960  13.300  13.856   3.885 -0.1162 -0.2487 -0.2695
29067W        W44961   2.364  11.200  13.583 -0.3952  0.0304 -0.0905
29068W        W44962  10.446  14.800  14.032  0.0839  0.0860 -0.3206
29069W        W44963   1.561  15.475  13.432 -0.0763  0.4471  0.1523
29070W        W44964   8.199   7.663   5.805 -0.0645  0.1307  0.3306
29071W        W44965   7.288   2.488   3.886  0.2970  0.0889  0.1145
29072W        W44966  12.931   6.000   3.423 -0.0042 -0.4159  0.3754
29073W        W44967  12.123   7.508   0.000  0.0064  0.1352 -0.2121
29074W        W44968   4.871  12.982   0.148  0.0246  0.3555 -0.2315
29075W        W44969   9.178  10.750   1.546  0.0120  0.0570  0.0395
29076W        W44970   8.556   4.127  12.885 -0.1754  0.0878 -0.3184
29077W        W44971   1.418   1.841  11.641 -0.3366 -0.2183  0.0101
29078W        W44972   2.193  13.067   2.239  0.2040  0.0733 -0.0349
29079W        W44973   3.531  10.541  11.977  0.2077 -0.0603 -0.0911
29080W        W44974   2.534   4.635  10.711 -0.1881  0.1007 -0.2911
29081W        W44975   5.255  17.197  12.165 -0.0047  0.2667  0.0835
29082W        W44976   4.095  12.294  14.130  0.4901 -0.0437  0.0287
29083W        W44977   5.475   2.085  11.066 -0.1626 -0.1243  0.2226
29084W        W44978   7.907   1.942   0.046  0.0953 -0.2601 -0.0943
29085W        W44979   2.817  18.055  13.427 -0.0484 -0.2080 -0.1384
29086W        W44980   5.733  17.442  14.848  0.1184  0.2443 -0.3358
29087W        W44981   1.996   8.981  12.611  0.0231  0.1741  0.2336
29088W        W44982   4.135   6.365  13.787 -0.3633 -0.1447 -0.2076
29089W        W44983   6.483  14.839  12.817 -0.2118 -0.1463  0.0156
29090W        W44984  18.530   2.720   3.843  0.1297  0.0472  0.1872
29091W        W44985   2.022  17.221   4.186 -0.1739  0.0392 -0.1755
29092W        W44986   7.884   1.445   1.339  0.1505 -0.1472 -0.0159
29093W        W44987  13.596   0.692  10.587 -0.2085  0.1430 -0.2244
29094W        W44988   9.354  10.497   1.919  0.1147 -0.2163  0.0184
29095W        W44989   9.802   9.854  10.867  0.0163 -0.1200  0.1928
29096W        W44990  17.555   5.316   1.665 -0.0639  0.0720  0.1360
29097W        W44991   0.154   3.090   0.679 -0.0301  0.1924 -0.1170
29098W        W44992   1.750   1.672   0.053  0.3745 -0.0141 -0.1721
29099W        W44993   4.693   2.499   3.308 -0.0048 -0.0852  0.2614
29100W        W44994   8.556   3.764  10.453  0.3768 -0.3902  0.3360
29101W        W44995   9.607   6.307  11.830 -0.0334  0.3594 -0.0171
29102W        W44996   8.820  15.335  10.581 -0.0816 -0.0395  0.3596
29103W        W44997   6.323  14.504  15.378 -0.2148  0.2968  0.0569
29104W        W44998  15.514   5.354   4.875 -0.2067  0.0565  0.1323
29105W        W44999  14.649   2.232   1.344  0.1694 -0.1294 -0.2450
29106W        W45000   0.329   7.211  14.529 -0.1426  0.0650 -0.2877
29107W        W45001  12.498   4.366  14.680  0.2521  0.2073 -0.1948
29108W        W45002   9.318   4.394   3.042 -0.1708  0.3319 -0.1770
29109W        W45003  12.998   6.658   3.685 -0.2613 -0.1818 -0.2780
29110W        W45004   3.583  17.480   3.136 -0.2547 -0.0135 -0.0882
29111W        W45005  14.853  14.961   1.107  0.1175  0.1845 -0.3456
29112W        W45006   6.171  15.072  14.510  0.1371 -0.0054 -0.0859
29113W        W45007   7.512   0.070   0.959  0.0219 -0.2233  0.0450
29114W        W45008   7.644  11.999   4.496  0.2548  0.0244  0.1572
29115W        W45009   9.993  12.460  12.287 -0.0444 -0.0005  0.0375
29116W        W45010   3.996   3.591   1.443 -0.3250  0.3068 -0.0011
29117W        W45011   8.117   7.359   0.576  0.0803  0.1115  0.1083
29118W        W45012  18.193   4.714   1.128  0.0518  0.0815  0.2536
29119W        W45013  14.441  17.433   0.626 -0.0252 -0.1906 -0.2084
29120W        W45014   7.826  16.341  14.795 -0.0815  0.0157 -0.0412
29121W        W45015   5.402   9.682  11.805 -0.1508  0.0125 -0.0040
29122W        W45016  12.444  10.399   0.937 -0.0650  0.4648 -0.1858
29123W        W45017  15.839  11.517   3.976 -0.1360 -0.2249 -0.1018
29124W        W45018   7.227  18.583  13.479 -0.2424  0.1351 -0.0435
29125W        W45019  10.239   6.110  13.771  0.0595 -0.2626 -0.2863
29126W        W45020   6.042   2.431  13.317 -0.2024  0.0307 -0.1834
29127W        W45021  13.084  17.840  10.062 -0.1986  0.1216  0.6258
29128W        W45022  16.128  14.792   1.506  0.0714 -0.0893  0.0404
29129W        W45023   6.484   0.974  14.247  0.1665 -0.1236  0.0563
29130W        W45024   4.336   0.753  15.440  0.0723 -0.1267 -0.0291
29131W        W45025  12.302   6.942   2.543 -0.0050  0.1973  0.0809
29132W        W45026  10.062   3.751   4.795  0.1995 -0.1092  0.0192
29133W        W45027   3.098   7.037  10.359  0.2488 -0.2372 -0.0254
29134W        W45028  17.707  16.844  11.437  0.0095  0.0386 -0.1013
29135W        W45029   0.828  15.422   4.918  0.0070  0.1380 -0.0367
29136W        W45030   6.121   1.988  15.495 -0.1604 -0.1760 -0.1741
29137W        W45031   1.017   6.553  15.223 -0.0174  0.2048  0.2291
29138W        W45032  15.618  11.181   1.206  0.2037  0.2462 -0.2653
29139W        W45033   6.901   8.671  15.340  0.1101  0.1531 -0.2045
29140W        W45034  14.707  16.689  12.760  0.2624 -0.1208 -0.2156
29141W        W45035  13.958  11.751  12.136 -0.0093  0.1238  0.0903
29142W        W45036   5.117   7.210  14.646  0.3827  0.2016  0.3248
29143W        W45037   9.430   7.488   2.179 -0.1578  0.1096 -0.1512
29144W        W45038   6.899  14.761  12.023  0.2866  0.0487  0.1061
29145W        W45039   8.074   4.183  14.812  0.2289  0.1010  0.0884
29146W        W45040  16.372   7.220   4.734  0.1900 -0.1049  0.0690
29147W        W45041  12.752  16.861   3.852 -0.0072  0.0679  0.0730
29148W        W45042  10.412   7.592   4.465 -0.1982  0.1638 -0.0245
29149W        W45043   2.559   6.954   1.859 -0.1939  0.1073  0.2972
29150W        W45044  16.984  16.705  15.302 -0.3519 -0.1056  0.1474
29151W        W45045   1.625  14.885   2.074  0.1825  0.0281  0.1448
29152W        W45046  10.256   7.531   4.995  0.1392 -0.0426  0.3754
29153W        W45047  17.621  10.757  10.397  0.0265  0.2146  0.1770
29154W        W45048  17.008   0.417  12.353  0.0457 -0.3747  0.0845
29155W        W45049   4.266   2.669  12.672  0.1488 -0.0167 -0.1118
29156W        W45050   6.701  14.026   2.013 -0.0701  0.0809 -0.2897
29157W        W45051   0.151  13.509  14.009 -0.2124  0.1600  0.1499
29158W        W45052  17.442   7.347   5.048 -0.3987  0.1684 -0.1469
29159W        W45053  15.373  15.850   2.322  0.2891 -0.0584 -0.3489
29160W        W45054   5.678   5.192  11.487  0.3294  0.0819 -0.0061
29161W        W45055  10.073  18.739   2.925  0.1401 -0.1667 -0.0351
29162W        W45056  15.209   2.893  13.063  0.3121 -0.3444  0.1938
29163W        W45057   9.180  11.176   2.649 -0.0420 -0.2531  0.2599
29164W        W45058   8.328   9.589   5.319  0.0262 -0.1832 -0.2190
29165W        W45059  10.871   1.081   2.014 -0.1041 -0.1219 -0.2915
29166W        W45060   3.642  13.896   2.610 -0.2273 -0.0904 -0.1216
29167W        W45061   8.842  15.817   2.195 -0.2871  0.0238 -0.0224
29168W        W45062  14.227  16.090   3.956 -0.0701  0.2041 -0.0533
29169W        W45063   0.441  13.504   4.899  0.0291 -0.2243 -0.0187
29170W        W45064  16.180   7.619   3.848 -0.2325  0.1722 -0.0814
29171W        W45065  14.952  14.091   4.401 -0.1288  0.0322  0.0481
29172W        W45066  13.259   3.224  14.525  0.1224 -0.0969  0.5029
29173W        W45067   6.082  13.728   2.255 -0.1394  0.0636  0.2710
29174W        W45068   8.325   5.971  13.335  0.0568 -0.0820 -0.1486
29175W        W45069  16.450  13.274  12.412  0.2770 -0.1733  0.0305
29176W        W45070   8.216   7.246   3.237  0.0168 -0.1663  0.0226
29177W        W45071  15.792   7.324   1.737 -0.2373  0.0977 -0.0585
29178W        W45072   8.490  14.367   2.870  0.1579  0.1907  0.2834
29179W        W45073   4.046   8.602  14.629 -0.1015  0.1064  0.4287
29180W        W45074   5.929  10.542   3.702 -0.1844 -0.1238  0.0609
29181W        W45075  13.245  14.760  13.239  0.2975 -0.0148 -0.2068
29182W        W45076   0.681   7.774  13.001  0.2615  0.1947  0.1321
29183W        W45077  11.116   1.357   1.446 -0.2398  0.1962 -0.0060
29184W        W45078   6.071  13.925   0.414 -0.0059 -0.4033 -0.2540
29185W        W45079   0.495  18.500  13.385 -0.0843  0.2038  0.2501
29186W        W45080   8.260   7.553  12.111  0.0007 -0.2143  0.0260
29187W        W45081  17.122   3.125  12.643  0.0432  0.0568  0.1250
29188W        W45082   6.623  13.704   2.916 -0.2385  0.2506  0.2362
29189W        W45083   7.737  15.410  14.441  0.0511  0.3442 -0.4017
29190W        W45084  13.466  14.401   5.209 -0.1660  0.0506  0.1114
29191W        W45085  12.780   6.226   0.913 -0.0725  0.0616  0.0076
29192W        W45086  11.122   4.385   4.287  0.0614 -0.2539 -0.4909
29193W        W45087   6.742  17.129   4.671 -0.0369  0.2286  0.4045
29194W        W45088   6.076  11.317   4.215 -0.3303 -0.0447  0.2446
29195W        W45089   8.465  14.992   3.921 -0.5412  0.0980 -0.1748
29196W        W45090  13.970  18.418   1.696  0.2202  0.5030 -0.2230
29197W        W45091  13.563   1.923  14.852  0.0835 -0.1228 -0.0673
29198W        W45092  13.152   2.447  10.745  0.0195 -0.0386 -0.0011
29199W        W45093  11.687   8.138   4.971  0.1021 -0.1799  0.1247
29200W        W45094  14.975   4.004  11.829  0.2503 -0.2433 -0.1730
29201W        W45095  15.544  16.481   5.326 -0.3340 -0.2316 -0.3706
29202W        W45096   9.590  17.415  15.412 -0.2300  0.1618 -0.0918
29203W        W45097  16.990   5.072  10.947 -0.3503  0.1749 -0.0882
29204W        W45098  16.016  13.095  14.667 -0.1405 -0.0314 -0.0430
29205W        W45099  18.664   1.193   3.015 -0.0836  0.0994 -0.1087
29206W        W45100   4.692   7.055  12.595 -0.0661  0.0392  0.0249
29207W        W45101   3.501  10.580   0.084 -0.0966  0.2624  0.0700
29208W        W45102  14.212   0.225   5.225 -0.1391 -0.3540 -0.1031
29209W        W45103   1.014  13.352  14.675  0.0726  0.2161 -0.1388
29210W        W45104  13.266   0.709  11.562 -0.0545  0.0266 -0.0773
29211W        W45105  13.406  17.840   3.814  0.2899  0.0909 -0.0412
29212W        W45106   6.387  17.984   0.944  0.1652 -0.2349  0.2260
29213W        W45107  17.140  14.738  11.226 -0.0016  0.0966  0.2320
29214W        W45108   3.203  18.436  12.166 -0.1471  0.0958 -0.1113
29215W        W45109  17.489  12.533   0.682  0.2940  0.2293 -0.1486
29216W        W45110  17.641   4.607   1.063  0.1316 -0.1237  0.2176
29217W        W45111   6.313   6.561  12.318  0.0541 -0.1132 -0.3674
29218W        W45112  12.503  12.181   3.485 -0.2084  0.0565  0.3136
29219W        W45113  18.054   9.781   2.659 -0.2393 -0.0016  0.1346
29220W        W45114  13.124   2.052   3.152  0.0990  0.0560  0.3278
29221W        W45115  16.224  16.931  14.132  0.0540  0.2860  0.2170
29222W        W45116  15.337   8.029  11.668 -0.0579  0.1275  0.0214
29223W        W45117  12.860   9.689   2.740  0.1058 -0.1528 -0.2355
29224W        W45118  16.552  17.374  14.046 -0.2071  0.3807 -0.0274
29225W        W45119  10.114   1.954  14.931  0.1034  0.1470  0.1429
29226W        W45120   7.323   4.195  13.174 -0.3987 -0.1758 -0.2503
29227W        W45121   8.179   6.087  14.793 -0.1522 -0.2120 -0.0620
29228W        W45122  11.007   6.259   3.501 -0.0062 -0.1071 -0.0939
29229W        W45123  16.171  12.206   0.275 -0.3105 -0.2108 -0.0981
29230W        W45124  12.098  12.700  11.627 -0.0650 -0.1341 -0.3441
29231W        W45125  17.200  17.368  15.573  0.0073 -0.3591 -0.1162
29232W        W45126  16.881  15.207  11.169 -0.2637  0.0722 -0.0001
29233W        W45127  15.060   7.681  13.564  0.0663 -0.1124 -0.0377
29234W        W45128  12.574  18.249   4.686  0.0008 -0.0158 -0.0398
29235W        W45129   8.894  11.585   2.681  0.2771  0.0851 -0.1818
29236W        W45130   6.811   0.646   4.151 -0.0836 -0.1386 -0.1637
29237W        W45131   0.697   9.027   1.719  0.1516  0.1817 -0.1047
29238W        W45132  15.210   0.093   1.188  0.0158  0.0289 -0.1783
29239W        W45133  10.810   1.970  12.082  0.0727 -0.3486 -0.4200
29240W        W45134  11.573  11.164   2.012  0.2369 -0.1578  0.0828
29241W        W45135   8.164   3.684   0.410 -0.0632 -0.0080 -0.3629
29242W        W45136   1.380  15.017  14.957 -0.0244  0.3456 -0.0410
29243W        W45137  15.333   9.603  13.980 -0.1103  0.0672  0.0334
29244W        W45138  13.927   9.530  12.872 -0.0060 -0.0773 -0.3989
29245W        W45139  12.087   6.610  12.696 -0.3183  0.0849 -0.1508
29246W        W45140   2.886  10.822   2.272  0.1243  0.0087  0.0751
29247W        W45141   9.252  14.452   2.573 -0.0605 -0.2578  0.1094
29248W        W45142  18.714  15.990  12.391 -0.2201 -0.3160  0.2218
29249W        W45143   1.418   8.656   2.919  0.0980 -0.4168  0.0674
29250W        W45144  14.731   1.542  14.876  0.3208 -0.2848  0.0343
29251W        W45145   2.894   3.157  14.076 -0.1935 -0.0435 -0.2135
29252W        W45146  14.391  16.938  14.928  0.0550  0.1327 -0.2745
29253W        W45147   0.979  18.003  11.586 -0.4218 -0.1022 -0.2450
29254W        W45148   4.782  15.433  15.001  0.3813  0.2790 -0.3159
29255W        W45149   6.658  12.158   2.843 -0.0712  0.0038  0.0588
29256W        W45150  10.806  12.177   1.856  0.1306 -0.0354 -0.1131
29257W        W45151  15.591   3.151   2.887  0.1622  0.1473  0.0713
29258W        W45152  10.701   9.805  13.540  0.3005 -0.1085  0.1267
29259W        W45153   6.930  13.099   0.809  0.1223 -0.0629 -0.0116
29260W        W45154  10.362   0.855   0.912 -0.2556 -0.2911 -0.0805
29261W        W45155   2.086  17.790  11.791 -0.4004  0.3402 -0.1106
29262W        W45156   0.084  17.820  12.537  0.0998  0.0216 -0.0034
29263W        W45157   1.806   4.042   1.038  0.1635  0.0624  0.0132
29264W        W45158   7.458   9.664   3.972 -0.0127  0.0101 -0.1813
29265W        W45159   8.735  11.043   0.969  0.0527  0.0398 -0.2449
29266W        W45160  11.628  11.557   0.863 -0.1392 -0.1965 -0.0018
29267W        W45161   0.867   6.025   0.615  0.1863 -0.3264  0.2387
29268W        W45162  13.085  11.839   1.863 -0.0872  0.0378  0.1207
29269W        W45163  13.807  15.122  15.428  0.0441  0.7577 -0.0289
29270W        W45164   5.958  18.007  13.157  0.1451  0.3485  0.0247
29271W        W45165   2.141  10.910   1.082  0.4322  0.2865  0.1977
29272W        W45166   0.172   4.883   0.535 -0.1195  0.0721  0.3198
29273W        W45167   6.290   9.483   4.355 -0.0054 -0.0288  0.0397
29274W        W45168  18.309   2.632   2.019  0.1443  0.1439 -0.3574
29275W        W45169  15.299   0.587   1.940 -0.2007  0.0161 -0.0046
29276W        W45170  14.207   0.551   0.664 -0.3006 -0.3285 -0.0828
29277W        W45171  10.068   1.875   2.220 -0.0842 -0.1228  0.0200
29278W        W45172  14.029  16.766   1.211  0.2909 -0.0354  0.0660
29279W        W45173   6.646  17.186  11.609 -0.5062 -0.0105  0.0280
29280W        W45174  10.438  10.266   4.206 -0.2408 -0.2253 -0.4431
29281W        W45175  10.145   5.437  10.142  0.0357  0.1415 -0.1136
29282W        W45176  11.396   4.964   3.440  0.0395  0.0494 -0.1156
29283W        W45177  11.184  17.143  13.189  0.1743  0.1226 -0.3008
29284W        W45178   1.322   6.884   4.257 -0.1156 -0.2973 -0.4439
29285W        W45179   3.449   6.906  14.463 -0.1653 -0.0596  0.1394
29286W        W45180  10.415   5.638   2.102  0.0713  0.1384 -0.0433
29287W        W45181  11.072   6.292  13.424  0.1310  0.1819  0.0453
29288W        W45182   9.464   9.193  13.736 -0.1949  0.2482  0.3439
29289W        W45183  15.999   3.838   3.370 -0.0763  0.0269 -0.2703
29290W        W45184   8.045  13.104   1.744 -0.1749 -0.1914 -0.1189
29291W        W45185  17.557  12.934   5.963  0.1000 -0.0572 -0.2939
29292W        W45186  16.715   0.983  14.791  0.0483  0.0367  0.5373
29293W        W45187   0.833  10.814  13.681 -0.1138  0.0794 -0.0745
29294W        W45188   4.264   5.161   0.276 -0.1355  0.1197 -0.0879
29295W        W45189   5.396  10.362  15.300 -0.0570 -0.0618 -0.0220
29296W        W45190  11.137   0.680  10.178 -0.3316 -0.2419  0.3573
29297W        W45191  17.024   7.479  14.578  0.1979 -0.0135 -0.0859
29298W        W45192  15.854  16.129   0.646  0.0648 -0.0369  0.0093
29299W        W45193   4.502  11.056   2.661  0.1704  0.1056  0.2868
29300W        W45194  17.268  15.118   4.743 -0.2395 -0.2803 -0.0445
29301W        W45195  16.398  13.297   1.595 -0.0562 -0.1426  0.1171
29302W        W45196  14.677  10.766   3.742  0.0762  0.1399 -0.1498
29303W        W45197   2.647   1.854   4.604  0.1017 -0.1551 -0.2977
29304W        W45198   3.215  16.095   2.789 -0.0263  0.1602  0.1380
29305W        W45199   8.152  13.685  11.347 -0.0384 -0.0793  0.1077
29306W        W45200  12.876   8.061  14.454  0.1253 -0.0041 -0.0859
29307W        W45201   3.672   2.931   3.828  0.0728  0.0504  0.1578
29308W        W45202   6.012  16.799   5.504  0.0151 -0.0229  0.0330
29309W        W45203  11.286   6.281  10.903  0.1503 -0.1368  0.0415
29310W        W45204  10.946  13.117   4.736 -0.2128  0.0975 -0.1632
29311W        W45205   7.530  14.346  11.866 -0.3810  0.3039 -0.0144
29312W        W45206  13.637   0.403  13.104  0.1800 -0.1100  0.0130
29313W        W45207  11.926  10.241   0.582  0.1973 -0.1115 -0.1622
29314W        W45208   3.193  14.289  15.166  0.0148 -0.0391 -0.2436
29315W        W45209  16.586  17.812   3.256 -0.5659 -0.0318  0.0976
29316W        W45210  18.555   5.658   0.390 -0.0404 -0.4525  0.2501
29317W        W45211  14.255  10.949  13.883 -0.1466 -0.0334 -0.1422
29318W        W45212  10.929   2.307   0.577 -0.1337 -0.2771 -0.0819
29319W        W45213   9.034  14.078  11.272  0.2067  0.1082 -0.2084
29320W        W45214   4.718   8.164  14.010  0.0777 -0.0622 -0.0638
29321W        W45215  18.183  11.741  10.170  0.1773 -0.1233 -0.3945
29322W        W45216   4.673  14.244   1.493  0.0598  0.4399 -0.1948
29323W        W45217  13.477  11.479   2.602  0.1948 -0.1598 -0.0904
29324W        W45218  16.507   5.587  13.581  0.2387 -0.0961  0.1836
29325W        W45219   6.648  17.164   0.463 -0.3639 -0.1034 -0.0950
29326W        W45220   1.609   9.553   4.992 -0.3508  0.2077 -0.2396
29327W        W45221   5.349   3.097  10.709 -0.2784 -0.1322 -0.2922
29328W        W45222   5.997   5.235   1.198 -0.0914 -0.1389 -0.0993
29329W        W45223   8.562   0.257  13.041  0.2091 -0.2797  0.1784
29330W        W45224  13.549   8.025   1.663  0.1746  0.2482  0.1544
29331W        W45225   7.581   1.464  13.191 -0.2450 -0.0916 -0.1053
29332W        W45226   2.138   6.097  13.782  0.2201 -0.0069 -0.1090
29333W        W45227  17.014  18.135  12.828 -0.0659 -0.4393  0.0839
29334W        W45228  11.557   7.029   5.555  0.0131 -0.3535  0.1105
29335W        W45229   1.194   9.080  10.809  0.0569  0.0081 -0.0025
29336W        W45230   3.190   8.161   0.853 -0.1293 -0.0722  0.2333
29337W        W45231  11.001   5.319   0.918  0.1819  0.2605  0.3507
29338W        W45232   1.109  15.432  13.089 -0.0314 -0.0198  0.1550
29339W        W45233   8.319   5.615   5.021 -0.3754 -0.2952  0.1854
29340W        W45234   0.864   8.564   2.850  0.0292  0.0955 -0.0983
29341W        W45235  16.362  12.388  10.400  0.1056  0.0449  0.1209
29342W        W45236  18.293  14.358   5.235  0.1778 -0.2762 -0.1123
29343W        W45237  14.055  11.490   1.586 -0.0571 -0.0893 -0.1009
29344W        W45238   9.315  12.306  12.214  0.4175 -0.0585  0.0271
29345W        W45239   8.354  15.525  10.869 -0.0819 -0.0281  0.0543
29346W        W45240   0.429  14.861   4.019 -0.3824 -0.2107 -0.0734
29347W        W45241  17.483   9.145   2.728 -0.0409  0.0540  0.0501
29348W        W45242  10.956  17.022   2.322  0.1449 -0.0157 -0.0587
29349W        W45243   1.151   5.697  14.245 -0.2158 -0.0579  0.1369
29350W        W45244  17.992  18.692   1.956 -0.3024  0.2901 -0.2935
29351W        W45245   4.230  11.374   4.549  0.0853  0.0410 -0.1250
29352W        W45246   6.502   3.776  14.413  0.3747 -0.0825  0.0966
29353W        W45247  13.232  17.671   4.782  0.0347 -0.2192  0.2039
29354W        W45248  14.812   2.393  14.575  0.2025 -0.1240 -0.5405
29355W        W45249   7.342   6.463   9.857  0.0747  0.0342  0.0085
29356W        W45250  16.639  14.083   0.298 -0.2080 -0.1270  0.0242
29357W        W45251  13.565  13.520   1.776 -0.1017  0.1040  0.0962
29358W        W45252  18.173   6.757   2.985 -0.1531 -0.3400  0.2739
29359W        W45253   3.029  12.685  15.270  0.0143 -0.0772 -0.2999
29360W        W45254   7.171  18.379   1.967 -0.0486 -0.2614  0.0308
29361W        W45255  16.944  12.970   3.602 -0.1475  0.1326  0.1194
29362W        W45256  13.977  10.365  10.576 -0.1875 -0.1943  0.1991
29363W        W45257   6.583  13.262  14.941 -0.0751 -0.3455 -0.0304
29364W        W45258   1.734  15.377  14.948 -0.0207 -0.1590 -0.0199
29365W        W45259  16.754  15.182  12.050 -0.0872  0.1966 -0.1450
29366W        W45260   6.998  11.960  13.018 -0.1757 -0.0504 -0.1329
29367W        W45261   0.115   5.320   4.182  0.0950  0.0073  0.0580
29368W        W45262  11.161  10.225  15.331 -0.0630 -0.0523  0.1383
29369W        W45263  17.289   6.984   2.689  0.0621 -0.2499  0.2411
29370W        W45264   1.738   3.680  11.353  0.1162 -0.2192  0.0994
29371W        W45265   0.768   3.064  15.355  0.1337 -0.0663 -0.2539
29372W        W45266  16.475   0.364   0.276  0.1412 -0.1718 -0.1560
29373W        W45267   9.729   9.784  13.068 -0.1679 -0.1211 -0.0357
29374W        W45268   8.438   9.119   1.699 -0.1055 -0.1063  0.8337
29375W        W45269  17.737  11.937   1.481  0.0211  0.1243 -0.1593
29376W        W45270  18.672   4.491   1.898  0.0942  0.0004 -0.0247
29377W        W45271   7.452   9.350   1.139  0.0001  0.0284 -0.0011
29378W        W45272  11.596   6.533   3.353 -0.0278 -0.1671  0.2285
29379W        W45273   8.245  13.081   4.098 -0.0879 -0.1248  0.2749
29380W        W45274   4.092   6.934   2.850  0.2355  0.1826  0.0057
29381W        W45275  15.769   7.527   5.940 -0.0497  0.3092  0.0310
29382W        W45276   9.583   0.178  12.679 -0.1281  0.3429 -0.0416
29383W        W45277  12.304  16.135  14.105  0.0557  0.0667 -0.0225
29384W        W45278  14.173   6.592   4.249  0.0926  0.0043 -0.1519
29385W        W45279  17.667  10.594   5.352 -0.1838 -0.2266 -0.2331
29386W        W45280   5.106  15.913  11.425  0.1512 -0.1569 -0.1051
29387W        W45281  13.016  17.060   4.719 -0.1388 -0.1321  0.1006
29388W        W45282   6.793   0.401  12.343 -0.1099 -0.1583 -0.0826
29389W        W45283  14.891  17.103   1.968  0.2819  0.2458  0.1179
29390W        W45284  12.629  12.533  14.098 -0.0820 -0.0662 -0.1383
29391W        W45285  15.158  10.113   3.686 -0.1205  0.1793  0.0507
29392W        W45286   1.983  18.273   0.145 -0.0913  0.0996 -0.1461
29393W        W45287  17.587  16.475  14.967  0.3352  0.1911  0.2034
29394W        W45288   8.131  15.530  14.777  0.0755  0.2164  0.1402
29395W        W45289  16.660  13.992   3.594 -0.1809 -0.1442 -0.0781
29396W        W45290   3.595  16.779  15.291  0.1593 -0.2869 -0.1799
29397W        W45291  14.443   9.689   3.888 -0.0394  0.1269  0.3043
29398W        W45292  10.072   0.518  11.917 -0.1653 -0.1499 -0.3658
29399W        W45293   4.500   2.127  13.496  0.3031 -0.0490  0.1488
29400W        W45294   9.183   9.154  14.312 -0.2093 -0.1346 -0.1714
29401W        W45295   2.368   1.623  11.335  0.2747  0.3645  0.0566
29402W        W45296  16.247   3.519   1.373 -0.0019 -0.0341 -0.0814
29403W        W45297   7.690  18.535   5.154  0.0721 -0.0334  0.1325
29404W        W45298   2.702   3.857  15.527 -0.1764  0.2645 -0.1309
29405W        W45299   3.269   1.096   3.047  0.0593  0.0649  0.2330
29406W        W45300  14.531  15.862  12.509 -0.2826 -0.0199  0.2031
29407W        W45301  16.441   7.938  13.023  0.1801 -0.0657  0.0614
29408W        W45302  15.429  14.328  12.918 -0.1929  0.1909 -0.0731
29409W        W45303   7.973   7.356   1.817 -0.1299 -0.0856  0.0423
29410W        W45304  10.457  14.096  13.416  0.0393 -0.1993  0.1462
29411W        W45305  11.186   5.303   1.540 -0.1737 -0.2504  0.1726
29412W        W45306  10.827  15.567  14.927 -0.0362 -0.2373  0.0653
29413W        W45307  12.528   4.502   5.433 -0.0254 -0.0448 -0.1477
29414W        W45308   1.560   7.790   0.401 -0.0008  0.0020  0.1890
29415W        W45309  18.405  11.977  12.020  0.0315 -0.3743  0.0192
29416W        W45310  15.652   6.218  14.279 -0.2201 -0.4284 -0.0424
29417W        W45311  18.724  14.736   4.286  0.4064 -0.1586  0.0059
29418W        W45312   8.189  11.382  12.616  0.1076 -0.1522  0.0539
29419W        W45313  16.757   5.693  11.643  0.2263  0.1511 -0.2645
29420W        W45314  18.688  17.658  11.848 -0.1443 -0.2224 -0.1304
29421W        W45315   7.355   3.683  12.464  0.0085 -0.4308 -0.3237
29422W        W45316  11.693   6.877   1.429  0.2330  0.3968 -0.1783
29423W        W45317   9.966  11.897  12.631  0.0200  0.4406 -0.1104
29424W        W45318   2.247  14.122  14.454  0.0969  0.2289 -0.0871
29425W        W45319  11.496   6.351   4.897 -0.2828  0.1520  0.1344
29426W        W45320   1.889   0.963   4.230  0.0002  0.3099 -0.1080
29427W        W45321  16.312  10.357  11.345 -0.0784 -0.0932  0.0830
29428W        W45322  13.856  17.184  11.234  0.1461  0.1613 -0.2552
29429W        W45323   1.954   2.511   2.267  0.0801  0.0030 -0.0088
29430W        W45324  17.846  17.038  13.402 -0.2890  0.1392 -0.2066
29431W        W45325  14.719   0.921  11.387  0.0136 -0.1828 -0.3600
29432W        W45326   0.611  11.261  15.550 -0.4049 -0.2118  0.4465
29433W        W45327  17.207  13.359   3.803  0.0198 -0.1235  0.1601
29434W        W45328  18.471  17.651   1.638 -0.1644 -0.3549  0.1573
29435W        W45329  10.145   6.129   1.328  0.1326  0.0110 -0.2359
29436W        W45330   5.946   2.206  11.028 -0.0936 -0.0741  0.2573
29437W        W45331   4.508  15.190  14.002  0.0324  0.1047  0.2881
29438W        W45332  16.384  17.778   5.510 -0.2233  0.0710 -0.0144
29439W        W45333   2.187   4.025  14.680  0.2312  0.0153 -0.1067
29440W        W45334   9.793   3.151   5.774 -0.0891  0.3946 -0.2591
29441W        W45335  11.698  16.703   4.229  0.0322  0.0654  0.0112
29442W        W45336  14.471  13.125   3.860  0.3276 -0.0420  0.1608
29443W        W45337   6.884  10.321   1.825 -0.0562  0.1765  0.1791
29444W        W45338  11.609   4.571  13.407  0.1905 -0.2500  0.3733
29445W        W45339  10.122  15.692  13.438  0.0086 -0.2120 -0.0985
29446W        W45340   0.332   2.094  12.120 -0.5170 -0.2752  0.1500
29447W        W45341  10.676   5.033  15.609  0.0200 -0.0280  0.0802
29448W        W45342   3.080   9.592  13.040  0.0813 -0.0996  0.1290
29449W        W45343   9.631  10.656  15.487 -0.1447  0.1444  0.1694
29450W        W45344  16.928   1.946   4.475 -0.2428  0.4468  0.0026
29451W        W45345  17.345   4.569  13.557  0.1020 -0.0676  0.3209
29452W        W45346  18.568   7.465  13.288 -0.0720 -0.0136  0.1048
29453W        W45347   0.249   3.410  14.439  0.2757 -0.0060 -0.2297
29454W        W45348   7.482   4.443   4.287 -0.1572  0.0587  0.1336
29455W        W45349   7.870   5.313  13.550 -0.1326  0.2683 -0.1564
29456W        W45350  16.545  14.984   1.230 -0.0426  0.0278  0.0779
29457W        W45351   5.793   9.891  12.114 -0.0439  0.2217 -0.1451
29458W        W45352  15.865  18.202   4.759 -0.0507  0.0766  0.2895
29459W        W45353  17.981  12.739  14.942  0.1176 -0.1708 -0.1504
29460W        W45354   4.703   6.464   0.880 -0.1424  0.2337 -0.2196
29461W        W45355   4.759  15.392  10.948 -0.1716  0.2613 -0.2932
29462W        W45356   1.949   1.631  10.780 -0.0599  0.2219  0.0051
29463W        W45357  18.253   9.118  15.339  0.3555 -0.0788  0.0249
29464W        W45358   7.263   0.558  12.112  0.1010 -0.2786  0.0556
29465W        W45359  14.695  12.645  15.358  0.1032 -0.0747  0.1415
29466W        W45360   7.286   2.538   2.879 -0.0658  0.0589  0.1829
29467W        W45361   1.296   7.559  13.450 -0.0374 -0.1398  0.1340
29468W        W45362  12.763   2.866   4.954 -0.0655  0.2014  0.0174
29469W        W45363   6.209  16.381  12.817  0.0746 -0.0831 -0.0917
29470W        W45364  11.412  18.221  12.468 -0.1522 -0.0751 -0.2070
29471W        W45365  10.999   7.474  11.722  0.1263  0.0915 -0.0858
29472W        W45366   2.004  13.663   3.860  0.2745 -0.3068  0.1886
29473W        W45367  18.674   2.087  12.429  0.3018 -0.0504  0.6076
29474W        W45368   1.294  16.322   1.989 -0.1202  0.0353 -0.1328
29475W        W45369  16.664  17.085   2.811  0.0811 -0.5226  0.0642
29476W        W45370   3.515  13.943  14.425  0.2693  0.1846 -0.2159
29477W        W45371   3.888   7.588  10.461 -0.0432 -0.0068  0.2183
29478W        W45372   3.362   7.894  13.207 -0.0329 -0.1938  0.3180
29479W        W45373  16.611  15.600   0.478 -0.2291  0.1992  0.0375
29480W        W45374  16.299   4.707   1.616 -0.0331  0.0202 -0.0135
29481W        W45375   5.364   8.886  11.300 -0.3649  0.1627  0.3584
29482W        W45376  18.056   3.927   1.572  0.1821 -0.2003 -0.3573
29483W        W45377   4.061  12.909  10.945 -0.1912  0.1900  0.3840
29484W        W45378  11.440  18.604  13.724 -0.0591  0.0039  0.6736
29485W        W45379  14.059  12.159   2.351 -0.1544  0.1965 -0.0119
29486W        W45380  11.445  16.983   2.319 -0.0159 -0.1050 -0.0869
29487W        W45381   4.725  17.545  10.713  0.1023 -0.2675 -0.1324
29488W        W45382  12.492   8.999  14.822  0.0137 -0.0600  0.0296
29489W        W45383   4.088   6.159  14.248  0.1366  0.1378  0.3018
29490W        W45384   8.200  16.437   5.443 -0.0259  0.1540  0.0882
29491W        W45385   4.511  12.378   1.755  0.3954 -0.2642 -0.0854
29492W        W45386   1.166  15.793  13.434  0.0762 -0.0725  0.0773
29493W        W45387  17.275  12.475  14.126  0.0011  0.0314 -0.1128
29494W        W45388   2.234  12.071   0.420  0.0333  0.1728  0.2183
29495W        W45389   5.143   5.177  13.843 -0.2677 -0.4526 -0.0197
29496W        W45390  11.605   5.464  10.837 -0.0521  0.1812  0.1887
29497W        W45391  17.421   3.749   0.203 -0.1031 -0.2521  0.2158
29498W        W45392  16.260  14.364  11.723  0.1198  0.1088  0.0134
29499W        W45393  12.097   0.346   0.827 -0.1784 -0.2433 -0.0441
29500W        W45394   1.185   9.843   2.197  0.1587 -0.2627 -0.0660
29501W        W45395   8.148   1.015  12.737 -0.0107  0.1093  0.0667
29502W        W45396   4.478   7.226   1.493 -0.1611 -0.4113  0.0898
29503W        W45397   6.241   6.510   1.716 -0.3978  0.0533 -0.3069
29504W        W45398   1.122   0.884  13.777  0.2369  0.2243 -0.1518
29505W        W45399  14.268   9.129   1.752 -0.1149 -0.0831  0.2337
29506W        W45400  17.126   5.500  10.806  0.2087  0.0577 -0.0290
29507W        W45401  17.870  17.126  12.292  0.4716 -0.0862  0.2844
29508W        W45402  15.647  17.420  12.466  0.2945  0.0501 -0.0444
29509W        W45403   6.345   3.805  15.028  0.4456  0.1584  0.1287
29510W        W45404  14.194   3.816  10.702 -0.0322  0.2032 -0.0086
29511W        W45405   8.646  10.798  14.341  0.0853  0.2542 -0.0214
29512W        W45406  16.100   6.438  14.111 -0.1731  0.1068  0.0114
29513W        W45407  11.579  13.165   3.840  0.2481  0.1206 -0.1092
29514W        W45408  10.638   5.990  14.825 -0.4219 -0.3644  0.2771
29515W        W45409   5.149  11.497  13.863  0.3615  0.1252  0.0881
29516W        W45410   6.237  15.149   1.932 -0.3157 -0.1755 -0.0542
29517W        W45411  10.515  17.652   4.647  0.0836  0.0703 -0.4411
29518W        W45412  18.022   5.123   5.047 -0.2074  0.2581  0.1371
29519W        W45413  16.442   0.320   4.597 -0.2987 -0.1222 -0.5581
29520W        W45414  13.641   5.305   4.018 -0.0581 -0.0727  0.1160
29521W        W45415  16.640   7.911   1.494 -0.1357  0.0137 -0.1078
29522W        W45416   8.448  14.116  11.192 -0.1152  0.1911 -0.0471
29523W        W45417  16.776   7.649   4.552 -0.1746  0.1611  0.0535
29524W        W45418   7.909  12.686  14.908 -0.0820 -0.2711  0.0058
29525W        W45419   7.315   6.767   1.297  0.0797  0.1839 -0.2246
29526W        W45420   1.261   9.074  14.288  0.0978  0.1135 -0.0267
29527W        W45421   4.725  13.207   1.043  0.2645 -0.2925 -0.2219
29528W        W45422   7.610   3.076  13.264  0.0550 -0.1921  0.2212
29529W        W45423   9.441  12.851   1.507  0.1336 -0.3494 -0.2584
29530W        W45424   8.491  15.413  13.712 -0.0085 -0.0730  0.2334
29531W        W45425  16.453  12.753  11.217  0.0502 -0.2965 -0.3509
29532W        W45426  18.201   8.021  14.769  0.2001 -0.1291 -0.0513
29533W        W45427   6.719  15.316   1.387 -0.0590 -0.0671 -0.3926
29534W        W45428  15.841   9.620  11.425  0.1105 -0.2092  0.1402
29535W        W45429  16.200   5.208  13.444 -0.0629  0.2466 -0.0270
29536W        W45430   0.359   1.813  13.433 -0.1347 -0.0815  0.0019
29537W        W45431  17.128  14.179   3.036  0.0914  0.0175 -0.0134
29538W        W45432   6.437  11.423   5.167  0.0807  0.1455  0.2960
29539W        W45433   2.390  13.114  12.135  0.0175  0.0187 -0.1841
29540W        W45434   5.526   7.149  12.970 -0.2972 -0.0916 -0.0153
29541W        W45435  18.585  15.742   2.365  0.1740  0.0751  0.0970
29542W        W45436   2.298  10.363   1.483  0.2777  0.2450  0.1196
29543W        W45437   6.836   6.729   4.658 -0.1833  0.1058  0.0263
29544W        W45438  12.175   5.399   5.290 -0.4947 -0.1390 -0.1409
29545W        W45439   5.101  15.399  10.627 -0.1597  0.2149  0.0892
29546W        W45440   7.979  15.387   4.511  0.0574 -0.0517 -0.2137
29547W        W45441  10.717  11.003  14.214  0.1445  0.1110  0.0224
29548W        W45442   4.238  11.996   2.268 -0.0376  0.1039  0.1251
29549W        W45443  13.540   9.443   4.054  0.0512  0.0836  0.1023
29550W        W45444   1.684   0.761  14.730  0.2314 -0.0383  0.0011
29551W        W45445  13.479  16.286  12.107 -0.0630 -0.2398 -0.0178
29552W        W45446   6.087   2.489   4.692 -0.1950  0.2328 -0.4089
29553W        W45447  14.168   4.533   2.274  0.0518 -0.4908 -0.4796
29554W        W45448   7.147  13.424  11.948  0.0280 -0.0031 -0.1208
29555W        W45449  10.134  11.979   5.387 -0.0384 -0.0257  0.1699
29556W        W45450   2.486  17.292  12.835 -0.4498  0.0155  0.0271
29557W        W45451   9.811   4.140   2.341 -0.2225 -0.0856 -0.1597
29558W        W45452   2.184  12.820  12.789  0.0456 -0.0344 -0.1590
29559W        W45453   1.058   8.185   0.765 -0.0169 -0.0859 -0.0418
29560W        W45454   5.683  15.877  14.486 -0.0387 -0.0595 -0.0734
29561W        W45455  15.362   2.592   0.038 -0.1218  0.0443  0.1414
29562W        W45456   9.151   1.287   4.053  0.1403 -0.1347  0.1226
29563W        W45457  12.995   4.341  15.547  0.2291  0.1852 -0.0263
29564W        W45458   5.209   7.665   4.340  0.1024  0.0883  0.2256
29565W        W45459   9.136   4.573  14.711  0.4653  0.0150  0.3710
29566W        W45460   1.275   9.050   4.976 -0.1352  0.1769 -0.1383
29567W        W45461  13.466  12.288   5.046  0.0038  0.0923  0.0248
29568W        W45462   2.087  15.001  12.337 -0.0994  0.1700  0.4174
29569W        W45463   5.755   4.886  10.914 -0.1966 -0.0396  0.1586
29570W        W45464   9.269   6.041   1.763 -0.2152 -0.0065  0.0644
29571W        W45465   4.919  17.555  14.855 -0.1747  0.3477 -0.1505
29572W        W45466  15.954   2.384   3.500  0.0946  0.2025  0.1504
29573W        W45467   4.490  10.703  11.804 -0.4530 -0.1964 -0.0520
29574W        W45468   7.314   1.718   4.804  0.1861  0.2663 -0.2613
29575W        W45469  13.264  18.106  14.613  0.0331  0.0784  0.2427
29576W        W45470   4.032  11.322  15.622  0.5006  0.2536 -0.4255
29577W        W45471  16.170   0.925  12.447  0.1379 -0.1512 -0.1997
29578W        W45472   7.500  15.302  13.338 -0.0954 -0.1961  0.2671
29579W        W45473   0.112  14.002   0.236  0.4155  0.0306 -0.2545
29580W        W45474   4.013   5.681   3.939 -0.3772 -0.2207  0.0994
29581W        W45475   7.462   2.047   3.009  0.0808 -0.2750 -0.0386
29582W        W45476   7.599  17.486   1.925 -0.3252  0.2316 -0.0652
29583W        W45477   5.184  11.319  15.107 -0.4831 -0.1265  0.1571
29584W        W45478  12.483   8.146  15.420 -0.2415 -0.1422  0.0742
29585W        W45479  16.216   6.261   3.100 -0.2078 -0.1029  0.0336
29586W        W45480   1.382  12.669   3.819 -0.0775 -0.1025 -0.0109
29587W        W45481  14.724  12.680   4.973  0.1697 -0.4293 -0.0315
29588W        W45482  15.601   3.852   5.548 -0.0421  0.1118 -0.3268
29589W        W45483  12.102   2.726   1.033  0.0345 -0.0766  0.2090
29590W        W45484   1.845  12.877   1.930  0.0560  0.1502  0.0592
29591W        W45485  12.522  14.865   4.101  0.0759 -0.0091  0.2758
29592W        W45486   3.947   9.212  15.577 -0.2245  0.0786  0.0382
29593W        W45487  14.205   7.929   3.380  0.1526  0.0340  0.2148
29594W        W45488   6.135   5.552   2.559 -0.1894 -0.1034  0.2409
29595W        W45489   0.609  13.621  13.126  0.1376 -0.0991  0.0402
29596W        W45490  13.414  17.219   4.480 -0.2111  0.1070  0.0492
29597W        W45491   8.267  14.606  11.299  0.1398  0.0375  0.1939
29598W        W45492  10.416  13.995  12.955  0.1209  0.0456 -0.0986
29599W        W45493  13.848   8.128  14.597  0.0927 -0.3450  0.0021
29600W        W45494  13.858   3.800   2.195  0.2385  0.0583 -0.0886
29601W        W45495  13.168   1.979   4.619  0.3528  0.1458 -0.2197
29602W        W45496  10.468   6.085   0.107 -0.2651  0.1579  0.2932
29603W        W45497  13.071   6.382  11.165 -0.2314  0.1054 -0.3162
29604W        W45498   3.233  10.074   1.983 -0.0099  0.1255 -0.0574
29605W        W45499   7.819  10.640   2.069  0.2122 -0.2441 -0.0488
29606W        W45500   5.975   5.646  12.091  0.2679 -0.1770 -0.0073
29607W        W45501   6.641  18.500   1.757 -0.2230 -0.0855  0.2038
29608W        W45502  17.513   9.493  10.832  0.1044 -0.1730  0.0336
29609W        W45503   8.934  17.289  12.157  0.0311  0.1410  0.1377
29610W        W45504  15.657   9.997   2.647 -0.1231  0.1236  0.2625
29611W        W45505  17.158  13.917   9.844  0.1000 -0.2993  0.1301
29612W        W45506   6.434  13.528  13.547 -0.0526 -0.2210 -0.1974
29613W        W45507  13.079   0.289  15.579 -0.0045  0.1374  0.0540
29614W        W45508  13.675  11.891   2.325 -0.0132  0.2088  0.0153
29615W        W45509  17.002   5.006   2.838 -0.0998  0.3030 -0.0023
29616W        W45510   3.733  13.290  10.674 -0.1167  0.0609  0.2529
29617W        W45511   2.650  12.400   0.633  0.0746 -0.0408 -0.1195
29618W        W45512   3.918  11.562   3.043  0.2861 -0.1636 -0.0447
29619W        W45513  11.261  16.518  10.380  0.0688  0.0895 -0.2286
29620W        W45514   4.705   6.606  10.588  0.1619  0.3353  0.0810
29621W        W45515   9.247   5.470   3.329  0.2672  0.0169 -0.0257
29622W        W45516  16.446  16.590   1.446  0.2448  0.1333  0.0421
29623W        W45517   7.546   9.781  14.537  0.0033  0.3518 -0.2279
29624W        W45518  15.119  15.003   3.527 -0.2868 -0.1034 -0.2717
29625W        W45519  17.877   1.674  10.569 -0.2546  0.4479  0.0927
29626W        W45520  12.126  12.133  12.731  0.1799 -0.0531 -0.0721
29627W        W45521   9.238  16.941  15.373  0.0918 -0.0585  0.1646
29628W        W45522  13.647   6.674   4.196 -0.1691 -0.0372 -0.1590
29629W        W45523   4.726  10.480   5.076 -0.1536  0.0003 -0.3031
29630W        W45524  17.553   4.888  13.258  0.3219 -0.0801 -0.2036
29631W        W45525  17.743   1.442   1.441 -0.1567 -0.4668  0.2175
29632W        W45526   3.861  17.112   6.091 -0.2090  0.1939  0.0013
29633W        W45527   9.409   5.396   2.026 -0.0058 -0.0429  0.1652
29634W        W45528  13.471  10.416   1.547  0.1430  0.1320  0.0831
29635W        W45529   5.277   8.269   9.284 -0.2069 -0.0560  0.1535
29636W        W45530   6.580   2.222   1.789  0.2522 -0.0454  0.0237
29637W        W45531   0.068  13.109   5.273  0.1500  0.1164 -0.3263
29638W        W45532  14.359  14.807  14.220  0.0121  0.2868 -0.0737
29639W        W45533  13.808  10.357   2.256 -0.1960 -0.1757 -0.1257
29640W        W45534  12.969  16.899  15.198 -0.3217  0.0305  0.1725
29641W        W45535  11.008  15.686   2.385  0.5098 -0.4895  0.3081
29642W        W45536  17.174   7.910   2.308  0.3194 -0.0237 -0.0591
29643W        W45537  14.464  16.388   2.418 -0.1867 -0.3658 -0.1359
29644W        W45538  18.621   5.553   0.983 -0.2661  0.1551 -0.0908
29645W        W45539  11.460   9.556  14.582  0.2899  0.1214 -0.1552
29646W        W45540  17.863  13.962  15.345 -0.3304  0.2180  0.0504
29647W        W45541   5.021  14.132  10.632  0.3963  0.3338  0.3358
29648W        W45542  13.566   2.688   3.627  0.0411  0.1257 -0.1137
29649W        W45543  10.663  12.123   3.971  0.0535  0.0059  0.1514
29650W        W45544   6.756  15.161  11.294  0.1292  0.1025  0.1683
29651W        W45545  12.244   8.782   2.762  0.0723  0.3869  0.0282
29652W        W45546  17.561  15.292  12.561  0.1161  0.1694  0.2676
29653W        W45547  18.322  17.571   0.430 -0.0246  0.1507 -0.2882
29654W        W45548  17.346   6.462   0.941  0.0016  0.0832  0.1203
29655W        W45549  10.240   0.820  13.893  0.2249 -0.0690  0.4329
29656W        W45550  14.981   6.726  10.872 -0.1937  0.2773  0.0624
29657W        W45551   0.052  13.938  11.352  0.2603  0.0338  0.0625
29658W        W45552   0.760   1.062   0.513 -0.2681 -0.2284  0.2724
29659W        W45553   6.649   2.725  15.523  0.0735  0.2174 -0.0289
29660W        W45554  17.117   4.867   3.442 -0.0785  0.1159  0.1962
29661W        W45555  18.341   3.714  13.351  0.2256 -0.1532  0.1080
29662W        W45556   4.461   7.733   0.640 -0.1771  0.2101  0.0019
29663W        W45557  18.568  10.939   4.979 -0.1256 -0.0554 -0.6565
29664W        W45558  17.435  10.438   1.778 -0.4096  0.0906 -0.1087
29665W        W45559   4.998   4.359  13.225 -0.0957 -0.3324 -0.0804
29666W        W45560   6.355  12.547   2.729 -0.0443 -0.2919 -0.3009
29667W        W45561   9.646   6.538  14.976 -0.1052 -0.0090  0.2442
29668W        W45562  10.287   2.438   1.952  0.1895 -0.0069 -0.0817
29669W        W45563  17.866   0.667   1.425 -0.0298 -0.2333 -0.1832
29670W        W45564  13.241   4.194   4.484 -0.1860 -0.1567 -0.3082
29671W        W45565   9.044   4.149   3.408 -0.0347 -0.2239  0.3476
29672W        W45566  10.916   3.357  11.553 -0.2124  0.1997 -0.1666
29673W        W45567  10.794   1.426  11.375  0.3638  0.2965 -0.0373
29674W        W45568  12.153  16.721  13.324 -0.2716  0.0533  0.1033
29675W        W45569   9.368   8.618  10.042 -0.2802 -0.3211 -0.0633
29676W        W45570  12.992  14.720  11.690 -0.2981  0.0221  0.3480
29677W        W45571   5.658   9.144  10.866  0.0590 -0.1854 -0.2533
29678W        W45572  10.035   6.202   0.348 -0.1382 -0.0978 -0.0671
29679W        W45573   8.705  11.083  14.838  0.1328 -0.1766 -0.0704
29680W        W45574   8.333   9.828  10.970 -0.4160 -0.1554 -0.0180
29681W        W45575  12.431  16.711   0.878 -0.2264  0.1239 -0.0327
29682W        W45576  11.840   1.116  12.241  0.0652 -0.1618  0.2190
29683W        W45577   6.154   4.371   2.074  0.2411  0.1139  0.0805
29684W        W45578   2.336   6.026  14.369 -0.0064 -0.0751  0.2160
29685W        W45579   6.040   1.449   0.266  0.0523  0.1832  0.5259
29686W        W45580  17.532   5.445  15.475 -0.0954 -0.1488 -0.1058
29687W        W45581  15.005  16.430  11.693  0.0711 -0.3494 -0.1218
29688W        W45582  16.928  16.537   1.684 -0.2326  0.2905  0.0927
29689W        W45583   0.066   5.320  11.299  0.1125 -0.0925  0.0343
29690W        W45584   0.122   8.555   4.334 -0.2484 -0.2836  0.0916
29691W        W45585  12.303  11.374  12.172  0.0600 -0.3805 -0.1884
29692W        W45586   6.945   4.213   0.830  0.0455 -0.0581  0.3388
29693W        W45587  13.165   8.273   4.336  0.0153 -0.0603  0.3138
29694W        W45588  11.335   4.719   5.230 -0.2598  0.0454 -0.1226
29695W        W45589   8.806   7.081   5.366 -0.0708  0.1698 -0.0253
29696W        W45590  11.297  10.967  12.376 -0.0075 -0.2541  0.1020
29697W        W45591  10.898  16.372   4.683  0.1418  0.2492  0.2759
29698W        W45592   6.783  15.956  11.530 -0.1108 -0.2566 -0.2562
29699W        W45593  14.511   1.791   0.832  0.0499  0.0683  0.1420
29700W        W45594   4.120  17.820  15.488  0.0005  0.3872  0.2615
29701W        W45595   7.931   8.653  14.427  0.0310 -0.4415 -0.3584
29702W        W45596   1.774   1.976  13.007  0.1431  0.1105 -0.1637
29703W        W45597   1.949   1.148  10.721 -0.0520  0.0124 -0.0923
29704W        W45598  11.331   1.984  15.135 -0.0229  0.0336  0.1363
29705W        W45599   2.937   1.857   3.681  0.2474 -0.0406 -0.1177
29706W        W45600   2.232   0.810  13.810 -0.0723 -0.5067 -0.3360
29707W        W45601  11.023   3.284   4.010 -0.0013 -0.0104  0.1670
29708W        W45602  11.659  12.441  11.405  0.1227 -0.0807 -0.2125
29709W        W45603  11.398   3.344   4.882  0.0455  0.0627  0.3152
29710W        W45604  10.187   8.788   4.715  0.1603 -0.0104  0.0290
29711W        W45605  18.360  14.845   5.189 -0.1867  0.0641  0.0692
29712W        W45606   8.430  14.914  13.690 -0.0627  0.0936 -0.3423
29713W        W45607   0.132   2.595   0.747 -0.0342  0.1726  0.0786
29714W        W45608   9.132   5.122   1.726 -0.3135  0.2626 -0.2762
29715W        W45609   0.425   9.424  15.104  0.0031 -0.1316  0.2680
29716W        W45610   3.327   6.320  10.883  0.3307 -0.2480  0.0561
29717W        W45611  15.746  14.125  12.072  0.0622 -0.2488 -0.0111
29718W        W45612  11.304   4.134  15.159 -0.0102 -0.0856  0.1783
29719W        W45613   8.273  15.742  12.563  0.2019 -0.0652  0.0808
29720W        W45614  16.308   9.875  11.703  0.2072  0.0993 -0.0175
29721W        W45615   1.153  13.521   2.135 -0.2454 -0.1706 -0.0396
29722W        W45616   5.812   2.540   5.647 -0.1639  0.0858 -0.0021
29723W        W45617   3.041   8.320  13.261  0.0030 -0.1280  0.0667
29724W        W45618  11.333   8.347   3.037  0.1081  0.0206 -0.1540
29725W        W45619  15.386   4.913  11.722 -0.0521  0.2595  0.0767
29726W        W45620   1.927  14.529   4.482 -0.0315  0.0481  0.2109
29727W        W45621  13.244  12.559   4.124 -0.0798  0.1474  0.2753
29728W        W45622  10.013  13.422   3.773  0.0891  0.2113 -0.1079
29729W        W45623  16.157   1.431   0.535 -0.1308 -0.0162 -0.0227
29730W        W45624  11.683  11.590  13.832  0.1166  0.0128  0.1078
29731W        W45625   7.801   1.845   4.716 -0.0227  0.0460 -0.0144
29732W        W45626   3.571   9.886  11.314  0.2537 -0.2295 -0.1273
29733W        W45627   9.757   1.811   3.563 -0.2126  0.0052 -0.0149
29734W        W45628  11.462   5.182   0.665 -0.2584 -0.1856 -0.1895
29735W        W45629   1.767   0.573   3.848  0.0195 -0.1867  0.0688
29736W        W45630   3.448   3.027  14.727  0.3420 -0.2756 -0.2206
29737W        W45631  14.590  14.882   5.843 -0.2125 -0.2490  0.2055
29738W        W45632   9.611  12.513   1.202  0.2511  0.0182  0.0250
29739W        W45633  15.207  18.507  13.728  0.2848  0.1443 -0.4360
29740W        W45634   4.888   0.776  13.944  0.1350  0.1946  0.0137
29741W        W45635   2.969   3.630  14.126 -0.1270 -0.0177  0.2855
29742W        W45636   7.548   4.713  13.467  0.0645 -0.1502  0.1133
29743W        W45637  17.413  14.102  11.914  0.2424  0.0254 -0.5162
29744W        W45638  15.883  17.502  11.555  0.0398 -0.0753 -0.0876
29745W        W45639   5.456  12.423   0.418  0.2259  0.0844  0.0240
29746W        W45640   6.725   5.076  13.495  0.1934 -0.1128 -0.2680
29747W        W45641  15.642  13.656  15.189 -0.1179 -0.1183 -0.0045
29748W        W45642  11.919   2.317  13.901 -0.1107  0.0514  0.0831
29749W        W45643   6.343   3.399  13.715  0.2489  0.0432 -0.0825
29750W        W45644  14.396  17.370  13.507 -0.1009  0.0348 -0.2084
29751W        W45645   1.700  11.536   5.527 -0.0212  0.1345  0.3365
29752W        W45646   5.776  15.131   1.084 -0.0157  0.2159  0.1258
29753W        W45647   3.141   5.535  13.978 -0.0282 -0.0195  0.2166
29754W        W45648   4.452  10.121   1.583  0.3144 -0.0616  0.0118
29755W        W45649   3.159   4.179   4.268 -0.0323  0.1150 -0.1719
29756W        W45650  18.046  18.625  14.519 -0.2562  0.3335 -0.1054
29757W        W45651  12.281   2.526  13.476  0.2865 -0.0918  0.1616
29758W        W45652  12.433   1.761  10.171 -0.2602  0.5577  0.3608
29759W        W45653  11.670  18.436   2.744  0.1260 -0.3301  0.2569
29760W        W45654  11.026  17.579   0.486 -0.1646  0.0018 -0.0501
29761W        W45655  18.393  11.237  12.764 -0.0250  0.0262 -0.0106
29762W        W45656   1.605   3.330  11.830 -0.0416  0.0250 -0.1458
29763W        W45657   2.565  15.461  13.408  0.1190  0.0758  0.2544
29764W        W45658  17.573  17.454  15.126  0.0522 -0.0190 -0.1286
29765W        W45659  18.259   7.223   1.016 -0.2587  0.2053 -0.2606
29766W        W45660   8.997  18.281   4.537  0.1000 -0.2532 -0.0960
29767W        W45661  11.424   2.029  11.509  0.0286  0.2761 -0.0436
29768W        W45662   4.019  12.592   4.154  0.1547 -0.1938 -0.0500
29769W        W45663  13.282   2.794  14.775  0.1646 -0.2157 -0.3795
29770W        W45664  15.595   1.428  15.439 -0.0818 -0.0461  0.0146
29771W        W45665  18.235   2.526  13.750 -0.3783 -0.0154  0.0974
29772W        W45666   2.234  10.904  14.422 -0.0706  0.2438 -0.0685
29773W        W45667   4.562   4.997  11.497  0.0645  0.3932  0.0006
29774W        W45668  17.938   2.685  11.624 -0.3754  0.1360 -0.0187
29775W        W45669   6.133  13.586   4.196  0.1213 -0.1344 -0.0468
29776W        W45670  17.175   1.279   1.437  0.2737 -0.1755  0.1788
29777W        W45671   2.428  13.672   1.721 -0.0770  0.1380  0.1610
29778W        W45672  17.287  18.343  12.446 -0.1329 -0.1231  0.1108
29779W        W45673   2.562  14.941  12.066 -0.1616  0.1338 -0.1608
29780W        W45674  10.610   1.602   5.265 -0.1039 -0.1770 -0.2515
29781W        W45675  14.301  18.627   3.137 -0.0942 -0.0984  0.2917
29782W        W45676  18.332  18.530  13.184  0.0090  0.2708 -0.0601
29783W        W45677  16.006   0.226   5.498  0.2890  0.0658  0.3323
29784W        W45678   4.203   8.457  13.606  0.2676 -0.1218 -0.2207
29785W        W45679   0.280   3.829   3.825 -0.2023  0.3146 -0.0753
29786W        W45680  12.817   9.621  12.699  0.0538 -0.0609  0.2450
29787W        W45681   9.871   6.067  14.226  0.1298  0.0153  0.3576
29788W        W45682  13.781   6.236   4.479  0.2407 -0.0287 -0.3797
29789W        W45683  13.632  10.505  11.973 -0.3136 -0.1699  0.1237
29790W        W45684  18.376   5.126   2.886  0.1132  0.3605 -0.1199
29791W        W45685   9.348  11.779   1.546  0.2089  0.1316  0.2223
29792W        W45686  15.207  13.324  15.474  0.0784  0.4434  0.3341
29793W        W45687   6.726   2.711  13.746 -0.0859  0.0792 -0.0281
29794W        W45688  11.350   5.921   0.340 -0.1562 -0.2530 -0.0049
29795W        W45689  16.089   4.125  15.603  0.2275 -0.0646 -0.0162
29796W        W45690   8.454   1.108   2.330 -0.3012  0.0440  0.1412
29797W        W45691  10.481   6.037  12.559 -0.2901 -0.1933 -0.1583
29798W        W45692   5.089   8.404  11.298  0.1096 -0.2582 -0.0455
29799W        W45693  14.386   7.429  15.238 -0.1169 -0.2011 -0.2117
29800W        W45694   2.220  17.620  12.522  0.0597 -0.2047  0.0324
29801W        W45695  10.858   2.923   4.369  0.3697 -0.0757 -0.0965
29802W        W45696   1.541   9.813  12.699 -0.0076 -0.0911  0.1400
29803W        W45697   7.596  13.893   0.826  0.0002 -0.1669 -0.2393
29804W        W45698  14.616  18.454   5.915 -0.1144  0.0767  0.0171
29805W        W45699  17.184  15.066   2.666  0.0345 -0.1611  0.3761
29806W        W45700  18.327   5.850   4.704 -0.1135 -0.0280 -0.1229
29807W        W45701   9.558   3.425   0.581 -0.2351  0.4079  0.1342
29808W        W45702  16.858  14.990   3.297  0.3436 -0.0550 -0.0180
29809W        W45703  14.442  13.842   2.534 -0.2697 -0.1793 -0.0821
29810W        W45704   2.066   3.519   2.601  0.0749 -0.1499  0.0262
29811W        W45705   8.248   0.412   3.122  0.2448 -0.2782 -0.0599
29812W        W45706   5.405   3.810  13.841 -0.2612  0.1488 -0.1846
29813W        W45707   3.203  11.133   3.973  0.3941 -0.3432 -0.0491
29814W        W45708  18.437  16.269   4.178 -0.0400 -0.1711 -0.0692
29815W        W45709   9.448  16.468  12.012  0.4797 -0.2068 -0.3441
29816W        W45710  17.219  13.625   3.307 -0.0043 -0.3078  0.1943
29817W        W45711   1.084  13.126   4.227  0.2573 -0.0256  0.0232
29818W        W45712  18.031   1.276  13.167 -0.0283  0.0914  0.3106
29819W        W45713   3.170   0.876   0.430 -0.3565  0.0881 -0.0669
29820W        W45714  15.503  14.613  15.096 -0.2182  0.1222  0.3253
29821W        W45715  18.244   1.738   2.926  0.2095  0.0803  0.3225
29822W        W45716  10.576  11.145   4.382  0.0971 -0.1099  0.1595
29823W        W45717   0.304   2.017   4.990  0.2697  0.0585 -0.1398
29824W        W45718  12.669  16.630   0.001 -0.0921  0.3410  0.2076
29825W        W45719  14.162   2.082   2.508 -0.0132  0.0859  0.2093
29826W        W45720   1.798   1.793   1.637  0.0523  0.1174 -0.5667
29827W        W45721   2.339  15.249   2.772 -0.3169 -0.1849  0.1867
29828W        W45722   6.986   8.968  11.731  0.3675  0.0510  0.0013
29829W        W45723   4.530   9.375  12.448  0.2890 -0.1125  0.2558
29830W        W45724  10.145   0.439  13.628  0.0511 -0.0720  0.1262
29831W        W45725   6.309  10.887   0.911  0.0394  0.0493  0.2259
29832W        W45726   4.253  15.462   0.720  0.0914 -0.0336  0.3304
29833W        W45727   3.933  14.199   0.162 -0.0303 -0.0619 -0.0784
29834W        W45728  16.527  16.562   3.351 -0.1845  0.0540 -0.1343
29835W        W45729  10.124   9.526   1.459  0.0242  0.1221 -0.0230
29836W        W45730  16.551   9.803   4.557  0.2057  0.1660 -0.0117
29837W        W45731  14.643  13.846   4.077  0.0917 -0.1295  0.0234
29838W        W45732   3.809   8.752   0.138 -0.1370 -0.0077  0.0112
29839W        W45733  17.294   0.491  13.454 -0.1946 -0.0413  0.1842
29840W        W45734   7.212   5.542   3.471 -0.4842  0.0336  0.2148
29841W        W45735  13.005   9.657  14.504 -0.2149  0.2653 -0.0613
29842W        W45736   6.419   4.382   3.329  0.0744 -0.0909 -0.0120
29843W        W45737  16.705   9.790  11.240 -0.1682  0.1855  0.3215
29844W        W45738  15.657  16.245   2.314  0.3631  0.0695  0.2083
29845W        W45739  14.775   2.390   5.317  0.2075 -0.3428 -0.0401
29846W        W45740   1.328  16.520   4.918  0.1606  0.1280  0.1084
29847W        W45741  11.506  11.618  10.940  0.3871  0.3483 -0.1025
29848W        W45742   5.296  17.622  15.233 -0.5203 -0.1788 -0.0853
29849W        W45743   3.215   2.392  14.793  0.0889 -0.1662 -0.3955
29850W        W45744   2.541  12.967  14.850  0.0258 -0.2514 -0.1783
29851W        W45745  15.454   1.451  13.442 -0.0753 -0.2149  0.1503
29852W        W45746  13.024  14.338   1.318 -0.0375  0.1467 -0.0714
29853W        W45747   2.800   2.929   2.874 -0.1135 -0.2481 -0.1824
29854W        W45748  15.667  10.781   2.069  0.0058 -0.4116 -0.0609
29855W        W45749  10.522  11.419   0.212 -0.1591 -0.1760  0.0302
29856W        W45750  17.636   4.605   0.458 -0.1543 -0.0614 -0.0544
29857W        W45751   1.300   2.110  10.133 -0.0312 -0.0180 -0.0797
29858W        W45752  16.637   8.669   4.833 -0.0668  0.4115  0.2061
29859W        W45753   4.661   7.852  14.393 -0.0176 -0.1923  0.0435
29860W        W45754  10.998  12.086   4.476 -0.1375  0.0058 -0.0076
29861W        W45755   0.262  12.488  12.496  0.0067  0.0862 -0.2142
29862W        W45756  12.601   1.461   3.914  0.0321 -0.1850 -0.2709
29863W        W45757  14.102   5.648  12.568 -0.2225 -0.0929  0.2457
29864W        W45758  10.707   9.081  14.720 -0.0343 -0.0036  0.1353
29865W        W45759   5.208  10.674   2.081  0.0345 -0.2735 -0.0203
29866W        W45760  16.424  18.273   3.385  0.0456  0.5062 -0.2638
29867W        W45761  10.402  13.592   1.577  0.3250  0.2459  0.0830
29868W        W45762  11.291  12.004  11.266  0.0096 -0.2193  0.0924
29869W        W45763  12.110   8.880   1.917 -0.0464  0.1270  0.0578
29870W        W45764   2.732   7.495  12.056  0.4633 -0.0843  0.1746
29871W        W45765   7.111   7.419  13.523  0.0486  0.1301 -0.3356
29872W        W45766  15.202   6.325  11.006  0.1772 -0.1063 -0.0070
29873W        W45767   2.203   4.321  11.504 -0.0763 -0.3158 -0.0954
29874W        W45768   5.260  17.775   1.960 -0.2462 -0.2678 -0.0217
29875W        W45769  10.880   1.085  13.287 -0.1107  0.0707 -0.2896
29876W        W45770   3.444   7.659  12.236 -0.2383  0.0250  0.0533
29877W        W45771   7.014  18.154   4.502  0.3409 -0.1242  0.2153
29878W        W45772  10.606   0.204  15.065 -0.0461 -0.2486 -0.3666
29879W        W45773   9.129   9.227   9.890 -0.1226 -0.1251  0.2872
29880W        W45774   6.490  16.863   5.213 -0.0185 -0.2480 -0.1689
29881W        W45775   2.741   8.538   0.099  0.1228 -0.0545  0.2734
29882W        W45776   9.961  11.345  12.839 -0.1168  0.2044 -0.0874
29883W        W45777   0.075  11.165   1.711  0.1809  0.1656  0.4962
29884W        W45778   4.154   0.664  14.264  0.0565 -0.2037  0.0982
29885W        W45779   8.721  16.889  14.061 -0.0210  0.0214 -0.2902
29886W        W45780   6.244   5.725   2.079  0.1467  0.1585 -0.0126
29887W        W45781   2.428  10.333   2.743 -0.0490 -0.0393 -0.0328
29888W        W45782   9.061  14.928   4.608  0.2381 -0.2955 -0.0056
29889W        W45783   5.750  18.293  10.968 -0.1731 -0.0666  0.0439
29890W        W45784   7.508  13.222  13.470 -0.0306 -0.2683 -0.1418
29891W        W45785   1.992  13.553   2.578 -0.0994 -0.1604  0.1388
29892W        W45786  11.426   2.517  15.468  0.0649 -0.4958  0.3477
29893W        W45787  16.861  10.681   1.015 -0.2113 -0.1824  0.1727
29894W        W45788   0.328  15.556   5.009 -0.1426 -0.1875 -0.1275
29895W        W45789   2.486  15.976  11.774 -0.2715 -0.0771 -0.0584
29896W        W45790   5.308  11.793  11.477  0.2398 -0.3186  0.0947
29897W        W45791  17.671   0.683   4.814  0.0014  0.1180 -0.1764
29898W        W45792   7.979   2.242  12.234  0.0904  0.0352 -0.2956
29899W        W45793  13.453  16.269   6.106  0.1563 -0.1694 -0.0079
29900W        W45794  18.596   5.507  14.389  0.0347 -0.0746  0.1359
29901W        W45795  13.210   8.947   5.764  0.2551  0.0271  0.2581
29902W        W45796   9.521   4.158  11.258 -0.0262 -0.1799  0.1517
29903W        W45797   6.777  18.065  10.716 -0.0213  0.1170 -0.1140
29904W        W45798   0.710   3.597   3.160  0.0850  0.3155 -0.0502
29905W        W45799  15.191   4.067   5.012 -0.0416 -0.1887 -0.0697
29906W        W45800  17.496   3.056   0.781 -0.0193  0.1948 -0.0539
29907W        W45801   0.803   6.847  12.402  0.0068  0.0009  0.2091
29908W        W45802  13.679   0.864   3.901 -0.2560  0.1942  0.1979
29909W        W45803  12.204   8.635  12.267 -0.1032  0.0351  0.0675
29910W        W45804   6.290  10.839  13.700 -0.0015 -0.0408  0.2119
29911W        W45805  14.800   2.342  11.309 -0.0727  0.1372  0.3607
29912W        W45806  17.472   3.322   1.193  0.0123  0.5583  0.2375
29913W        W45807   2.203   8.835   4.876  0.0785  0.0702  0.0042
29914W        W45808  10.685  11.345  14.885  0.0354 -0.1606 -0.0340
29915W        W45809   9.805  16.948   1.702 -0.0012  0.0984 -0.0189
29916W        W45810  12.613   9.983  13.011  0.1120 -0.1472  0.0083
29917W        W45811   1.853  17.611  13.527 -0.1545 -0.1032 -0.1311
29918W        W45812   9.447   1.632   4.267  0.0214  0.0397  0.1806
29919W        W45813   5.952   0.273   3.893 -0.0333  0.1404  0.4121
29920W        W45814   7.332  13.923  14.792 -0.0263  0.4844  0.0439
29921W        W45815   3.189   7.519   5.594  0.1117 -0.0831 -0.1425
29922W        W45816  18.169  17.747   6.167  0.0781  0.1567  0.1294
29923W        W45817   1.360  14.541  11.640  0.1005  0.1934  0.5814
29924W        W45818   3.989   3.716   4.723 -0.0613  0.0763 -0.1047
29925W        W45819  11.626   0.643   2.849 -0.0076  0.1274 -0.4576
29926W        W45820  16.077   1.314  15.204  0.2640 -0.1583  0.0432
29927W        W45821  16.783  11.766   1.540 -0.0968 -0.1389 -0.0671
29928W        W45822   9.774  16.756  14.208  0.0329  0.2163  0.0221
29929W        W45823   4.122   9.820  10.482 -0.1287 -0.1514  0.1499
29930W        W45824  17.910   2.060   4.879 -0.0675 -0.1556  0.2410
29931W        W45825   1.513   3.001   2.296 -0.1079  0.2832 -0.2428
29932W        W45826  11.035  14.838   4.003 -0.2330  0.3874 -0.1985
29933W        W45827  17.441  17.905  13.119  0.0456  0.6314 -0.1122
29934W        W45828  16.981   5.301   0.898  0.1714  0.2223  0.0037
29935W        W45829   5.415   9.466   1.931 -0.0998 -0.1384 -0.2327
29936W        W45830   5.902  15.325  15.360  0.3010 -0.0076 -0.1671
29937W        W45831   3.911  11.763   4.584  0.0869 -0.1353 -0.0846
29938W        W45832  15.027   4.544   5.008  0.0455 -0.0216 -0.1628
29939W        W45833   2.021   7.389   0.063  0.1192 -0.1431 -0.0206
29940W        W45834   1.136  13.494   1.126 -0.3281 -0.2137 -0.0544
29941W        W45835  18.093   8.806   3.271  0.0609 -0.3484 -0.1821
29942W        W45836  15.520   2.579  14.305  0.0418  0.1450 -0.1878
29943W        W45837  16.147   1.839   5.686  0.1840 -0.0295 -0.0268
29944W        W45838  12.159   1.146   3.459 -0.2280 -0.0090  0.2670
29945W        W45839  15.345  10.324   2.106  0.1236 -0.3744 -0.2695
29946W        W45840  18.041  18.653   4.161 -0.1786  0.1520  0.0570
29947W        W45841  15.830   3.196  12.049  0.0406 -0.2382  0.2667
29948W        W45842  17.268   4.801  11.246 -0.1696  0.1092 -0.1245
29949W        W45843   4.838  15.906   4.548 -0.0565 -0.0620  0.0675
29950W        W45844   7.198  16.801   2.535 -0.0088  0.2271  0.1004
29951W        W45845   1.776  12.988  13.341  0.1352 -0.0043  0.0716
29952W        W45846  16.484   0.461  14.866  0.1243  0.4201  0.0446
29953W        W45847   2.187  13.577  12.368 -0.2994  0.1373 -0.0123
29954W        W45848  16.427   1.747  14.432 -0.2680 -0.0960  0.2642
29955W        W45849  15.180   5.831  11.043 -0.3133 -0.0019  0.2641
29956W        W45850   5.694  17.971   3.857  0.1548 -0.2293  0.0338
29957W        W45851  11.579   8.433  12.246  0.2835 -0.2556  0.1397
29958W        W45852  16.758  11.748   4.286  0.0783  0.0857  0.1264
29959W        W45853  11.309  18.062   2.310 -0.0793 -0.1673  0.4164
29960W        W45854   8.411  10.250  12.058  0.0228 -0.1841 -0.0451
29961W        W45855  11.017   8.232  13.460 -0.1633 -0.1553 -0.1538
29962W        W45856  11.641  10.454   3.565 -0.0229 -0.0541  0.1478
29963W        W45857  15.704   8.260   5.238  0.3282 -0.3892 -0.0616
29964W        W45858  10.468  10.824  11.398  0.0400 -0.2810 -0.1695
29965W        W45859  16.955   9.958   1.319 -0.3314 -0.2740  0.0677
29966W        W45860   6.851  17.658   1.319  0.1035  0.1482 -0.0037
29967W        W45861   7.559   9.050  14.240 -0.0792  0.0430 -0.0497
29968W        W45862   4.992   9.345   4.313  0.3629  0.2054 -0.0198
29969W        W45863  13.822   5.608   3.079 -0.0942 -0.2314 -0.2404
29970W        W45864  14.745  14.181   2.763  0.1975  0.2698  0.2377
29971W        W45865   2.113  13.049   5.779  0.1364  0.3393 -0.0999
29972W        W45866  17.632   7.782   0.554  0.1314  0.0249 -0.0864
29973W        W45867   5.294   7.392  11.625  0.1342 -0.3529  0.1312
29974W        W45868  14.003   9.461   0.720  0.2565 -0.3895  0.3276
29975W        W45869  11.022   7.463   4.610  0.4203 -0.1345  0.0868
29976W        W45870  14.737  13.370   5.137 -0.2095  0.1299 -0.2465
29977W        W45871   9.016   3.665  11.779 -0.0266  0.1362  0.3198
29978W        W45872  12.316   8.988  11.242  0.2941  0.1888 -0.0733
29979W        W45873   3.485  10.010  14.461  0.0187  0.2185 -0.0646
29980W        W45874   6.554  11.522   1.557  0.0210 -0.1713 -0.2162
29981W        W45875  18.342  18.553   1.581  0.0630  0.1492 -0.0153
29982W        W45876  16.371  14.888   3.096  0.2773  0.0840  0.2239
29983W        W45877   4.641  12.256  13.323  0.0825 -0.5725  0.0149
29984W        W45878   5.411  17.366   1.121  0.1038 -0.2353 -0.1407
29985W        W45879   3.762   9.203   4.337 -0.0323 -0.0847  0.0342
29986W        W45880   8.677  12.868  11.294  0.1174  0.1339  0.1603
29987W        W45881   3.185  10.097   0.001  0.0040 -0.2022  0.0741
29988W        W45882   6.951   4.681   5.049  0.0155  0.1995 -0.1682
29989W        W45883   3.733  18.477  13.418 -0.0762  0.2568  0.2045
29990W        W45884   3.309  10.125   3.340  0.0224  0.0917  0.0410
29991W        W45885  10.553  11.656  11.856  0.1516  0.2372  0.1856
29992W        W45886  10.667  14.846  15.190 -0.1466  0.2307  0.0521
29993W        W45887   4.043  11.692   5.060 -0.1825  0.1193 -0.3531
29994W        W45888   1.729   8.617   3.364  0.3960 -0.0190 -0.0563
29995W        W45889   2.402  10.430   2.123 -0.1252 -0.1261 -0.0993
29996W        W45890   8.617   2.151  13.631  0.1483  0.2990  0.0691
29997W        W45891  12.272   1.975  12.311  0.0848  0.0553  0.0525
29998W        W45892  11.006   2.390  12.242  0.1095  0.1194  0.0178
29999W        W45893   5.885   3.989   1.763  0.0630  0.0837  0.3261
30000W        W45894  10.576   2.223   1.004  0.1425  0.1255  0.0099
30001W        W45895   6.560   2.049   0.917 -0.1468  0.0952 -0.2740
30002W        W45896   8.613   1.764  14.889  0.1561  0.1257  0.1853
30003W        W45897   8.643   8.474  12.137 -0.0432  0.4439  0.2022
30004W        W45898  13.996   8.706  15.327 -0.2910 -0.0586 -0.3688
30005W        W45899  13.627  18.607   1.365  0.0275  0.1331  0.5562
30006W        W45900  11.489   2.296  10.722 -0.2231 -0.0127 -0.2988
30007W        W45901   9.821   6.448  13.810 -0.1437  0.2601 -0.0474
30008W        W45902   2.110   8.269   3.331 -0.1337 -0.0040  0.1057
30009W        W45903   5.862   8.271  14.081  0.2418  0.2333  0.1974
30010W        W45904  17.982  11.894  14.948 -0.1960  0.2568  0.2372
30011W        W45905  13.246  12.359  11.192  0.1522  0.0433  0.1385
30012W        W45906   5.455   6.934   3.379 -0.1900 -0.1806  0.1035
30013W        W45907   4.564   3.889  14.172  0.1806 -0.0413  0.2094
30014W        W45908   7.284  17.903   9.470 -0.0542  0.0473  0.0356
30015W        W45909   6.720   4.307   3.711  0.2783  0.3752 -0.2934
30016W        W45910  15.740  15.456  15.268  0.1626  0.3310 -0.2493
30017W        W45911   0.989   1.135   1.550  0.0952  0.1372 -0.0972
30018W        W45912  14.034   6.124   5.598 -0.1169  0.0372 -0.1243
30019W        W45913  14.421  15.686   5.235  0.1302  0.0392  0.4000
30020W        W45914   8.062   1.356  12.255  0.1703 -0.0612  0.1686
30021W        W45915   4.597   1.498  11.432 -0.0375 -0.1701  0.1679
30022W        W45916   8.040   0.048  14.968 -0.3176  0.3916  0.1116
30023W        W45917   1.516  18.629   0.167 -0.1857  0.1965 -0.0009
30024W        W45918  17.041   4.495   1.817 -0.0799  0.1333 -0.2233
30025W        W45919   8.059  16.526  15.172 -0.3991 -0.1654  0.0357
30026W        W45920   1.252   6.451   3.030 -0.0127 -0.2843  0.1010
30027W        W45921   7.945  12.110   4.099  0.1351 -0.0895  0.1135
30028W        W45922   0.123  12.826  13.453  0.5322 -0.0706 -0.3513
30029W        W45923  18.210   1.165  12.399 -0.0619 -0.1013  0.2094
30030W        W45924   2.968   2.509   9.513 -0.4394 -0.2351 -0.1549
30031W        W45925   0.597   3.498  10.613  0.1433  0.1723  0.2834
30032W        W45926   3.446  12.803  14.781 -0.2540 -0.1226 -0.0049
30033W        W45927  16.723   8.108  14.302 -0.4083  0.0586 -0.0968
30034W        W45928  11.849   5.595  13.505  0.1010 -0.1170  0.1019
30035W        W45929   7.782   0.580  11.489  0.0459 -0.1122  0.0037
30036W        W45930  11.831  11.509  14.345 -0.3281 -0.3780 -0.0315
30037W        W45931  14.318  15.824   0.004  0.0243  0.2657 -0.3395
30038W        W45932  16.792  15.164   4.405  0.3721  0.0898  0.1573
30039W        W45933  12.338  15.846   4.943  0.0166  0.0982 -0.0364
30040W        W45934  13.768  16.722   5.411  0.0974  0.3401  0.2104
30041W        W45935  11.927   6.215   3.604 -0.1348 -0.0573  0.1642
30042W        W45936   3.979  11.140   5.133  0.0121 -0.1716  0.1221
30043W        W45937   8.297   1.590   4.281  0.0458 -0.5786  0.0156
30044W        W45938   3.471   7.039  11.666  0.1803 -0.2386  0.1233
30045W        W45939  14.222  10.441   3.608 -0.0982 -0.1569  0.2050
30046W        W45940   8.560  17.370   3.840 -0.1037  0.1019  0.3119
30047W        W45941   7.119  10.132   3.295 -0.0883 -0.1360  0.0273
30048W        W45942  10.282   9.191   3.844  0.0081  0.1739  0.0867
30049W        W45943  14.483   0.405   3.960 -0.0728  0.0311 -0.1462
30050W        W45944  13.556   2.574   0.286 -0.1044 -0.2052 -0.0076
30051W        W45945   8.241   7.138  12.362  0.1704  0.1337 -0.3468
30052W        W45946   8.154   5.177  14.859  0.0689 -0.0331 -0.0933
30053W        W45947   6.488  17.552   1.727  0.0358  0.0565 -0.1227
30054W        W45948   8.693  12.837  12.821 -0.2101  0.1522  0.2147
30055W        W45949  11.692   8.800  14.389 -0.2699 -0.0819  0.3543
30056W        W45950  15.534  13.881   4.360  0.1000  0.1430 -0.0696
30057W        W45951   2.399   0.275   3.918 -0.0049 -0.0701 -0.0846
30058W        W45952   9.753  11.117   3.500 -0.4621  0.1866  0.4459
30059W        W45953  18.296   8.566   4.628 -0.2347 -0.1838  0.3574
30060W        W45954   0.436   7.956   2.121 -0.1098  0.2404  0.0773
30061W        W45955   6.947  18.063   3.797 -0.0394  0.1861  0.0610
30062W        W45956   9.961   8.013  13.827  0.0643 -0.0993  0.3048
30063W        W45957   2.464  17.619  12.094  0.0915  0.2118 -0.2728
30064W        W45958   5.817   0.700  13.771  0.0770 -0.2065  0.0534
30065W        W45959   6.383  13.263  11.653  0.0884 -0.1857 -0.1614
30066W        W45960   6.745  16.396   2.590 -0.0754 -0.1335  0.0249
30067W        W45961   3.787  13.160   0.321 -0.3514  0.1303  0.0057
30068W        W45962   9.864  10.789   3.060 -0.2763 -0.1725  0.0716
30069W        W45963   8.323  15.758   1.955 -0.0321  0.0455  0.1733
30070W        W45964  11.485  11.453   0.376 -0.2746 -0.2340  0.0460
30071W        W45965  13.477   2.504   2.067  0.0324 -0.4339 -0.0751
30072W        W45966  18.173   0.003  11.102 -0.0207  0.0546 -0.2792
30073W        W45967   9.422  14.843   4.285 -0.4744 -0.2982  0.0935
30074W        W45968   7.357   5.717   1.800 -0.0634  0.1766 -0.1979
30075W        W45969   0.154  14.243   3.305  0.0533 -0.1171  0.5177
30076W        W45970   8.493   4.904   2.848  0.0591  0.0917 -0.0225
30077W        W45971   1.138  18.351   0.385 -0.1371 -0.3026 -0.1715
30078W        W45972   0.681   2.301  11.398  0.2034 -0.1496 -0.0273
30079W        W45973  13.829  10.594  11.112  0.0988  0.0719  0.0748
30080W        W45974   9.419   7.923   0.732 -0.1253 -0.1005 -0.6598
30081W        W45975   3.038   5.306  11.879 -0.1477 -0.2089 -0.0682
30082W        W45976  12.499  18.668  14.519  0.1827 -0.1126 -0.3511
30083W        W45977  17.033  17.193  13.257 -0.0655 -0.0704 -0.0070
30084W        W45978   8.991  10.628   5.127  0.2713 -0.0264  0.1578
30085W        W45979   7.063  10.685   4.885  0.1780  0.0307 -0.0531
30086W        W45980   4.094  16.963  15.222 -0.0647  0.2664 -0.0539
30087W        W45981   2.502   8.275   2.696  0.0797 -0.1028 -0.1804
30088W        W45982   7.107  14.623   3.414  0.1156  0.1531  0.0495
30089W        W45983   3.820  13.778  15.559 -0.2198  0.0080 -0.1041
30090W        W45984  18.533   4.692   3.127  0.2110 -0.0632  0.1154
30091W        W45985  12.418  12.034  14.840  0.1074  0.1638 -0.3654
30092W        W45986  14.964  16.104  13.367  0.1493 -0.1371 -0.3792
30093W        W45987   7.029   8.955  14.825 -0.0858  0.2239 -0.0298
30094W        W45988  17.106  17.048   4.064  0.0361  0.0190 -0.0008
30095W        W45989   6.950   5.876   3.666 -0.1475 -0.0294 -0.2399
30096W        W45990  15.036   5.016  15.094 -0.1972  0.0232  0.0582
30097W        W45991  16.339   7.363  14.720 -0.0007 -0.1992  0.1118
30098W        W45992  16.466  12.516  12.805  0.1723  0.2187  0.1225
30099W        W45993   6.444  12.466  14.410 -0.2800  0.1987  0.1203
30100W        W45994   2.094   3.558   0.458 -0.0771 -0.0442 -0.3462
30101W        W45995   0.982  12.551  14.396 -0.3354 -0.2457  0.3949
30102W        W45996   1.222   6.223  14.015  0.0175  0.1319 -0.1111
30103W        W45997  14.056   7.081  15.255 -0.1985  0.2145 -0.2321
30104W        W45998   3.532   8.509  11.046 -0.1171  0.2638  0.2688
30105W        W45999   8.658  10.277   3.089  0.2469 -0.0031  0.0266
30106W        W46000  10.133   7.989   5.226 -0.2137 -0.0120  0.3493
30107W        W46001  18.590   5.044  13.598  0.3010  0.0499  0.0122
30108W        W46002  11.270   3.111   0.917 -0.3301 -0.0429  0.3196
30109W        W46003  14.439  12.686  11.468 -0.2219  0.1476  0.0212
30110W        W46004   9.588   4.229  13.422  0.1225  0.2204  0.1117
30111W        W46005   1.085  15.213   5.324 -0.3129 -0.0084 -0.3065
30112W        W46006  14.033  17.338   0.856 -0.1722  0.0672  0.0207
30113W        W46007   4.989  12.434  11.702  0.0132  0.1502 -0.1762
30114W        W46008   0.918   0.786   0.145  0.1902  0.0001  0.1178
30115W        W46009   6.539  11.095  11.552 -0.0973  0.1808  0.2767
30116W        W46010   0.245   9.046   2.576  0.2605  0.0324 -0.1153
30117W        W46011  18.671   5.764  11.726 -0.0624 -0.1488 -0.2333
30118W        W46012  11.504  10.332   2.453 -0.2599  0.1852 -0.3477
30119W        W46013   0.879   0.338   3.846  0.0416  0.0191 -0.1020
30120W        W46014   1.480   2.736   3.052  0.0665  0.1851  0.0588
30121W        W46015   8.318  13.394   3.686  0.1127  0.0045  0.0589
30122W        W46016  10.440   4.881   0.374 -0.2365 -0.1052 -0.0923
30123W        W46017   9.251   3.289  14.261 -0.0886 -0.1777  0.2054
30124W        W46018   0.467  12.565   3.318  0.0267  0.0467 -0.0999
30125W        W46019   1.322  12.457   0.385 -0.2641  0.0228 -0.1520
30126W        W46020   6.210   8.909  14.570 -0.1681  0.1473  0.2621
30127W        W46021   8.008  15.324   3.673 -0.0051 -0.2444 -0.1520
30128W        W46022   1.442  13.736   0.727 -0.0421 -0.2588  0.0450
30129W        W46023  13.321  10.872   1.434 -0.0545  0.2420  0.4857
30130W        W46024  16.216   6.895  14.938  0.2662 -0.2440 -0.1715
30131W        W46025   1.426   1.088   4.505  0.3481 -0.0338  0.0290
30132W        W46026  12.816   5.724   5.302 -0.0911 -0.0440  0.0546
30133W        W46027   8.753  17.687   1.169 -0.0976 -0.0261  0.0831
30134W        W46028  11.268   3.415  12.668  0.2038 -0.1893 -0.1803
30135W        W46029   3.859   2.345   3.278 -0.2233  0.0411  0.1119
30136W        W46030  11.946   5.970   4.837 -0.0024  0.0567  0.3685
30137W        W46031   1.434   7.277  11.420  0.0896 -0.0755 -0.2277
30138W        W46032   1.911   9.848  10.992  0.1227  0.2716 -0.0458
30139W        W46033   1.640   8.015  15.003 -0.0253  0.1514 -0.0418
30140W        W46034   1.914   9.641   3.976  0.2567  0.2400 -0.0565
30141W        W46035   2.553   0.447  13.699  0.0113  0.3121  0.0034
30142W        W46036   0.288  11.748  11.109  0.0712 -0.0116 -0.0275
30143W        W46037   3.730   2.543  14.844 -0.0262 -0.2603 -0.0135
30144W        W46038  13.815   4.092   0.194  0.1245  0.1178  0.0365
30145W        W46039   8.094  18.728  13.790 -0.0033  0.0500 -0.3540
30146W        W46040  15.608   8.038  12.979 -0.2566 -0.2446  0.2519
30147W        W46041   9.867   3.527   3.535  0.0618  0.0400  0.4828
30148W        W46042   9.826   2.959  12.055 -0.0386 -0.1233  0.0710
30149W        W46043   8.443   0.913   3.189 -0.0554  0.0112  0.0728
30150W        W46044  17.839  16.552   4.423  0.3958 -0.1463 -0.1930
30151W        W46045  18.758   8.196   2.202  0.2558  0.2418  0.0315
30152W        W46046   5.430   0.177  11.237 -0.1543 -0.0109  0.0545
30153W        W46047  18.449   3.908   1.269 -0.0922 -0.1703  0.0546
30154W        W46048   7.695   7.378  14.998  0.3775 -0.0250  0.1259
30155W        W46049   3.811   3.212  14.227 -0.1345  0.0835  0.3214
30156W        W46050  16.642   1.338   2.550 -0.1260  0.1866  0.3475
30157W        W46051   2.799  13.786   2.012  0.1941  0.3294  0.0971
30158W        W46052   1.785   9.077  10.361  0.0974 -0.0790  0.0117
30159W        W46053   5.710  14.985  12.301 -0.0647 -0.4249  0.0874
30160W        W46054  15.591   5.785   5.761  0.1412 -0.0142 -0.2051
30161W        W46055  13.332  10.330  13.836  0.1653 -0.0326  0.1610
30162W        W46056   6.704   1.796  11.507  0.3354 -0.0102 -0.2232
30163W        W46057   2.924  13.823   3.939 -0.0929  0.1006  0.0561
30164W        W46058  15.240   1.246  14.620  0.0038  0.2400 -0.0456
30165W        W46059   6.717  11.079   3.140 -0.1560  0.0657 -0.1703
30166W        W46060  15.075  11.287   1.903 -0.2501 -0.2435  0.1972
30167W        W46061   1.937   5.810  14.655 -0.3396 -0.0086  0.1125
30168W        W46062   6.383   8.430  14.334 -0.0125  0.2568  0.0460
30169W        W46063  12.336   9.591  11.973 -0.0705  0.1074 -0.0710
30170W        W46064   9.450  11.688  14.178  0.0366 -0.0159 -0.0113
30171W        W46065  11.447   6.931   3.154  0.1042 -0.0336  0.0764
30172W        W46066   1.496   3.026   3.962 -0.1667 -0.1477 -0.0537
30173W        W46067  12.485  18.650   4.286  0.0406  0.4063  0.1530
30174W        W46068  12.617  14.814  10.411 -0.2699 -0.0598 -0.0144
30175W        W46069  12.742   4.697   0.868  0.0147  0.0847 -0.3586
30176W        W46070  16.308  11.301  11.237  0.3540 -0.0504 -0.0766
30177W        W46071   5.159  10.657  14.971 -0.3696  0.0796 -0.0800
30178W        W46072   1.173  18.186  14.264  0.0655  0.2330  0.0730
30179W        W46073  18.450   6.345   2.086  0.2953  0.0564  0.0447
30180W        W46074   8.009   2.276   5.557  0.2842 -0.1461  0.2199
30181W        W46075   1.910   9.931  12.333 -0.0828 -0.1448 -0.0039
30182W        W46076  15.845  16.964  14.485 -0.2375  0.0045  0.1011
30183W        W46077   6.086  18.572   0.824 -0.1629 -0.4227 -0.0072
30184W        W46078   4.861  16.066  13.421 -0.2372 -0.1787  0.3073
30185W        W46079  14.169  12.740   4.050  0.2907  0.1001  0.1269
30186W        W46080   0.662  13.479   3.476 -0.1379  0.0226 -0.2368
30187W        W46081   4.647   0.692   0.624 -0.2428  0.1153  0.1083
30188W        W46082  15.535   7.253   3.204  0.1877  0.1088  0.1267
30189W        W46083  15.498   9.809  14.452  0.1563  0.2528  0.1635
30190W        W46084   9.872  13.546   1.328  0.2436  0.3170 -0.0718
30191W        W46085  16.224  10.549  14.949 -0.2398  0.1712  0.0102
30192W        W46086   7.821   0.979   0.620  0.0089  0.2535 -0.0922
30193W        W46087   9.472  13.038  11.055 -0.1124  0.0409  0.2146
30194W        W46088  15.161   0.203   2.242 -0.2306  0.4544 -0.0746
30195W        W46089  18.691  13.242  13.382 -0.0784  0.2379 -0.1312
30196W        W46090  17.236  17.703  12.337 -0.0426  0.2773  0.1934
30197W        W46091   2.356  15.043  13.388  0.1343  0.0550 -0.1852
30198W        W46092  15.206  14.189  12.153  0.2762 -0.2597  0.1696
30199W        W46093   1.923  13.162  10.426  0.3776  0.5042  0.1916
30200W        W46094   4.194  15.278  12.993 -0.0592 -0.0947  0.2680
30201W        W46095   0.812  18.209   3.993  0.1927 -0.0884  0.1645
30202W        W46096  16.218   4.048   4.216  0.0127  0.1016 -0.1617
30203W        W46097  16.242  16.909   4.223 -0.3948  0.1996  0.0250
30204W        W46098  17.222   9.997  10.941  0.1592 -0.2472  0.0443
30205W        W46099   6.198  14.491  11.525 -0.2423 -0.0310  0.1247
30206W        W46100   6.769   9.316   0.144  0.4211  0.0361  0.0342
30207W        W46101  15.672   9.070   4.318 -0.0712  0.0261 -0.0793
30208W        W46102  16.741  18.729   2.049  0.0021  0.1499 -0.0406
30209W        W46103  11.855  16.481   5.239 -0.2463  0.2245 -0.1660
30210W        W46104   9.641   1.978   1.307  0.0242 -0.2733 -0.0350
30211W        W46105   7.218   7.994   3.335  0.0605 -0.2373 -0.1256
30212W        W46106   1.172   5.197   0.720 -0.0009  0.0285 -0.1499
30213W        W46107  12.685   6.606   4.091  0.3204  0.5462  0.2672
30214W        W46108   8.117   9.889   1.431  0.1440 -0.0361  0.3424
30215W        W46109   5.984  12.606   5.594 -0.0240 -0.1280  0.3693
30216W        W46110  17.338  15.188  15.109  0.1189 -0.1533  0.1953
30217W        W46111   3.403  10.891   1.139  0.3762 -0.2258 -0.1056
30218W        W46112   2.311  11.012   1.554 -0.4577 -0.0919  0.1661
30219W        W46113  16.409  13.076   1.134 -0.3243  0.0938  0.3509
30220W        W46114   8.913  10.004  12.175 -0.2334 -0.0925 -0.2204
30221W        W46115  13.487   9.397   5.017  0.0864 -0.1272  0.3076
30222W        W46116   9.514  14.132  14.850 -0.0419 -0.0377 -0.0164
30223W        W46117   9.543  17.548   3.179  0.0141 -0.0569  0.0709
30224W        W46118  11.080   2.435   3.482 -0.0042  0.1705  0.2370
30225W        W46119   2.028  16.288  10.898  0.1988 -0.2903 -0.0526
30226W        W46120  12.002  17.041   4.463  0.3267  0.1907 -0.1377
30227W        W46121   7.711  16.823   1.392  0.0436 -0.1755 -0.0302
30228W        W46122   5.579   7.607   1.599 -0.1324 -0.1158 -0.1135
30229W        W46123   4.097  10.620   0.903  0.2275 -0.0185 -0.3457
30230W        W46124   6.751  10.219   1.349  0.0284 -0.0185  0.0682
30231W        W46125   1.028   1.991  12.311 -0.1790  0.1300  0.0729
30232W        W46126  16.795  11.472  13.714 -0.2115 -0.0123 -0.1555
30233W        W46127   6.129  13.889  15.175  0.0369  0.3262 -0.1321
30234W        W46128  13.552   8.728   3.205  0.3644 -0.2118 -0.0989
30235W        W46129   8.645  10.268  10.814  0.1416 -0.1055 -0.1941
30236W        W46130  15.359  17.633  11.529 -0.1135 -0.0879  0.3368
30237W        W46131   2.400  11.746   2.266  0.0302  0.0542  0.0201
30238W        W46132   1.669   2.528  12.904  0.0094 -0.1452 -0.2353
30239W        W46133  13.266   9.968   3.891  0.0097  0.0498 -0.2127
30240W        W46134  10.612   2.410   2.686  0.1392 -0.0496 -0.2689
30241W        W46135   1.855   8.571  12.284  0.1875  0.3702  0.0835
30242W        W46136  17.497   4.395   2.269  0.0053  0.1077  0.3243
30243W        W46137  15.832  12.556  10.380  0.1093 -0.1452  0.2046
30244W        W46138   9.239   8.488  13.984 -0.0626 -0.4599 -0.0732
30245W        W46139   3.220  16.789   3.985  0.3823  0.0647  0.0097
30246W        W46140   8.483  16.065   2.373  0.3392  0.0255 -0.1831
30247W        W46141   5.664  15.338  14.473 -0.1392  0.0313 -0.2658
30248W        W46142  17.540   8.621  10.901 -0.0135 -0.1506 -0.2103
30249W        W46143   8.578   6.096   4.845 -0.3446  0.3263  0.2564
30250W        W46144  16.609  11.335   5.590  0.2589  0.1750 -0.1475
30251W        W46145  10.249  13.594  10.932 -0.1251  0.1200  0.0059
30252W        W46146   5.043   7.788  12.240  0.0587 -0.1701 -0.0926
30253W        W46147  10.814   0.629  15.372 -0.0265 -0.0199 -0.1400
30254W        W46148  12.037  18.014  14.109 -0.5782 -0.1642  0.0636
30255W        W46149   6.067  15.727   3.820  0.0340  0.1471 -0.1007
30256W        W46150   7.782   7.220  11.518  0.3963 -0.0369 -0.0874
30257W        W46151  16.129   3.081   1.178  0.2935  0.2647 -0.2583
30258W        W46152   4.048  10.733  14.770 -0.0411 -0.2515  0.0869
30259W        W46153   3.486  15.629  13.689 -0.2294  0.1165 -0.0978
30260W        W46154  16.102  10.605   2.050  0.0737 -0.1112 -0.3098
30261W        W46155   6.241  18.269  10.935  0.1991  0.1396 -0.1019
30262W        W46156  16.229   7.702  12.591 -0.0460  0.0472  0.1308
30263W        W46157   0.646  18.012  11.970 -0.0597  0.1272 -0.0196
30264W        W46158  14.528  14.043  11.596 -0.0890 -0.0354 -0.0714
30265W        W46159  17.456  11.195  12.345  0.0080  0.1925  0.2763
30266W        W46160  11.328  13.982  14.969 -0.3359 -0.0449 -0.0558
30267W        W46161   8.336  16.607  14.277  0.0686 -0.1287 -0.1772
30268W        W46162  15.114   6.098  13.540  0.0498  0.0376 -0.1609
30269W        W46163  12.762  14.069  13.067 -0.2503 -0.1932 -0.1039
30270W        W46164  17.506   5.176  14.974 -0.3030 -0.1228  0.0594
30271W        W46165  16.772   4.544  15.104 -0.0359  0.0814  0.2039
30272W        W46166  16.301   5.647  15.024 -0.0955  0.2067  0.1718
30273W        W46167   6.074   2.728   2.619  0.0431  0.0792  0.2611
30274W        W46168  13.401   6.513  15.360  0.3162  0.1096  0.1787
30275W        W46169  17.487   2.237   0.247 -0.2875 -0.1128  0.0486
30276W        W46170   6.862   6.461  10.752 -0.1680  0.0735 -0.0264
30277W        W46171   0.256  14.982  13.448 -0.1294 -0.0286  0.3475
30278W        W46172   9.969   6.886  14.782 -0.0825 -0.2237 -0.1719
30279W        W46173   0.925   0.365   4.360  0.0963 -0.1077 -0.1923
30280W        W46174   5.449  10.519   3.909 -0.0940 -0.0125 -0.2640
30281W        W46175   4.565   6.277  14.315  0.0549 -0.1358 -0.1959
30282W        W46176   0.198  11.586   0.838  0.2229 -0.0076  0.0345
30283W        W46177  17.092  10.872   1.413 -0.1267  0.1968 -0.3017
30284W        W46178   7.072   2.624  14.710 -0.0280 -0.0887 -0.5034
30285W        W46179  10.182  17.157   1.100  0.1271  0.0365 -0.1163
30286W        W46180   2.908   2.792  14.894 -0.1534  0.1309 -0.0095
30287W        W46181   6.266   8.790   5.100  0.0431 -0.0690 -0.0201
30288W        W46182  16.115   8.277  12.713 -0.0711  0.4421  0.0179
30289W        W46183  10.920  11.672  11.472 -0.2554  0.1654 -0.0633
30290W        W46184  18.614  16.911  12.151  0.0387 -0.0052  0.0677
30291W        W46185   0.212   4.482   4.414  0.0428 -0.0146 -0.2783
30292W        W46186  16.637  17.792   1.976 -0.3592 -0.2455 -0.1949
30293W        W46187   5.316  12.828   3.751 -0.0590  0.0854 -0.1754
30294W        W46188  17.557  12.643  13.716  0.1739 -0.0228 -0.1060
30295W        W46189   6.339   1.046  12.415 -0.1176  0.3153  0.1126
30296W        W46190  17.215  16.900  14.180  0.0256  0.1313  0.3073
30297W        W46191  15.160  14.096   0.170  0.0612  0.0175 -0.1673
30298W        W46192  10.924   6.847   2.131 -0.1044  0.0844  0.0392
30299W        W46193  18.622   3.876  10.046  0.3258  0.1540 -0.1439
30300W        W46194  15.720   5.274   2.903  0.3660 -0.2856  0.0737
30301W        W46195   5.939  16.759   0.005 -0.0351 -0.0876  0.0420
30302W        W46196  15.977   0.021  14.033 -0.3234 -0.1493 -0.0335
30303W        W46197   3.199   8.797  13.406 -0.0818 -0.0225 -0.0257
30304W        W46198   9.455  16.229  12.837 -0.0690  0.1972 -0.1409
30305W        W46199  15.440   8.711   2.765  0.0098 -0.0244 -0.3707
30306W        W46200   5.015   1.715   0.527  0.1766 -0.4212  0.1073
30307W        W46201  12.961  10.015  11.404  0.5616  0.4122  0.2778
30308W        W46202  10.338  15.073  15.536  0.0455  0.0325 -0.1711
30309W        W46203  17.494  16.245  12.599 -0.3024 -0.5115 -0.0426
30310W        W46204  14.734   9.318   0.067 -0.3949 -0.0049  0.0775
30311W        W46205  17.977   3.374   4.543  0.0178 -0.0194  0.0381
30312W        W46206  15.790   5.766  14.160 -0.0628 -0.0129  0.0164
30313W        W46207  16.139  14.103   4.327  0.3937  0.0075  0.1955
30314W        W46208   3.594  15.673   5.787 -0.1863  0.1634 -0.1926
30315W        W46209   1.380  13.412  11.962  0.0132  0.1123 -0.0286
30316W        W46210  12.050   2.573  14.849  0.0132 -0.2698  0.2955
30317W        W46211   3.224   1.919   2.745  0.3400  0.0389 -0.1179
30318W        W46212  14.899   2.288  12.416  0.1736  0.1943 -0.2185
30319W        W46213  17.404  12.381   1.911 -0.2342 -0.2777  0.2812
30320W        W46214   5.099  15.042   5.030  0.2135  0.1609 -0.2280
30321W        W46215  17.694  12.158   1.017  0.1480  0.0441 -0.0210
30322W        W46216   7.079  18.637  11.408  0.2154  0.2342 -0.0748
30323W        W46217  11.608  15.826  13.586 -0.1285  0.0346 -0.0693
30324W        W46218   7.250   0.396   4.419 -0.0709 -0.1601 -0.2787
30325W        W46219  16.683   7.164   0.975 -0.1079 -0.0147  0.2276
30326W        W46220   5.302   7.244   0.636  0.0455  0.1872  0.0140
30327W        W46221   1.420   3.675  12.262 -0.1398 -0.0098 -0.0829
30328W        W46222  15.513   9.313   0.010  0.1222 -0.2291  0.1309
30329W        W46223  18.623  14.291  14.046  0.3395 -0.2625 -0.0624
30330W        W46224   7.146   5.169   2.193 -0.1754 -0.0216 -0.0195
30331W        W46225  12.762  17.978   0.867 -0.3545  0.2996  0.3465
30332W        W46226   0.284   3.821  12.242 -0.1124 -0.1674  0.0757
30333W        W46227  13.902   2.930   5.241 -0.1585  0.0158 -0.0612
30334W        W46228  14.938   2.347  15.419  0.0525 -0.2445  0.0386
30335W        W46229  10.648  13.002  12.841  0.0988  0.0536 -0.2424
30336W        W46230   9.349  11.959  14.550  0.1271 -0.2344 -0.4439
30337W        W46231  13.613  14.754  12.836  0.2322  0.1989  0.1105
30338W        W46232   4.953  12.624  12.200  0.0151  0.2209  0.0631
30339W        W46233  11.099   6.117  14.020  0.0774  0.0423  0.2529
30340W        W46234  17.442   0.931  11.561  0.5727 -0.1625  0.1622
30341W        W46235  13.186  11.823   5.898 -0.0428  0.0445  0.0744
30342W        W46236  13.872  10.001  14.705  0.0146 -0.0531  0.0111
30343W        W46237   0.579   1.160   4.450 -0.1554  0.0005 -0.0833
30344W        W46238   5.010   9.424  12.441 -0.1111  0.2348  0.4433
30345W        W46239   8.089   4.147   4.627 -0.2046 -0.2259  0.4430
30346W        W46240   0.947   1.747  11.573  0.0010 -0.1680 -0.2887
30347W        W46241   7.169   4.368  15.126 -0.0735  0.1613 -0.0933
30348W        W46242  16.882  12.839   5.161 -0.2075 -0.0489 -0.1046
30349W        W46243   7.113   7.059   4.396 -0.0205 -0.2982  0.1909
30350W        W46244  17.010   2.452   4.695 -0.1304  0.0554 -0.1160
30351W        W46245   3.457   3.267   0.044 -0.0540  0.1384  0.1429
30352W        W46246   7.961  13.210  13.233 -0.1244 -0.1701  0.3323
30353W        W46247   8.790   3.502   3.545 -0.1533 -0.6684 -0.1669
30354W        W46248   0.360   6.076  13.935  0.0850  0.0101  0.0919
30355W        W46249   8.964   0.131  15.032 -0.1123 -0.2220 -0.2100
30356W        W46250   9.157   8.612  12.906  0.0818 -0.0795  0.2544
30357W        W46251   4.230   9.667  10.957  0.0485  0.5085 -0.2452
30358W        W46252  12.235  16.499   3.264  0.2002  0.1530  0.1068
30359W        W46253  12.070  10.327  15.537  0.4157  0.0767 -0.3822
30360W        W46254   3.206  17.623   3.536 -0.0445  0.1591 -0.0643
30361W        W46255  17.421   7.381   3.854 -0.0463 -0.2069 -0.0436
30362W        W46256  18.370  11.859   1.237  0.1807 -0.0327  0.2492
30363W        W46257   9.654  13.658  12.943  0.0902 -0.1010  0.1057
30364W        W46258   2.701  16.089   1.593  0.5001 -0.0881  0.2634
30365W        W46259  17.143  16.645   5.023 -0.2972  0.0872 -0.1282
30366W        W46260   1.194   5.409   2.673  0.1048  0.1445 -0.0572
30367W        W46261  14.247  16.478  10.923  0.2490  0.4345  0.0703
30368W        W46262   4.071   8.505  14.127 -0.0346 -0.2593  0.3854
30369W        W46263   7.018   2.225   4.224  0.0447  0.4546  0.0338
30370W        W46264   4.694  10.091   3.837  0.2247  0.0741  0.2434
30371W        W46265  17.701  18.276   4.249 -0.3049 -0.0887  0.2043
30372W        W46266   1.878  13.975   2.832 -0.0280  0.2344  0.0967
30373W        W46267   7.595   2.959   2.684 -0.2988 -0.2335  0.0706
30374W        W46268  12.565  16.520   2.284  0.1452 -0.0159 -0.0398
30375W        W46269  15.411   4.626  12.229 -0.0754 -0.4040  0.4107
30376W        W46270   3.567  17.421  13.544 -0.1027 -0.3683  0.0969
30377W        W46271  18.310  13.689   6.175  0.1385 -0.0642  0.0583
30378W        W46272   5.389   4.831  11.219  0.1500 -0.4152  0.0019
30379W        W46273   3.627  16.307  11.392  0.3160 -0.0043  0.1223
30380W        W46274  15.632  15.659  14.716 -0.2781  0.0008 -0.2282
30381W        W46275   5.814   1.491  13.477 -0.1401 -0.1556  0.0300
30382W        W46276   4.958  18.590   4.921  0.1478 -0.1069  0.2613
30383W        W46277   8.888  16.834   1.039 -0.0576 -0.1453  0.0378
30384W        W46278   8.882  13.733   5.715  0.0856 -0.2746  0.1004
30385W        W46279   0.013  11.226   1.179 -0.0054  0.1060  0.0413
30386W        W46280   9.234   1.660   1.044 -0.1290 -0.2641  0.1913
30387W        W46281  10.580   1.322   0.879  0.0860  0.0469  0.1615
30388W        W46282   7.643   3.055   4.083 -0.1658 -0.3316  0.0881
30389W        W46283  10.144   9.051   0.819 -0.0905  0.0887  0.3169
30390W        W46284  16.870  14.165   6.228  0.2968  0.4024  0.0844
30391W        W46285   3.582   8.801  14.780  0.0827  0.0845 -0.1075
30392W        W46286   6.432   3.651  11.394  0.1426  0.0542  0.0087
30393W        W46287   0.730  12.552   5.172  0.1590  0.0287  0.1015
30394W        W46288   7.027  16.537  11.496  0.1102  0.2760 -0.2065
30395W        W46289  15.059   9.043  14.834  0.1875 -0.0782  0.0035
30396W        W46290  15.475  16.457  10.395  0.1109  0.0109 -0.1263
30397W        W46291  12.425   3.959   2.389  0.1073  0.0879 -0.0218
30398W        W46292   7.088  11.740   0.918  0.1349  0.0400 -0.1460
30399W        W46293   9.663   5.475  14.950  0.0750 -0.0355 -0.0080
30400W        W46294  18.543   8.017   2.625 -0.1166 -0.0984  0.1141
30401W        W46295  17.617   2.203  11.807 -0.0770 -0.3017 -0.3225
30402W        W46296  18.397   1.183  11.861  0.2162 -0.2320  0.1004
30403W        W46297   2.577  11.720  13.953  0.1702  0.1257  0.0986
30404W        W46298   6.313   3.621   2.082  0.4518 -0.1109  0.0059
30405W        W46299   9.044   4.111   4.868  0.0698 -0.2884 -0.1549
30406W        W46300  15.340  12.369   3.568  0.0212 -0.0972 -0.0514
30407W        W46301   8.748   7.752  15.333  0.2925 -0.1076 -0.0631
30408W        W46302  16.373  16.065   5.148  0.0441  0.3233 -0.2521
30409W        W46303   6.945   8.128  12.399 -0.0255  0.0822  0.1381
30410W        W46304   9.331   4.709  14.306 -0.2549  0.3025  0.2569
30411W        W46305   9.760  13.030   1.206 -0.0263 -0.2755  0.0092
30412W        W46306  16.611   8.700   0.617  0.1148  0.2235  0.0766
30413W        W46307  17.956   4.858  14.064  0.2483 -0.1734  0.0697
30414W        W46308  15.420  10.165   5.349  0.0381 -0.0881  0.0959
30415W        W46309   7.754   2.405   4.587  0.0366 -0.0626 -0.0442
30416W        W46310  18.177   3.021   0.167 -0.1716 -0.1305 -0.0713
30417W        W46311  15.122   5.442   4.513  0.1423  0.6004 -0.3602
30418W        W46312  16.005   1.626   3.842  0.0940  0.1304  0.2702
30419W        W46313  15.855  11.777   2.193  0.3198  0.2066 -0.1282
30420W        W46314   9.030   9.690  14.629 -0.2144  0.1725  0.0340
30421W        W46315  18.245   0.276   2.372 -0.2252  0.0710 -0.1872
30422W        W46316   1.814  12.600  13.072 -0.2679 -0.1539 -0.1816
30423W        W46317   6.149   0.373  13.473 -0.0121 -0.0793  0.0192
30424W        W46318   4.555   4.365   2.224 -0.2106  0.0590  0.1103
30425W        W46319  17.307  11.286  13.950  0.0238  0.0453 -0.2426
30426W        W46320  13.596   8.207   2.172 -0.0017 -0.1363  0.1298
30427W        W46321  13.446  17.037  14.766  0.0579 -0.1499 -0.0430
30428W        W46322  11.542  10.666   4.578  0.0516 -0.2382 -0.0006
30429W        W46323   9.517  15.154   2.353  0.1961  0.1160  0.0668
30430W        W46324   3.846   0.020   4.122  0.2056 -0.2384  0.3524
30431W        W46325  12.445  11.935   2.402  0.0465 -0.1806 -0.1131
30432W        W46326   0.705  16.368   3.759  0.0864 -0.0186 -0.1106
30433W        W46327  14.210   4.599  12.635 -0.0022  0.1648  0.1846
30434W        W46328  17.419  12.197   2.324 -0.1166  0.3330  0.0943
30435W        W46329   0.659  16.323  14.664  0.2168 -0.6583 -0.2455
30436W        W46330  10.742  11.250   1.108  0.0904 -0.0266  0.0074
30437W        W46331   3.570  11.532   4.296 -0.0805 -0.0041  0.2427
30438W        W46332  10.504   8.892   0.384 -0.0177  0.0335  0.2343
30439W        W46333  10.691   2.149  11.072 -0.0714  0.2827  0.0601
30440W        W46334   3.153   2.620   2.659 -0.0956  0.1913 -0.0982
30441W        W46335   8.441   3.079   4.414  0.0632 -0.0528  0.3147
30442W        W46336  14.296  10.890  11.199  0.2532  0.3132  0.0560
30443W        W46337   3.170  16.913  14.251 -0.0900 -0.1751 -0.0505
30444W        W46338   8.978  18.474   5.005 -0.0246  0.2368  0.0393
30445W        W46339  12.802   8.443   0.147 -0.0151 -0.0118 -0.2925
30446W        W46340  17.149  11.675   3.599 -0.0538  0.0278 -0.2029
30447W        W46341   3.095  17.200   1.367 -0.3608  0.4890 -0.0482
30448W        W46342   7.214   4.117  11.128 -0.2850  0.1047 -0.0430
30449W        W46343   9.863   3.322  13.736 -0.0545 -0.2481  0.0443
30450W        W46344  13.453   7.932  15.077 -0.0086  0.1830 -0.2561
30451W        W46345  18.151  10.241   5.592  0.3648 -0.4325  0.2438
30452W        W46346   8.792  16.800  13.355  0.1032  0.0891 -0.1731
30453W        W46347  17.715   5.421   9.692 -0.1705  0.0117 -0.2040
30454W        W46348  14.901   6.824  13.451 -0.1623  0.2465 -0.2004
30455W        W46349   9.851  12.619  10.945 -0.2110  0.1253  0.1308
30456W        W46350  12.299  10.551  12.948  0.0662 -0.4646  0.1197
30457W        W46351   6.117  14.376  14.117 -0.1154  0.1215 -0.0907
30458W        W46352   6.355  17.694   2.203 -0.2714 -0.1021  0.2439
30459W        W46353  14.636  17.981   2.445  0.0556  0.0018 -0.0008
30460W        W46354   3.861   1.310  12.519  0.1034  0.2054  0.0087
30461W        W46355   5.813   9.049   3.122  0.1110  0.0111 -0.1375
30462W        W46356   6.691   8.762  13.571 -0.1509 -0.0980  0.2934
30463W        W46357   2.440  11.880  10.762  0.0911 -0.1386  0.1475
30464W        W46358  13.519   2.015  14.108 -0.2643 -0.2330  0.2374
30465W        W46359  18.369   7.112  13.727  0.3914 -0.0059 -0.2617
30466W        W46360  14.477  10.224  12.495 -0.1046  0.0138 -0.1278
30467W        W46361  18.667   2.577  14.122 -0.3158  0.0884  0.3694
30468W        W46362  14.911   8.198   1.995 -0.1807 -0.0589 -0.1162
30469W        W46363  13.674  12.537  14.942  0.2406 -0.2816  0.4414
30470W        W46364   4.344  16.632   9.756  0.0077 -0.0848  0.0743
30471W        W46365  14.532  13.485  14.402  0.0906  0.0462 -0.5175
30472W        W46366   3.131   4.796   5.454 -0.1268 -0.2350 -0.1327
30473W        W46367   7.659   8.155   4.139 -0.0399  0.0048  0.2456
30474W        W46368   5.559   2.676   0.099  0.0399  0.2025  0.0902
30475W        W46369  10.373   1.104  13.447  0.0242 -0.1310  0.1063
30476W        W46370   2.608   4.796   5.258 -0.1751 -0.3840 -0.0748
30477W        W46371   8.066   6.905   3.910  0.0495  0.3160 -0.1025
30478W        W46372   1.498  12.374  14.844  0.0351 -0.2313 -0.1330
30479W        W46373  18.208   7.689  13.634 -0.1809 -0.1505  0.4593
30480W        W46374   8.922  17.283   0.713 -0.0445  0.0664  0.1066
30481W        W46375  14.672   4.057   4.888 -0.0003 -0.1514 -0.1245
30482W        W46376  18.263   4.310   2.800  0.2771  0.0952  0.2408
30483W        W46377  12.088   7.848  15.181  0.1954  0.0154  0.2136
30484W        W46378  10.140  12.687  14.642 -0.1834  0.3687  0.2153
30485W        W46379   5.130  16.362  14.587 -0.1844 -0.0781 -0.1479
30486W        W46380   5.379  18.526  12.205  0.1481  0.1490  0.0134
30487W        W46381   3.410   6.230  15.018  0.0301 -0.3567  0.1046
30488W        W46382  10.030   2.580  13.254 -0.0129 -0.0816  0.0118
30489W        W46383   8.133  17.669  11.243  0.0482  0.1881 -0.0153
30490W        W46384   3.887   3.274  13.728  0.0610 -0.0709 -0.0647
30491W        W46385   8.124   3.878   2.101 -0.0814 -0.1454 -0.0668
30492W        W46386  17.030  10.933  14.780 -0.3512  0.0924  0.4073
30493W        W46387  12.294  16.267  15.497 -0.2648  0.1359 -0.0786
30494W        W46388  12.922   6.680  12.202 -0.0922 -0.0983 -0.3490
30495W        W46389  18.601   9.896   1.648  0.0760  0.1698 -0.2428
30496W        W46390  14.065   7.509   4.587  0.3320  0.0423  0.0658
30497W        W46391  11.085   2.113  12.980 -0.1061  0.0053 -0.0839
30498W        W46392  14.680   1.266  13.244  0.1870 -0.2471  0.0093
30499W        W46393  12.313  13.321  11.890 -0.1209  0.3944  0.0789
30500W        W46394  16.207  17.870  13.032 -0.0006  0.0474  0.0808
30501W        W46395  18.405   3.512   0.284  0.2523 -0.1349 -0.1001
30502W        W46396   8.782   5.675   4.505 -0.1023 -0.1874  0.0529
30503W        W46397   3.193  11.418   0.146  0.1811  0.1210  0.0291
30504W        W46398  17.214  15.040   0.025 -0.1011 -0.3445  0.1375
30505W        W46399   4.017   9.379  12.800  0.0633  0.0292 -0.0001
30506W        W46400  16.890   8.306   0.435  0.2359 -0.0074  0.0210
30507W        W46401   3.559  10.281   3.962 -0.1270 -0.0889 -0.1105
30508W        W46402   8.547   7.263   4.249 -0.1804  0.0996 -0.0013
30509W        W46403   1.715  12.980   3.626  0.1196 -0.1455 -0.0221
30510W        W46404  18.231  17.673   4.592  0.0871 -0.1203 -0.2606
30511W        W46405   0.732  13.570  15.188 -0.0834  0.1311  0.1213
30512W        W46406  13.265   5.294   3.267 -0.0859 -0.4409  0.1671
30513W        W46407  18.265   4.146   4.183 -0.0282 -0.1458  0.2534
30514W        W46408  13.929  13.451  12.199  0.2292  0.4591 -0.0386
30515W        W46409  15.972  18.387   0.207 -0.0597  0.0912  0.0808
30516W        W46410  15.159   8.496  14.821  0.0224  0.3804  0.0533
30517W        W46411   4.707   5.421  13.903  0.2422  0.2327  0.0425
30518W        W46412  12.019   7.729   4.871 -0.0153  0.1572  0.0545
30519W        W46413  17.045   7.466   3.535 -0.0772  0.1217  0.3500
30520W        W46414   4.709   3.939  12.324 -0.1073 -0.1228 -0.0769
30521W        W46415  15.591   2.893  10.408 -0.1992  0.2259 -0.3258
30522W        W46416  16.544  16.540  11.181 -0.0501  0.3824 -0.0823
30523W        W46417  17.687  17.818   1.664 -0.0853  0.0129  0.3148
30524W        W46418  10.649  16.846   4.726 -0.0418  0.1422  0.0853
30525W        W46419  10.498  15.676   2.345 -0.1346 -0.1718 -0.0531
30526W        W46420   6.674  17.195  13.252 -0.2971 -0.1422  0.0391
30527W        W46421   3.625   9.879   2.289  0.2646  0.0630  0.2938
30528W        W46422   8.968   7.549   5.249 -0.2141  0.2900  0.2652
30529W        W46423   2.078  15.776   2.707 -0.1380 -0.0685  0.0997
30530W        W46424  17.253  15.586   3.635 -0.1543 -0.0762 -0.1286
30531W        W46425   6.514  14.099  10.536 -0.1349  0.4929 -0.3259
30532W        W46426  16.877  13.119  14.341 -0.2059 -0.2713  0.0668
30533W        W46427  14.428  14.010  14.010 -0.0707  0.0311  0.1742
30534W        W46428   5.100   4.848  12.388 -0.2101 -0.2944 -0.0487
30535W        W46429   4.483  12.686  10.718  0.0452  0.1034 -0.1239
30536W        W46430   9.581  10.568  12.560 -0.2194 -0.0506  0.0388
30537W        W46431   2.890   1.887  11.059 -0.1028 -0.0034  0.1772
30538W        W46432   2.864  18.016  12.146  0.0573 -0.2427 -0.0005
30539W        W46433  13.962   5.195  12.064  0.0132  0.0405  0.1537
30540W        W46434   0.480   8.908   3.031 -0.0646  0.0201  0.3718
30541W        W46435  16.412  10.311  12.713  0.2200 -0.2788  0.1649
30542W        W46436   3.167   5.408   4.093  0.1549 -0.2379 -0.1913
30543W        W46437   2.591  11.264   1.240  0.1562 -0.1826 -0.2150
30544W        W46438  13.494  18.016   3.152 -0.1225 -0.2774 -0.1352
30545W        W46439   9.411  16.144  13.400 -0.0136 -0.2175  0.1330
30546W        W46440  14.918  18.673  11.124  0.0190 -0.3227 -0.0331
30547W        W46441  17.287  16.723   3.682 -0.2414 -0.2704  0.0295
30548W        W46442   6.775  12.478   1.255 -0.0382  0.3658 -0.1706
30549W        W46443  16.466   1.339  11.513  0.1962 -0.0206  0.0631
30550W        W46444   4.492  13.755  14.328 -0.2365  0.0145  0.1706
30551W        W46445  11.249   7.428   0.036 -0.1680  0.0029  0.0763
30552W        W46446   8.141   5.683  12.212  0.0206  0.0355  0.4013
30553W        W46447   2.231  10.852   4.644 -0.7519 -0.3738 -0.3716
30554W        W46448  13.077   7.777  14.767 -0.1168  0.3271 -0.1597
30555W        W46449  10.884  11.995   2.709 -0.2772 -0.0482 -0.2956
30556W        W46450  17.078  14.455   4.531 -0.1567  0.1369  0.1392
30557W        W46451   6.377   9.118   2.298  0.0460  0.0737 -0.2675
30558W        W46452   1.740  16.545   3.704  0.0428  0.0765 -0.0621
30559W        W46453  16.754  13.384   4.015  0.0346 -0.0042  0.2153
30560W        W46454  14.615  10.438  13.770  0.0006  0.1566 -0.1883
30561W        W46455   1.412   4.858   4.147 -0.0822  0.0263  0.3509
30562W        W46456  11.961  18.202  11.778 -0.0080 -0.0124 -0.0158
30563W        W46457  18.513   2.751  15.537 -0.0750  0.2606 -0.0114
30564W        W46458   0.829   5.905   2.357  0.2273 -0.0641  0.3722
30565W        W46459   7.808   9.791   5.437 -0.0121 -0.5028 -0.1722
30566W        W46460  17.090   1.529   4.811  0.1779  0.0271  0.1623
30567W        W46461  11.785   7.493   3.627 -0.0354  0.0415 -0.0258
30568W        W46462  13.238   9.358  12.557 -0.0335 -0.0629  0.1584
30569W        W46463   0.363   8.443   1.981  0.1621  0.2585 -0.2799
30570W        W46464   2.529   9.608   3.639 -0.1773 -0.1300  0.1692
30571W        W46465   8.599  17.082   1.679  0.0688 -0.0156  0.1165
30572W        W46466  10.885  12.859   0.947 -0.1274 -0.0274  0.1351
30573W        W46467  12.624  15.794  14.305 -0.1753  0.0683  0.2758
30574W        W46468   1.804   0.330  12.181  0.0080 -0.0791 -0.0440
30575W        W46469  10.729   0.573  13.976  0.2504  0.1540  0.0844
30576W        W46470   3.692  15.516  11.616 -0.0909  0.0156 -0.1565
30577W        W46471  10.524  13.566  13.425 -0.0055  0.3452  0.2011
30578W        W46472   1.047   8.074  12.409  0.1207 -0.0322 -0.3503
30579W        W46473   5.242  10.351   3.410 -0.1456 -0.3652  0.4661
30580W        W46474   6.928   9.217  10.334  0.4277  0.0852  0.0862
30581W        W46475  14.973  18.392   2.175  0.0086  0.1896 -0.0304
30582W        W46476  15.691  11.597   4.564  0.1598 -0.0043 -0.0663
30583W        W46477  11.789   7.693   0.306 -0.1909 -0.1892 -0.0526
30584W        W46478   1.744   2.223  10.350 -0.3269 -0.0338  0.1529
30585W        W46479  13.314   5.674   5.490 -0.0774 -0.0843 -0.0172
30586W        W46480   0.022   7.434  11.796  0.0477  0.2853 -0.0880
30587W        W46481   4.399   8.631  13.078 -0.0562 -0.1015 -0.3118
30588W        W46482   9.583   5.686  13.375 -0.1574  0.0736  0.0536
30589W        W46483   0.448   4.024   4.358  0.2193 -0.3716 -0.0702
30590W        W46484  15.215   1.625  11.632  0.0305  0.2160 -0.1930
30591W        W46485  16.524   1.236   0.753 -0.0075  0.0983 -0.4338
30592W        W46486   8.931   9.017  12.188 -0.5067 -0.0533  0.1869
30593W        W46487  12.435   8.272  13.596 -0.1903 -0.0801 -0.0157
30594W        W46488   6.804  11.423   4.462  0.2862 -0.0814  0.1191
30595W        W46489  14.646   4.798   0.991  0.0009  0.3541 -0.0337
30596W        W46490   9.101   6.125   0.402  0.0034  0.2873 -0.2445
30597W        W46491   8.125  12.745   4.477  0.0827  0.2596 -0.4132
30598W        W46492   5.153  11.865   5.421 -0.3686 -0.0774 -0.0169
30599W        W46493   6.295  11.523   0.319 -0.3078 -0.0508  0.2214
30600W        W46494   3.525  16.960   1.078  0.0147 -0.2908 -0.0101
30601W        W46495   6.175   7.915  11.538 -0.1632 -0.2259 -0.0599
30602W        W46496   2.087  15.546  11.876 -0.0122  0.1369 -0.2406
30603W        W46497   4.302  18.374  11.059  0.1360  0.0017 -0.0044
30604W        W46498  15.200  14.311  14.473  0.1532  0.1062  0.2945
30605W        W46499  16.388   3.708  13.388 -0.1057 -0.0939 -0.1589
30606W        W46500  12.969   0.849  12.713  0.1588  0.0534 -0.2874
30607W        W46501   3.648  17.334   2.611 -0.0616  0.0425  0.1573
30608W        W46502   3.584  10.732  12.523  0.0467 -0.2514  0.1952
30609W        W46503   1.029   4.000  13.074  0.0811 -0.0173  0.1236
30610W        W46504  13.451  16.883   3.409  0.2511 -0.2008 -0.4182
30611W        W46505   1.422   2.032  14.095  0.0587  0.1298  0.0430
30612W        W46506   9.150   5.734   2.867 -0.1414  0.1496  0.1334
30613W        W46507  10.643  18.139  13.938  0.3506 -0.0427  0.0668
30614W        W46508  16.811   0.309  12.767 -0.1056 -0.1290  0.0037
30615W        W46509  18.306   8.594   2.849 -0.0150 -0.0769 -0.0223
30616W        W46510  16.578  10.783  15.285  0.3569  0.1193 -0.1110
30617W        W46511  11.814   5.754   5.333  0.0146 -0.3173 -0.2879
30618W        W46512   9.096   4.623   0.646  0.1728 -0.1901 -0.1104
30619W        W46513  13.938  14.133  14.661 -0.0006  0.0130  0.2629
30620W        W46514   6.421   3.869   3.411  0.1149 -0.2241 -0.2688
30621W        W46515  12.402  14.573   3.496 -0.2863 -0.2471  0.0038
30622W        W46516   4.797   9.053   5.207 -0.0340 -0.1053 -0.1579
30623W        W46517   4.422  17.893   3.430  0.0890 -0.1049  0.3727
30624W        W46518  17.730  13.650  12.695 -0.2417 -0.0684  0.2212
30625W        W46519   4.977  15.940   2.816 -0.0876  0.0412 -0.2978
30626W        W46520   9.113   4.100  11.568  0.1608  0.0578  0.0201
30627W        W46521  12.349  12.646   3.220  0.1634  0.3348  0.1325
30628W        W46522  17.151   6.174   2.088 -0.0766  0.0336  0.1645
30629W        W46523  12.085  11.588   4.925 -0.2129 -0.0520  0.1042
30630W        W46524  11.262   8.956   5.749 -0.0005  0.1762  0.1475
30631W        W46525  17.203  13.670  11.346 -0.0253 -0.4010 -0.2294
30632W        W46526  11.780   7.650   1.257  0.0657 -0.0249 -0.2942
30633W        W46527  15.641  15.648   0.119 -0.2108 -0.2492 -0.0029
30634W        W46528   6.145   6.072   4.606  0.1068  0.1017 -0.1380
30635W        W46529  10.257  15.962   1.054  0.1119 -0.0369  0.0572
30636W        W46530   0.595  15.371  12.822 -0.1115  0.0963 -0.0416
30637W        W46531  15.683  15.113  12.132 -0.2782 -0.0773  0.2601
30638W        W46532   0.048  14.503  14.965  0.0450  0.0317 -0.1563
30639W        W46533   3.634   9.771  12.759 -0.3651  0.3232  0.1788
30640W        W46534  17.884  13.971  11.839  0.1585  0.0182 -0.0497
30641W        W46535  14.645  11.701   5.687 -0.0545 -0.0658  0.0291
30642W        W46536   9.307  13.568   3.031  0.0486 -0.0082 -0.4362
30643W        W46537   8.668  17.257  13.190  0.2307  0.2654 -0.0824
30644W        W46538  15.572   1.242   2.705  0.0274 -0.0517 -0.1040
30645W        W46539  14.839   4.103   1.653 -0.1917  0.1016 -0.0256
30646W        W46540   9.213  16.070   0.926  0.2960  0.4038 -0.0530
30647W        W46541  15.279   9.125   3.208 -0.2099 -0.1086 -0.1224
30648W        W46542  17.745  14.804   3.405 -0.2702 -0.2050  0.1865
30649W        W46543   1.765  17.567   4.593  0.2998  0.0352  0.0850
30650W        W46544  17.026   3.378   0.928 -0.3074  0.0474  0.1771
30651W        W46545   8.623  11.311  15.611 -0.0549  0.1488 -0.1685
30652W        W46546  17.989   4.485  11.700  0.0652 -0.1043  0.2253
30653W        W46547   2.913   5.088   0.662 -0.1255 -0.1352 -0.2002
30654W        W46548   5.974   9.261   0.034  0.0002  0.1906  0.0930
30655W        W46549   9.972  14.689  13.945 -0.2289 -0.1168  0.3240
30656W        W46550   6.630  10.626  13.324  0.0861  0.5548 -0.0050
30657W        W46551  14.750   2.822  11.356  0.1567  0.1021  0.0513
30658W        W46552   4.405   1.257  12.682  0.0711 -0.0970 -0.0939
30659W        W46553  14.800  13.260  12.259 -0.1561  0.2784 -0.0274
30660W        W46554  14.015  17.555  15.341  0.0010  0.0852 -0.1305
30661W        W46555   9.832   5.147  12.711  0.2151 -0.3435 -0.0633
30662W        W46556  12.096   3.805   3.927 -0.1232  0.1879  0.3980
30663W        W46557   2.972   9.926  12.636 -0.0687  0.0746  0.0113
30664W        W46558   3.059   7.715  15.303 -0.4525  0.1564 -0.1127
30665W        W46559  16.366  12.755   5.091  0.2620  0.3665 -0.3117
30666W        W46560  14.818  11.051  14.661  0.0947  0.0608  0.0416
30667W        W46561   5.714   1.206   1.146  0.3210 -0.1581 -0.1089
30668W        W46562   3.769   4.436  13.559 -0.1186 -0.1230 -0.3968
30669W        W46563  10.387   7.141   2.142 -0.0915 -0.0336 -0.0179
30670W        W46564   4.642   7.248  13.482  0.0699 -0.1026  0.0874
30671W        W46565  11.139  13.848   4.106  0.0145 -0.0168  0.1131
30672W        W46566  14.192  13.800   4.508  0.0711 -0.2150  0.2049
30673W        W46567   8.165   7.389  15.138  0.2237 -0.2011 -0.0043
30674W        W46568  17.487  16.036  15.215  0.1950  0.0287 -0.0480
30675W        W46569   4.748   3.862   4.441  0.0313  0.0977 -0.3221
30676W        W46570   9.166   5.530   0.801  0.1797  0.0418  0.1574
30677W        W46571   8.701   1.588  11.668  0.3785  0.0776 -0.3098
30678W        W46572  11.825   8.203   0.384  0.2740 -0.2485 -0.0647
30679W        W46573   0.015  15.077  13.905  0.0863  0.1236  0.2422
30680W        W46574   4.159   6.411   2.907 -0.1363 -0.2448 -0.1780
30681W        W46575   8.289   5.183   4.791  0.0901  0.1511  0.1854
30682W        W46576   5.816   9.482  11.599 -0.1630 -0.0614  0.1844
30683W        W46577   7.349   5.032  13.041 -0.1248  0.1009  0.0968
30684W        W46578   6.415  14.023   0.041 -0.2318  0.1601  0.1427
30685W        W46579   8.125   1.739  13.024  0.0764 -0.2117  0.3250
30686W        W46580  13.738  14.473   3.672  0.0193  0.0927 -0.0515
30687W        W46581   5.134   2.248   2.199  0.0741  0.0270  0.3741
30688W        W46582  14.854  15.092   2.707 -0.0809 -0.0073  0.1921
30689W        W46583  11.814  16.729   1.607 -0.0194 -0.1423 -0.0599
30690W        W46584  15.223   2.518   1.426 -0.4284 -0.1030 -0.1408
30691W        W46585   4.668   7.855  13.455  0.0278  0.1098  0.0007
30692W        W46586   1.707   7.468  13.110  0.2293 -0.0836 -0.2792
30693W        W46587   1.060   3.960   3.063 -0.2400  0.1112 -0.1593
30694W        W46588   5.217   6.670   1.927  0.1529  0.3076 -0.0933
30695W        W46589  12.626   4.073  12.359 -0.2967  0.2830 -0.1063
30696W        W46590   9.985  18.330  13.283 -0.0192 -0.0893  0.0345
30697W        W46591  13.312  10.001   1.248  0.2407  0.0868 -0.0045
30698W        W46592  18.765   9.831   1.182 -0.1536  0.0873 -0.2416
30699W        W46593   9.501  11.130   1.624 -0.3025 -0.0179 -0.0359
30700W        W46594   4.889  15.512   2.337  0.0527  0.4153  0.1948
30701W        W46595   4.376  10.971   1.698  0.0076  0.1125 -0.2668
30702W        W46596   8.596   7.190  13.693  0.0202 -0.4130  0.4722
30703W        W46597   6.541  15.986  13.802 -0.2023 -0.3730 -0.1334
30704W        W46598  13.826   8.661  13.875 -0.1256 -0.1371  0.0133
30705W        W46599  16.365   8.869   0.180  0.0887  0.0838  0.0000
30706W        W46600   6.486  10.505   4.276  0.2028  0.0657  0.2937
30707W        W46601  17.349   7.033  14.505  0.2748  0.1670  0.0860
30708W        W46602   1.154   0.313   0.364 -0.2284  0.0874 -0.4074
30709W        W46603   9.011  12.133   1.644  0.1823 -0.2609  0.1556
30710W        W46604  15.658  15.790   0.977 -0.2260 -0.2944 -0.0283
30711W        W46605   3.146   3.963  13.747  0.1988 -0.0962  0.0304
30712W        W46606   6.803   9.432   5.754 -0.0808 -0.0051 -0.0251
30713W        W46607  11.245  16.468  13.136 -0.0103 -0.1686 -0.1134
30714W        W46608   3.804   3.025   4.990 -0.0617 -0.2688  0.1614
30715W        W46609   0.589   2.604  15.532 -0.0103  0.1979  0.2523
30716W        W46610   8.722   3.412  14.487  0.1100  0.0956  0.0149
30717W        W46611   3.681   7.572   4.001 -0.0969  0.3631 -0.0474
30718W        W46612   1.786  11.641  14.077  0.1912  0.0093 -0.0597
30719W        W46613   9.157   4.369  15.502  0.3441 -0.2652 -0.0641
30720W        W46614  10.527   3.712   0.903  0.2118  0.2485 -0.1537
30721W        W46615   6.415   1.558   0.716  0.0381 -0.1039  0.0416
30722W        W46616   4.126  13.662   1.980  0.2030  0.0120  0.0549
30723W        W46617   8.399  14.870  12.418 -0.1325  0.1311  0.4186
30724W        W46618   6.226   9.169  11.752 -0.3458 -0.2994 -0.2764
30725W        W46619   2.698  18.151  15.345  0.1962 -0.0640  0.0883
30726W        W46620  11.275  17.791  12.789 -0.3875  0.2874 -0.1516
30727W        W46621  14.737   9.825  15.206 -0.1190  0.2603  0.0354
30728W        W46622   1.951   8.136   0.696 -0.0758 -0.0186 -0.2626
30729W        W46623  18.368   2.141   1.863 -0.2274  0.3089  0.2700
30730W        W46624   6.074  13.625   3.706 -0.0611  0.0325  0.3602
30731W        W46625  16.985   0.202  11.182 -0.0818  0.2572 -0.0767
30732W        W46626  10.576  17.492   9.678  0.2072 -0.0619 -0.3821
30733W        W46627  13.660  10.756   5.486  0.0193 -0.3500 -0.1436
30734W        W46628  15.343   9.323  13.015 -0.0434  0.0086 -0.2286
30735W        W46629  12.237   3.078  13.375  0.0886 -0.0217  0.0307
30736W        W46630  14.503  14.707   2.112 -0.0990  0.1641 -0.0346
30737W        W46631  15.244  14.966  11.096  0.0870  0.2152 -0.0818
30738W        W46632  11.120  18.323   0.049  0.2494 -0.1211  0.2756
30739W        W46633   3.990   6.811  13.375 -0.1511  0.2521  0.2774
30740W        W46634   5.497   2.118   4.678  0.0469  0.0179  0.0275
30741W        W46635   8.810   5.590   0.296  0.0890 -0.0705  0.2239
30742W        W46636   2.847  17.478   1.749  0.0011  0.0552  0.0109
30743W        W46637   6.205  17.269  13.568 -0.0498  0.2398 -0.1093
30744W        W46638   0.378  10.950   3.345 -0.1256  0.3332  0.2620
30745W        W46639  16.269   3.392   3.552  0.1612  0.1669 -0.0431
30746W        W46640  11.225   3.759  13.141 -0.0350 -0.1407 -0.0958
30747W        W46641   8.405   1.999   3.902  0.5238 -0.3280  0.0767
30748W        W46642   3.720   4.708  14.337 -0.1326  0.0628 -0.0328
30749W        W46643   3.126   6.083  14.094 -0.1919 -0.2296  0.1170
30750W        W46644   8.282  17.924   1.208 -0.1757 -0.0883  0.0835
30751W        W46645   4.421  12.199   3.037 -0.0517 -0.0586 -0.0759
30752W        W46646   8.164   5.572   4.306  0.0589 -0.0393  0.3637
30753W        W46647   4.885  11.983   3.481  0.1284 -0.0743 -0.0173
30754W        W46648  15.430   6.168   3.731 -0.2544 -0.3163  0.0436
30755W        W46649   6.235   9.041  13.626 -0.0319 -0.2245  0.0897
30756W        W46650  12.719   8.367  11.412  0.0184 -0.1302 -0.0045
30757W        W46651   4.714   1.427   3.874 -0.2496 -0.1781  0.1294
30758W        W46652   3.433   5.130  12.878  0.1428 -0.0726 -0.1119
30759W        W46653  10.146  16.985  14.580 -0.1373 -0.2001  0.3597
30760W        W46654  15.619  12.116   5.403  0.0856 -0.0093 -0.1390
30761W        W46655   2.625  17.700   2.174  0.0322  0.0684  0.1218
30762W        W46656   4.422  11.795  14.533  0.0944 -0.0599  0.0801
30763W        W46657   3.766  10.639  13.225  0.0939 -0.0854 -0.1855
30764W        W46658   1.270  16.224   5.370 -0.1365  0.2589  0.0699
30765W        W46659  10.791  14.763   2.916 -0.2174 -0.0695 -0.2558
30766W        W46660   6.159  11.049  15.124 -0.1706 -0.0792 -0.0608
30767W        W46661   3.620  12.604   1.051  0.0930 -0.0843  0.0303
30768W        W46662  13.293  13.150   1.920 -0.2261 -0.3186 -0.2580
30769W        W46663  13.293   0.749   1.229 -0.0666 -0.0395 -0.2467
30770W        W46664   7.093  14.345   1.374  0.0559 -0.2693 -0.0209
30771W        W46665   8.286   7.205  11.582  0.0805  0.2315 -0.0322
30772W        W46666   4.926   3.333   1.462 -0.0807  0.1427 -0.0783
30773W        W46667   8.023   8.396   1.243  0.2341 -0.0856  0.2226
30774W        W46668   2.596   2.948  14.480  0.0109  0.4178 -0.1893
30775W        W46669  11.742   5.349   3.974 -0.1852 -0.1359 -0.1996
30776W        W46670   5.847   8.986  11.436  0.2768  0.1453 -0.0286
30777W        W46671  18.545   3.676  12.066 -0.4832  0.0960 -0.0298
30778W        W46672  18.176   1.117   1.654  0.1056 -0.1522  0.2175
30779W        W46673   8.122  10.045   0.222  0.4580 -0.0057 -0.0284
30780W        W46674   7.972   7.846  13.434 -0.2543  0.1077 -0.0634
30781W        W46675  14.846   2.143  14.170  0.1434  0.0157  0.1907
30782W        W46676   4.431  17.896  12.696  0.3563 -0.0828  0.2306
30783W        W46677   3.011   0.900  15.525  0.3778 -0.5073 -0.2039
30784W        W46678  18.669   2.252   0.502 -0.0208  0.0443  0.3076
30785W        W46679   7.554   8.976   2.181  0.0470 -0.1356  0.2349
30786W        W46680  10.120  17.130  14.047 -0.1491  0.0620  0.4176
30787W        W46681   5.579  17.510  11.874  0.0330  0.1784 -0.2929
30788W        W46682  14.917   9.960  11.624 -0.0361  0.2426  0.1953
30789W        W46683   2.386   6.241  13.198  0.0387  0.0785  0.0686
30790W        W46684  10.352   8.986  15.396 -0.0804 -0.0143 -0.1190
30791W        W46685  18.734   2.388   2.218 -0.2008 -0.3432  0.1528
30792W        W46686   9.356  17.688   0.267 -0.2122  0.1902 -0.0641
30793W        W46687  14.071  13.780  12.589 -0.1301  0.1312  0.1224
30794W        W46688   8.262  14.198  10.674 -0.2242  0.0346  0.4091
30795W        W46689   3.246   6.825   0.050 -0.1394  0.4084 -0.0210
30796W        W46690   2.745   6.532   4.661 -0.0379 -0.4155  0.0995
30797W        W46691   2.049  13.012   2.787 -0.2334  0.3467  0.0141
30798W        W46692   7.638  12.269   1.524  0.1105  0.0375 -0.0187
30799W        W46693   1.647   7.201   1.733 -0.0735  0.2363  0.2473
30800W        W46694   3.280   6.804  15.013  0.0135  0.1615  0.1223
30801W        W46695   3.813  11.156   2.118 -0.2568 -0.1766  0.0596
30802W        W46696   4.311   1.920   0.069 -0.0684  0.0108 -0.2338
30803W        W46697   9.025   9.532  15.456 -0.3026  0.1982  0.1671
30804W        W46698  15.567   5.696  11.439  0.1109  0.2839 -0.0113
30805W        W46699  13.574  18.450   2.025  0.0748  0.1200  0.2969
30806W        W46700   2.062   3.801  13.844  0.1029 -0.0750  0.2805
30807W        W46701  15.565   6.631  11.662  0.1393  0.3277 -0.3356
30808W        W46702   1.006   0.573  11.775 -0.0239 -0.1283  0.0966
30809W        W46703  15.486  11.099   0.263 -0.0264 -0.2639 -0.1164
30810W        W46704  12.290  14.306  13.562  0.1226  0.0646  0.0400
30811W        W46705   5.590   6.861   4.592 -0.0569 -0.0870  0.0732
30812W        W46706   9.978   8.163   1.337  0.2333  0.1678 -0.0542
30813W        W46707  17.353   5.431  14.579  0.4397  0.1571  0.3407
30814W        W46708  11.087  10.238   1.077 -0.2820 -0.3676  0.0739
30815W        W46709  12.046  11.252   5.247 -0.2494 -0.1717  0.1465
30816W        W46710   0.996   4.576  12.179 -0.1024 -0.2483  0.3087
30817W        W46711   8.732   9.722   2.865 -0.0314  0.0889 -0.2040
30818W        W46712   5.862  11.040  12.979 -0.0729 -0.2054 -0.0501
30819W        W46713   3.961   9.066  14.782 -0.1404  0.0202  0.2913
30820W        W46714   9.841   0.373  14.495  0.0459  0.1257  0.4752
30821W        W46715  12.248   4.222  15.175  0.1051 -0.2768  0.3860
30822W        W46716  17.437   0.089  12.191  0.1205  0.1332 -0.1041
30823W        W46717   1.765   5.265  12.263 -0.2590  0.0185 -0.3124
30824W        W46718   8.737   5.547  13.939  0.0962  0.6228  0.2179
30825W        W46719   3.391  13.155  13.138 -0.0962 -0.0320  0.3947
30826W        W46720   0.519   6.725  13.080 -0.1441 -0.2458  0.0196
30827W        W46721   1.960   3.837  12.447 -0.4136  0.1746  0.0773
30828W        W46722  16.295   1.675  13.000 -0.6795  0.0795  0.0007
30829W        W46723  12.117   1.755   1.778  0.1436 -0.0180 -0.3437
30830W        W46724   7.369   7.238   0.657  0.1848  0.1459 -0.1362
30831W        W46725   7.916   3.293  13.913  0.3107  0.0623 -0.1141
30832W        W46726   7.778   3.961  12.294  0.0030 -0.0684  0.0529
30833W        W46727  17.514  16.871   1.514  0.1589  0.0301 -0.2207
30834W        W46728  11.268  15.160  12.438 -0.2133  0.0682 -0.0408
30835W        W46729   4.402   2.240  10.808 -0.2841 -0.1335 -0.0976
30836W        W46730   0.696  10.621  14.184 -0.1198  0.1242 -0.3218
30837W        W46731   4.994  11.331   0.062  0.2577 -0.2967  0.0414
30838W        W46732  16.203  12.555   0.735 -0.0694  0.1549 -0.0148
30839W        W46733   9.925   8.253  12.851  0.0071  0.3459  0.1028
30840W        W46734  12.118   0.271   3.506  0.0858 -0.0865 -0.1487
30841W        W46735   1.794  12.746   0.653  0.2258  0.1097 -0.0308
30842W        W46736   1.463   8.815   2.045  0.5128  0.0826 -0.2040
30843W        W46737   4.061   1.416   0.349  0.2119 -0.1868 -0.2002
30844W        W46738   0.078  15.798   2.853 -0.0357 -0.0443 -0.1947
30845W        W46739  17.745  18.741  14.161  0.4479  0.0040 -0.0271
30846W        W46740  13.939  17.640   5.537  0.2219  0.1598 -0.1273
30847W        W46741  12.965   9.518  15.497  0.0476 -0.0861  0.0128
30848W        W46742   3.840   5.903   1.064  0.0574  0.1634 -0.1613
30849W        W46743  13.852  12.141   5.319  0.0628 -0.1177 -0.0188
30850W        W46744   0.518   5.774  15.409 -0.3227 -0.2301 -0.2386
30851W        W46745   4.009  16.285   1.171  0.2293 -0.1150 -0.2672
30852W        W46746   2.232   3.829  11.478  0.1793 -0.0550 -0.2683
30853W        W46747  16.511   2.122   5.473  0.0576 -0.1579  0.1091
30854W        W46748   2.160   4.909  12.409  0.2741  0.1679  0.1211
30855W        W46749   9.961   2.716   5.186 -0.4332 -0.0199 -0.1049
30856W        W46750  12.715  13.977   5.647  0.1729 -0.0909 -0.0815
30857W        W46751  17.885   8.025   5.468 -0.0195 -0.3284  0.1687
30858W        W46752   3.379  12.942   2.346 -0.0597  0.3720 -0.1113
30859W        W46753   6.875   9.789  15.171  0.0679  0.1154 -0.0669
30860W        W46754  15.549  10.025   4.810  0.0875 -0.1817  0.4100
30861W        W46755  15.514   0.136   5.215  0.1019 -0.2693 -0.2325
30862W        W46756  13.705  12.358   6.183 -0.2822 -0.1508  0.1816
30863W        W46757   8.888   7.053  14.832 -0.3004  0.1385 -0.3378
30864W        W46758   7.778   2.416   2.806 -0.2840 -0.0170 -0.1140
30865W        W46759   6.396  14.611  10.280  0.1576 -0.0944 -0.0556
30866W        W46760   0.171   2.953  14.511 -0.0166 -0.0089 -0.1507
30867W        W46761  15.249   1.908  13.299 -0.2169  0.0753  0.0391
30868W        W46762   7.940   0.934   4.923 -0.2917  0.3180  0.0765
30869W        W46763   3.888  10.283   4.535 -0.0983 -0.3715  0.1538
30870W        W46764  12.342  18.183  14.527  0.0689 -0.1164 -0.0225
30871W        W46765   0.377   7.622   1.719 -0.3274  0.2098 -0.1583
30872W        W46766   3.250   8.025  13.875 -0.0281 -0.1823  0.1268
30873W        W46767   0.179   8.589  15.033 -0.4248  0.3379 -0.2118
30874W        W46768  12.163   9.375   5.676 -0.0294 -0.3814  0.4705
30875W        W46769   1.981   0.414  14.545  0.1742  0.2452  0.1623
30876W        W46770  16.820  14.401  13.070 -0.2007 -0.1153 -0.2297
30877W        W46771  15.731  13.609   5.172 -0.2094  0.2057  0.2687
30878W        W46772  17.991  17.318   1.969 -0.2640 -0.0768 -0.1476
30879W        W46773   3.234   6.167   3.892  0.1648 -0.2853  0.0237
30880W        W46774   7.258   9.416  11.508 -0.0258  0.1912 -0.1046
30881W        W46775  13.096   3.332  11.637 -0.2809  0.2622 -0.0776
30882W        W46776   3.473  12.745  12.759  0.0499 -0.0448 -0.2760
30883W        W46777  15.319   5.838   3.320  0.1721 -0.2124  0.1080
30884W        W46778  15.854  17.896  12.164  0.1748 -0.0923  0.2834
30885W        W46779  15.248  18.209  13.316 -0.1085 -0.0890 -0.1613
30886W        W46780   2.628  17.071   1.599 -0.0658 -0.1303 -0.0365
30887W        W46781   9.222   5.320   4.642  0.4204  0.0178 -0.0808
30888W        W46782  17.836  10.189   1.955 -0.0063  0.1114  0.0145
30889W        W46783   9.524   3.948   3.029 -0.6210  0.0076  0.0118
30890W        W46784   3.943  11.774  10.882  0.0614 -0.2650  0.1028
30891W        W46785   2.126  11.421   3.848  0.0523 -0.0422 -0.0319
30892W        W46786   3.767   4.971  10.818 -0.0166 -0.2100 -0.1161
30893W        W46787  17.807  11.356   1.736 -0.2450 -0.2302  0.2237
30894W        W46788   2.020  15.323  11.113  0.0812  0.3132 -0.0703
30895W        W46789  15.759  16.126  14.975 -0.0417 -0.1735 -0.2944
30896W        W46790   5.182   6.958  12.379 -0.3164 -0.0727  0.0672
30897W        W46791   5.293   7.196  11.043 -0.1705 -0.0842 -0.1686
30898W        W46792  15.905  16.587   4.494  0.0846  0.4113 -0.0346
30899W        W46793   9.656   4.171   3.487  0.3287  0.0348 -0.3644
30900W        W46794  14.809  10.010   4.246 -0.3124  0.2073  0.0541
30901W        W46795   0.802   1.658  13.389 -0.0151  0.1236 -0.1816
30902W        W46796   2.430   5.894   4.592  0.1139 -0.0895  0.0259
30903W        W46797  17.131  15.704   0.646 -0.1297 -0.0600 -0.2679
30904W        W46798  14.256  17.167   4.855  0.3953 -0.2302  0.0101
30905W        W46799   2.257  16.578  14.928  0.0030 -0.1111 -0.2427
30906W        W46800  15.830   8.944  12.188  0.0238  0.1962 -0.1193
30907W        W46801   7.762  10.412   9.855  0.1893 -0.0460  0.1115
30908W        W46802  12.847  16.953   2.355  0.2692 -0.1886 -0.1974
30909W        W46803   5.138  13.777  13.703  0.2085 -0.0596  0.2855
30910W        W46804   9.332   6.586   1.019  0.2210 -0.1634 -0.1513
30911W        W46805  13.629   9.928   1.604 -0.1347 -0.0870  0.1717
30912W        W46806  11.221  17.767   0.059 -0.0686 -0.1179  0.1676
30913W        W46807  11.649  18.390   1.413 -0.2133 -0.2744  0.1875
30914W        W46808   3.853  16.119   3.848 -0.2626  0.1787 -0.0135
30915W        W46809   2.631   7.273  10.244  0.0026 -0.0817  0.2090
30916W        W46810   2.428   7.928  12.163  0.0820 -0.3519  0.0314
30917W        W46811  13.882  14.292   3.164  0.0172 -0.1656  0.0812
30918W        W46812   0.929   6.375  12.318  0.4037 -0.0570  0.1399
30919W        W46813  18.758  15.217   3.102 -0.2136 -0.0322  0.0793
30920W        W46814  16.547  12.281  13.873  0.0303  0.0585 -0.1260
30921W        W46815  10.078   7.341   2.793  0.0093  0.0220 -0.0772
30922W        W46816  18.610   4.065  13.130  0.1514  0.2555  0.3058
30923W        W46817   0.413  11.967   1.459 -0.2921 -0.1556  0.1006
30924W        W46818   9.584  17.357  11.518 -0.0156 -0.0230 -0.0728
30925W        W46819  13.346   1.469   4.636  0.1348  0.1751  0.0289
30926W        W46820   4.539  13.761  11.945  0.0911  0.0976  0.1880
30927W        W46821  16.819  13.686   1.623 -0.1491  0.0649  0.0900
30928W        W46822   8.411   3.511   5.144  0.0762 -0.0337 -0.0714
30929W        W46823  17.023   2.013   0.226 -0.0867 -0.0042 -0.1121
30930W        W46824   5.730  16.979   1.732 -0.2070 -0.2682 -0.1635
30931W        W46825   0.458  18.748   5.004 -0.0683  0.4516  0.0021
30932W        W46826  11.917   1.585  11.396 -0.3131  0.3258 -0.1820
30933W        W46827  15.513  13.919  10.763  0.2011  0.1038 -0.0003
30934W        W46828  17.342   7.631  12.531  0.3129  0.0085 -0.0364
30935W        W46829  13.182  17.666  14.401  0.2884 -0.2546  0.0703
30936W        W46830   6.733   4.805  13.966  0.2626 -0.3214 -0.0594
30937W        W46831  17.779  17.912   2.840  0.2810 -0.0462 -0.4229
30938W        W46832   4.933  11.522   5.054  0.0072  0.1000  0.2256
30939W        W46833   4.890  14.595  11.005 -0.1644 -0.2910 -0.1379
30940W        W46834  16.020   6.725   4.225  0.0262  0.0696  0.4491
30941W        W46835  17.522  12.392  11.898  0.2188  0.0550 -0.3245
30942W        W46836  11.148  12.822   5.127 -0.1109 -0.1109 -0.3556
30943W        W46837  14.293   7.418   2.536 -0.1446  0.0349  0.3032
30944W        W46838   8.403  12.895   1.427  0.0216 -0.0986 -0.2534
30945W        W46839  17.751  11.014  15.247 -0.3041 -0.4651  0.3321
30946W        W46840  18.552  13.967   1.948 -0.4104 -0.0917  0.0978
30947W        W46841  18.293   9.744  14.079 -0.0200  0.1762 -0.1420
30948W        W46842  17.233  15.166  13.798 -0.0343 -0.1524 -0.2173
30949W        W46843   3.578  17.971   2.859  0.1891  0.0797 -0.0591
30950W        W46844  15.091  12.072   1.346 -0.0205 -0.2482 -0.1750
30951W        W46845   8.463   9.515  13.419  0.1119 -0.3624  0.0082
30952W        W46846   9.800   9.893  14.203  0.1389  0.0529 -0.1999
30953W        W46847   9.117   3.688   0.386 -0.2615  0.2960 -0.2223
30954W        W46848   5.726   3.010  12.628 -0.2802 -0.0771  0.4795
30955W        W46849   9.059   5.849   1.277  0.1527 -0.0169 -0.0726
30956W        W46850  14.093   0.408  12.014  0.0459 -0.0271 -0.1306
30957W        W46851  12.379   7.415  12.514 -0.1860 -0.3161 -0.1507
30958W        W46852   5.186   9.033   4.685 -0.0757 -0.0016 -0.2649
30959W        W46853   1.478   5.105   4.752 -0.4869  0.1771 -0.0662
30960W        W46854   0.072  10.680  10.576 -0.1267  0.2578  0.1354
30961W        W46855   1.276  14.416   4.326 -0.0489 -0.0928  0.1311
30962W        W46856  12.822  12.529   3.782 -0.0866 -0.2351 -0.1668
30963W        W46857   7.583   7.586  13.457 -0.1207  0.2345 -0.3046
30964W        W46858   1.662   0.194   2.844  0.0397 -0.0222 -0.3727
30965W        W46859  13.954   4.299  13.482 -0.1111 -0.1118 -0.2017
30966W        W46860  18.307   7.789   2.981 -0.1870  0.0470  0.1982
30967W        W46861  13.162  14.575   2.291 -0.1052 -0.3760 -0.2003
30968W        W46862  10.168   8.769   2.020  0.2282 -0.1762 -0.2036
30969W        W46863  11.937   5.994  14.960  0.0630  0.0851  0.1122
30970W        W46864  10.436   1.814   4.252  0.2038  0.1458 -0.1564
30971W        W46865  16.294  16.934  13.221 -0.0966 -0.0066 -0.0631
30972W        W46866  14.113   1.340  15.613  0.0202  0.0645 -0.1354
30973W        W46867  14.942   4.675  13.560 -0.0178  0.1013 -0.0842
30974W        W46868  12.668   7.565   0.152 -0.1711  0.1850  0.0430
30975W        W46869   0.542   5.493  12.367  0.1667 -0.0543  0.2614
30976W        W46870   6.535  15.665  13.014  0.0001  0.3115 -0.5841
30977W        W46871   6.568   2.082   3.497  0.1261  0.0717  0.3995
30978W        W46872  14.900  12.843   2.925 -0.0044  0.0002  0.3000
30979W        W46873   0.970  10.285  11.363  0.2585 -0.1002  0.1277
30980W        W46874   4.804  10.560   3.332  0.1237  0.0414 -0.1029
30981W        W46875  17.954  17.309   5.004  0.0665 -0.0970  0.1505
30982W        W46876   0.667  16.734  13.861 -0.0642  0.3550 -0.3697
30983W        W46877  14.332  15.393  14.348  0.0834 -0.1108  0.0696
30984W        W46878  15.582   2.207  13.482 -0.0362 -0.1469 -0.2109
30985W        W46879   2.901   6.660  14.198  0.1191 -0.0347  0.2828
30986W        W46880  17.917   7.608   1.478 -0.0215  0.1851  0.0581
30987W        W46881   8.945   7.445   2.407  0.1337 -0.0005  0.0506
30988W        W46882  18.550   6.876   5.242 -0.1683 -0.1222 -0.0542
30989W        W46883   7.545  18.158   3.680 -0.0544  0.2168  0.1710
30990W        W46884  12.611   1.321   4.556  0.2991  0.1452  0.2190
30991W        W46885  16.893   0.652   3.733 -0.0850 -0.1085  0.0041
30992W        W46886   1.078  14.516   1.169 -0.2089  0.4369  0.1347
30993W        W46887   8.131  12.192   4.555  0.0773  0.1151 -0.0528
30994W        W46888   8.446   6.509  13.711  0.1799  0.2058 -0.3280
30995W        W46889  16.347   4.957  13.865  0.0655 -0.1578 -0.0873
30996W        W46890  11.262  18.018   0.641  0.4682 -0.2660 -0.2882
30997W        W46891  11.208   7.436   1.166 -0.1323 -0.2540  0.1122
30998W        W46892  17.707   4.626   4.828 -0.1942  0.3108 -0.2407
30999W        W46893  13.784  14.301   1.736 -0.0117 -0.1162 -0.0773
31000W        W46894   0.657   4.996   1.844 -0.2379  0.0304  0.3277
31001W        W46895   2.425   6.995  15.583  0.1047  0.4705 -0.2075
31002W        W46896   5.021   4.161  14.960  0.1017  0.1587 -0.1050
31003W        W46897   6.764   4.925  12.315 -0.0921  0.2220 -0.0168
31004W        W46898   3.615   1.893  11.659  0.1860 -0.0082  0.0563
31005W        W46899   4.272  11.464  12.714  0.0339 -0.2840 -0.1981
31006W        W46900  13.199   8.824   1.890  0.0116 -0.1371  0.0488
31007W        W46901  12.436  18.522  10.737  0.2550  0.2666  0.0782
31008W        W46902   8.308   5.861  10.942 -0.1885 -0.1240  0.0276
31009W        W46903  15.051   9.596  14.369 -0.1865 -0.1679 -0.2249
31010W        W46904   2.168  18.756   0.257  0.2515 -0.1886 -0.3055
31011W        W46905  13.462  12.124  14.865 -0.0299 -0.2988 -0.1396
31012W        W46906   9.837  10.507   4.345  0.1448 -0.2596  0.1052
31013W        W46907   7.256   7.220   2.551  0.3238 -0.1892  0.2985
31014W        W46908   4.339   3.846  12.967 -0.0906 -0.2770  0.1148
31015W        W46909   3.336   0.381  14.145 -0.0293  0.1728 -0.1800
31016W        W46910  14.991   3.950  10.976  0.5779  0.1401  0.3311
31017W        W46911  11.747   1.651  12.344 -0.0424 -0.0028 -0.0500
31018W        W46912   2.107   9.732  15.186  0.0808 -0.0872  0.1259
31019W        W46913   0.155  18.491  15.334  0.0018 -0.1979 -0.1262
31020W        W46914   3.750   0.967   0.628 -0.2228  0.1894 -0.1959
31021W        W46915   7.058  15.657   2.218  0.0129 -0.0090  0.0362
31022W        W46916   0.126  16.962   4.066  0.0380  0.2046 -0.2144
31023W        W46917  14.285   3.500   9.941  0.1470 -0.2674 -0.0055
31024W        W46918  17.578  14.840   2.429 -0.1339 -0.1311  0.3343
31025W        W46919  10.357  17.146   0.055  0.1073  0.1156 -0.2352
31026W        W46920   8.534   2.313  12.232  0.0832  0.1421 -0.1289
31027W        W46921  18.524  11.064   0.203  0.2392 -0.3364 -0.0133
31028W        W46922  12.676   1.394  12.413 -0.1211 -0.0314 -0.2070
31029W        W46923  18.216   5.226   4.218  0.4332  0.2211 -0.0675
31030W        W46924   0.319  13.140   0.659  0.1153 -0.0865  0.3407
31031W        W46925  16.232  15.400  15.233 -0.1423 -0.0954  0.0613
31032W        W46926  12.350  15.399  12.115 -0.0323 -0.1301 -0.0835
31033W        W46927   1.854   6.956  10.291 -0.1093  0.1680 -0.0587
31034W        W46928   8.809   2.923  10.395 -0.1537  0.1008 -0.4706
31035W        W46929   1.929   1.369  11.208  0.2247 -0.1960 -0.2309
31036W        W46930   9.738  16.953   3.619 -0.0938 -0.0225  0.0089
31037W        W46931   4.720  12.860   1.436  0.0409  0.2410 -0.2758
31038W        W46932  18.740   1.009  11.438 -0.2130  0.0543 -0.4388
31039W        W46933  15.256  13.187  11.568 -0.2260 -0.0213  0.2838
31040W        W46934   0.783  10.095   0.640 -0.2178 -0.0617  0.1086
31041W        W46935  12.946  14.131   0.477  0.0569  0.0437  0.2458
31042W        W46936   0.441  14.007   5.303 -0.0423  0.2057 -0.1038
31043W        W46937  16.373  10.086  13.186 -0.1797 -0.4744  0.2044
31044W        W46938  17.812   9.424  13.117  0.2031  0.0378 -0.1616
31045W        W46939  16.494  15.998   6.156  0.0343 -0.2617 -0.3021
31046W        W46940   3.083   7.277   2.018 -0.0820 -0.1123  0.0708
31047W        W46941  15.193   3.131   2.410  0.1796  0.0371 -0.0817
31048W        W46942   6.219  18.121   2.451  0.1818  0.1108  0.1929
31049W        W46943   8.026  11.934   2.463 -0.0851  0.2091  0.1828
31050W        W46944  13.705   0.550  11.758  0.3476 -0.0928 -0.2131
31051W        W46945  17.673   3.685   2.203 -0.0124 -0.0337  0.1600
31052W        W46946   6.151  13.839   5.332 -0.0378  0.2091 -0.0590
31053W        W46947  18.444   6.311  13.450  0.0108 -0.0148  0.6489
31054W        W46948  13.949   3.139   0.240  0.2781  0.0287  0.1093
31055W        W46949   9.105  10.402  12.446 -0.3675 -0.0274 -0.1544
31056W        W46950   9.665  16.826   2.704 -0.0743 -0.0706 -0.2600
31057W        W46951   3.358   0.565  15.264 -0.3758  0.2256 -0.1023
31058W        W46952   7.387  17.066   4.618  0.0772 -0.0804 -0.2557
31059W        W46953   1.566   7.772  12.229  0.0227 -0.3056 -0.0078
31060W        W46954  13.900  15.682   0.852  0.2653 -0.0473 -0.0396
31061W        W46955   5.645   3.870  10.937 -0.1548 -0.2072  0.2294
31062W        W46956   4.467   8.189  12.717  0.0969 -0.2406 -0.2919
31063W        W46957  10.020   5.894   5.009 -0.1218 -0.0284 -0.0404
31064W        W46958   4.026   5.667  14.676  0.1482  0.3372  0.3475
31065W        W46959   4.078   1.480  11.273 -0.0128  0.0580 -0.2119
31066W        W46960   3.212   0.770  10.789 -0.2327  0.3029  0.1904
31067W        W46961  14.562  10.691   4.564 -0.1734  0.1329 -0.0704
31068W        W46962   0.673   0.701   5.227  0.0367 -0.0083 -0.2474
31069W        W46963   1.985  17.864   3.422  0.1647 -0.0689 -0.0068
31070W        W46964  17.571  13.076  11.885 -0.0814  0.0441 -0.1934
31071W        W46965  12.780   6.533  15.053  0.2013 -0.1572  0.0703
31072W        W46966   3.320  17.969   1.467 -0.0002 -0.4218 -0.2115
31073W        W46967   5.481   5.471   0.888  0.1225  0.1120  0.0371
31074W        W46968  15.583  13.332   1.617  0.0872 -0.2421  0.0834
31075W        W46969  13.929  18.732  13.199 -0.2053  0.0622 -0.0795
31076W        W46970  16.665  12.304  13.305  0.0572  0.0546 -0.0955
31077W        W46971  15.903  11.603   1.027 -0.1012 -0.2517  0.1157
31078W        W46972  15.097   0.649  11.305 -0.3034  0.1665  0.0290
31079W        W46973   6.012  18.153   1.280 -0.0226 -0.0351 -0.0503
31080W        W46974   2.305   4.332  13.942  0.0135  0.1825 -0.2479
31081W        W46975  12.275  12.433  15.252  0.0099  0.3646 -0.2018
31082W        W46976  16.100   8.127  15.381 -0.0400 -0.0248 -0.0228
31083W        W46977   2.348   4.656   3.635  0.0719 -0.1087 -0.4850
31084W        W46978   1.861   5.670   3.309  0.3938  0.1346 -0.0645
31085W        W46979   6.901  11.248  11.877 -0.1578  0.0757 -0.1730
31086W        W46980   8.519   0.526  13.983  0.0900  0.2273  0.1108
31087W        W46981   4.688   3.503  13.228  0.1227  0.0742  0.0903
31088W        W46982   9.486   5.684   4.252 -0.2561 -0.1229  0.0271
31089W        W46983   4.413   6.111  12.878  0.2869  0.2766 -0.3221
31090W        W46984   6.840  17.885   0.020  0.0317 -0.0017  0.0202
31091W        W46985   3.355  14.493   4.437  0.1480  0.0759 -0.2595
31092W        W46986  15.402  12.071   0.172  0.3275 -0.1033  0.0365
31093W        W46987   7.631   9.812   4.463 -0.0587  0.0690 -0.1841
31094W        W46988   8.690   0.101   4.742 -0.3998 -0.1583 -0.1836
31095W        W46989  11.991  14.877  15.361 -0.1166  0.2877  0.0905
31096W        W46990   8.308  14.187  13.110  0.1794 -0.1667  0.0498
31097W        W46991  12.768   0.310  12.659 -0.1931 -0.0075  0.2997
31098W        W46992  13.871  11.504  11.699  0.0328  0.1520 -0.1915
31099W        W46993   4.713  15.716  13.691 -0.0299  0.1001 -0.0252
31100W        W46994  18.277   4.179  10.865 -0.0327  0.4636  0.1161
31101W        W46995  18.102   3.034  13.713  0.2006  0.2048  0.0598
31102W        W46996  16.893  15.290   0.987  0.1948  0.0182 -0.1903
31103W        W46997  12.616  13.711   2.365 -0.3246 -0.2223  0.1549
31104W        W46998   3.177  13.022   0.438 -0.1183 -0.0625 -0.0836
31105W        W46999   5.349  18.547  11.690  0.2896 -0.0494  0.2697
31106W        W47000   4.376  16.289  15.094 -0.2671 -0.3370 -0.0260
31107W        W47001   3.666   1.641  13.336 -0.1008  0.1262 -0.0284
31108W        W47002   2.496  10.642   0.558 -0.0761 -0.1798 -0.0686
31109W        W47003  17.186   7.981  14.413 -0.0922 -0.1087 -0.0007
31110W        W47004  15.455   9.046  12.546 -0.0550 -0.0177  0.0074
31111W        W47005   1.492   5.097  10.977 -0.1470  0.1705  0.0083
31112W        W47006   4.779   3.349   0.913  0.0032  0.1601 -0.1388
31113W        W47007  12.064  18.506   0.845 -0.2517 -0.0290  0.1199
31114W        W47008  10.547   3.157   4.680 -0.1534  0.2492 -0.3478
31115W        W47009  11.222   2.418  13.804 -0.1827  0.0350  0.0122
31116W        W47010   0.510  10.282   3.956  0.0570  0.0248 -0.0757
31117W        W47011  13.888  12.912  12.408  0.2282  0.4133 -0.1286
31118W        W47012  12.665  16.075  13.258 -0.1069  0.0673 -0.0579
31119W        W47013   9.318  16.411   3.150  0.2629  0.0815  0.0420
31120W        W47014  14.029   6.190   5.045  0.0198  0.1168 -0.1261
31121W        W47015   6.507  16.729   1.269 -0.1140 -0.0510 -0.0766
31122W        W47016   1.097  11.558  13.446  0.0664  0.1745  0.0450
31123W        W47017   0.708   1.686  10.736 -0.0061  0.3106 -0.0272
31124W        W47018   1.986   2.844   4.126 -0.1213  0.0282  0.1126
31125W        W47019   8.272  14.798  12.927 -0.2052  0.0810  0.1146
31126W        W47020  12.092   7.377  12.919  0.1228  0.1215  0.0070
31127W        W47021   9.080  12.761   5.898  0.0570  0.0810 -0.0206
31128W        W47022  16.268  12.522   1.245 -0.0650 -0.2270 -0.1609
31129W        W47023   0.328  17.928   5.792  0.0872  0.0794 -0.2627
31130W        W47024   8.458   8.969  11.028  0.0993 -0.3021  0.3949
31131W        W47025   9.872   7.781   0.933 -0.1256  0.1421  0.2369
31132W        W47026  13.138  13.443  15.133 -0.2038 -0.2113 -0.0023
31133W        W47027  12.327   5.679  14.780  0.0137 -0.1297 -0.0887
31134W        W47028   7.241  11.453   2.392 -0.0863 -0.2706  0.1503
31135W        W47029   0.253  18.479  14.409  0.0210  0.2145  0.1179
31136W        W47030   3.834  12.059  11.322  0.1475  0.4805 -0.1559
31137W        W47031  12.792  16.260   3.052 -0.1411  0.3426  0.1625
31138W        W47032  13.230   7.698  12.326 -0.1192 -0.0625 -0.1757
31139W        W47033  13.246   0.811   1.696 -0.2282  0.0715  0.1088
31140W        W47034  16.610   6.082   2.930 -0.2486  0.2618 -0.1570
31141W        W47035   5.350   7.722  11.028 -0.1550 -0.0110  0.0783
31142W        W47036  10.270   2.093   2.940 -0.0352 -0.2217  0.2333
31143W        W47037   2.032   4.758   3.987  0.1937 -0.0804 -0.0163
31144W        W47038   1.024   4.983   1.483 -0.1019  0.0617 -0.0600
31145W        W47039   0.717   1.004  12.677  0.2443  0.2732 -0.3553
31146W        W47040   2.818   2.279   9.967 -0.1621 -0.2479 -0.1096
31147W        W47041   8.390   6.516   2.433 -0.0809  0.2498  0.0732
31148W        W47042   9.221   8.690  11.558  0.1397  0.0840  0.1530
31149W        W47043  14.593   3.484   1.082  0.1389  0.3256  0.0215
31150W        W47044  17.170   7.967   3.366  0.1375  0.2512 -0.2001
31151W        W47045   3.659   5.053   1.991  0.2913  0.0033 -0.1472
31152W        W47046   4.710   2.324   2.559  0.0323 -0.0773  0.1586
31153W        W47047  15.189  14.275   3.932  0.0344  0.0707  0.3529
31154W        W47048  13.380   1.678   2.937  0.1767 -0.2335  0.0267
31155W        W47049   0.227  10.891   4.706 -0.1712  0.1986 -0.2464
31156W        W47050   6.332  10.037  13.132 -0.0854 -0.2758  0.1939
31157W        W47051  16.804   9.264  13.114  0.2580 -0.1448 -0.0241
31158W        W47052   2.977   7.801   4.572  0.2283 -0.1859  0.0894
31159W        W47053  12.771  18.524  11.212 -0.2797  0.3235  0.1392
31160W        W47054   9.326  15.073   1.892 -0.0953  0.0562 -0.0051
31161W        W47055  15.517   6.790   3.461  0.1505  0.1961  0.0772
31162W        W47056   5.706  12.531   3.679  0.1368  0.1334 -0.3157
31163W        W47057  14.571   3.640  14.603 -0.0870 -0.0279 -0.1540
31164W        W47058   0.209   3.637   4.587  0.2352  0.0115 -0.1266
31165W        W47059  12.585  10.805   4.566  0.1365  0.2101 -0.0848
31166W        W47060  16.260   4.619  12.925  0.0567 -0.1171 -0.0251
31167W        W47061   5.624   0.229  12.502 -0.1360  0.3847 -0.0657
31168W        W47062   1.706  15.643   2.438 -0.1476 -0.0362  0.0715
31169W        W47063  11.816  15.889   4.935  0.1355  0.2287  0.0819
31170W        W47064   2.903   4.665   4.474  0.2207  0.2523  0.0409
31171W        W47065  10.210   2.946   0.320  0.0111 -0.1050  0.1407
31172W        W47066  16.083   5.176   1.510 -0.0964 -0.0761  0.2178
31173W        W47067   4.159  11.241  11.802 -0.1129 -0.0415  0.1477
31174W        W47068  11.227   2.798   5.258  0.0311  0.1637  0.1105
31175W        W47069   4.912  17.235   1.190  0.2395 -0.1593 -0.1550
31176W        W47070  11.426  12.597  13.745  0.0435  0.1361 -0.2152
31177W        W47071   8.242   4.006  13.892  0.1304 -0.1402 -0.1177
31178W        W47072   1.473  13.419   2.742 -0.0036 -0.0996  0.4531
31179W        W47073   7.656  11.604   0.090 -0.1102  0.1981  0.4691
31180W        W47074  14.128   3.935  15.475  0.0378 -0.0894 -0.0343
31181W        W47075   7.576  17.510  14.990  0.1213 -0.1393 -0.2426
31182W        W47076  11.143  16.844   4.913 -0.3571 -0.1720 -0.0759
31183W        W47077   0.893   3.177   2.926 -0.0329 -0.0324 -0.0548
31184W        W47078   0.905  16.900   1.108 -0.3708 -0.0258  0.0335
31185W        W47079  17.734  17.411  13.694  0.0249  0.3561 -0.2817
31186W        W47080   7.658  18.507   2.216  0.0974 -0.1223 -0.0733
31187W        W47081  11.649  18.264   5.004 -0.1264  0.0576  0.6260
31188W        W47082   9.465  15.595   0.050  0.1647  0.0970 -0.2120
31189W        W47083   4.034   0.457   2.761  0.0644 -0.0472  0.0223
31190W        W47084  11.144  14.432   0.090 -0.0493 -0.2113 -0.1639
31191W        W47085  13.340  13.339   5.179 -0.0176 -0.1271  0.4386
31192W        W47086   6.574   3.023  12.678  0.2195 -0.2270 -0.1295
31193W        W47087  14.396   8.614  13.735 -0.0452  0.2788  0.1056
31194W        W47088   2.788   8.693  12.315 -0.0312  0.0107  0.0430
31195W        W47089   9.769   3.716   2.644  0.0235  0.0788 -0.0563
31196W        W47090   9.772   0.025  14.824 -0.0566  0.4169  0.0813
31197W        W47091   7.214   8.445  13.277 -0.0312  0.1211 -0.1857
31198W        W47092  10.561   7.136   0.420 -0.2058  0.0627 -0.0833
31199W        W47093   4.029  16.783   1.008 -0.0846 -0.1554 -0.4633
31200W        W47094  15.139  13.779  15.258  0.1522 -0.0021 -0.1115
31201W        W47095  10.691   8.872   1.698  0.1723  0.2544 -0.0722
31202W        W47096  15.456   4.715  13.527  0.0646  0.3911  0.1518
31203W        W47097   4.821  15.058   4.184 -0.0641  0.1406 -0.1573
31204W        W47098  17.293   1.654   5.420 -0.1298  0.0575  0.1280
31205W        W47099   1.962  14.654  13.726 -0.0791  0.0132 -0.1402
31206W        W47100  12.742  12.049   5.829  0.1389 -0.1368  0.1904
31207W        W47101   2.074   7.008  11.517  0.1746  0.0365 -0.3042
31208W        W47102  18.303   9.042   3.739 -0.1696  0.1807  0.3482
31209W        W47103   0.847  11.331  13.871  0.2432  0.1116  0.0444
31210W        W47104  14.586  11.348   2.221  0.0521  0.3236 -0.0054
31211W        W47105  18.013  13.495  11.713 -0.0702 -0.0891  0.3715
31212W        W47106   0.991   1.535  12.495 -0.0071  0.0463 -0.0863
31213W        W47107   5.604   0.063   4.293 -0.3254  0.1315  0.3477
31214W        W47108   7.261  10.625   0.030  0.0227  0.1524  0.3467
31215W        W47109  11.537   5.671   1.382  0.0369 -0.1235  0.0744
31216W        W47110  10.853   2.809  13.696 -0.0062 -0.0578 -0.0515
31217W        W47111   5.289   4.209  15.500  0.1101 -0.2809 -0.0123
31218W        W47112   4.907   3.139  15.254 -0.0372  0.0774 -0.2599
31219W        W47113   8.715   6.672   2.080  0.2932  0.1282  0.3300
31220W        W47114   2.617   3.727  11.891 -0.0156 -0.2683  0.0699
31221W        W47115   6.235   2.128  14.475  0.2826 -0.2471  0.0811
31222W        W47116   3.348  11.186  12.513  0.2293  0.4763  0.3290
31223W        W47117  13.770  13.874   2.042 -0.2813  0.0125  0.1367
31224W        W47118  17.086   7.132   1.695 -0.1247  0.1762 -0.1560
31225W        W47119  17.096  10.039   2.812 -0.1801 -0.5543 -0.3063
31226W        W47120  16.416   9.945  10.272  0.2120  0.2261  0.2573
31227W        W47121   9.708   8.638   2.066 -0.0844 -0.0314  0.2818
31228W        W47122   2.991   8.242  15.272 -0.1983  0.2653 -0.0020
31229W        W47123   6.488  16.645  10.737  0.1101 -0.2041  0.0155
31230W        W47124   3.753  15.267   4.035 -0.0149  0.1784  0.2515
31231W        W47125   7.584  10.924  14.221 -0.5279  0.0939 -0.0017
31232W        W47126  15.998  12.157   0.974  0.0112 -0.2013 -0.0814
31233W        W47127   2.683  11.419  11.037  0.2108  0.2833 -0.2103
31234W        W47128   6.556  13.145  15.476  0.0742 -0.0651 -0.1678
31235W        W47129   7.676  15.145   5.470 -0.0079  0.2086 -0.1676
31236W        W47130  14.107  12.940   3.498 -0.1468  0.0110  0.0116
31237W        W47131  15.062   7.883   4.643  0.2543 -0.4069 -0.1021
31238W        W47132   1.042   7.527  11.221 -0.1949 -0.2045  0.0420
31239W        W47133  11.091  11.554   0.622  0.1025  0.4240 -0.1310
31240W        W47134   2.889   5.735   4.430 -0.0379  0.0103  0.2362
31241W        W47135  11.348   1.160   2.295 -0.0621 -0.1411 -0.1207
31242W        W47136   9.135   8.502  15.021 -0.0429 -0.1796 -0.1556
31243W        W47137  16.776   7.175   4.470  0.2382  0.1404  0.5049
31244W        W47138  13.308   3.395  12.133  0.3172 -0.3999 -0.2077
31245W        W47139  12.559  10.860   0.646 -0.1652 -0.1616 -0.1768
31246W        W47140  15.298  13.705   2.979 -0.1662  0.0477  0.1585
31247W        W47141   0.072   0.385   3.444 -0.0490 -0.0856  0.0476
31248W        W47142  10.790   1.426   5.729 -0.0699 -0.0514 -0.2365
31249W        W47143  16.264   5.330  12.157  0.1578 -0.3531 -0.0322
31250W        W47144   1.220  13.993   1.258 -0.0196 -0.0117  0.2259
31251W        W47145   9.168  15.546   1.953  0.2577  0.2300  0.0827
31252W        W47146   6.209  10.467  14.555 -0.4138  0.0137  0.0641
31253W        W47147  14.843  15.928   2.183  0.0846 -0.1374  0.1904
31254W        W47148  11.350   5.639   0.745 -0.0970  0.1319  0.1018
31255W        W47149  15.791   9.117   4.809  0.1106  0.1956  0.2570
31256W        W47150   7.993  14.638  10.860 -0.2309 -0.1018  0.2240
31257W        W47151  11.698   2.310  11.198 -0.0036 -0.1418  0.4742
31258W        W47152  12.852   8.805  11.210 -0.0806 -0.0477 -0.2258
31259W        W47153   7.087   0.804  11.214  0.0296  0.1849  0.2094
31260W        W47154  11.669   7.137  10.719  0.2523  0.2832  0.1278
31261W        W47155  14.757   8.199   4.152  0.1856  0.2374  0.1148
31262W        W47156  12.488   4.667  11.742 -0.0191  0.0927 -0.4429
31263W        W47157   4.331  12.637   3.743  0.2874 -0.0533  0.1508
31264W        W47158   3.804  11.413  14.355 -0.1360  0.0952 -0.1655
31265W        W47159   9.102  15.094  11.471  0.1108 -0.2887 -0.1505
31266W        W47160   2.145  17.495   2.192  0.0764 -0.3199 -0.0122
31267W        W47161  16.186   2.028  11.864  0.4378  0.1053 -0.1385
31268W        W47162  17.491  16.496   1.867  0.1575 -0.1476  0.1099
31269W        W47163  11.983  10.280   5.472 -0.0383 -0.0575 -0.0958
31270W        W47164  12.572  15.171  11.747  0.1096  0.0395 -0.0148
31271W        W47165  16.378  13.155   3.782  0.0147 -0.0653 -0.3024
31272W        W47166  18.508   4.955   1.636 -0.0209 -0.2282 -0.1026
31273W        W47167   8.176   4.096  12.027 -0.1977  0.1018 -0.2876
31274W        W47168  10.962   8.130   2.185 -0.2550 -0.2374 -0.0481
31275W        W47169   4.719   8.818   1.546  0.0788 -0.3218  0.3693
31276W        W47170  16.881   1.737  11.533  0.0419  0.1215 -0.2604
31277W        W47171   6.061   9.616   3.131 -0.1262 -0.2199  0.1390
31278W        W47172  11.900   5.163   0.040 -0.1958 -0.2407 -0.0563
31279W        W47173  16.590  16.620  11.644 -0.3144 -0.3030  0.1393
31280W        W47174  16.492   1.680   9.744  0.1856  0.0920  0.1582
31281W        W47175   8.459  10.632   2.599  0.1227 -0.3083 -0.0217
31282W        W47176  15.784  13.650   2.248  0.2445 -0.0306  0.1025
31283W        W47177   0.190   2.433   3.911  0.0706  0.1239  0.1226
31284W        W47178  15.513  14.785   4.226  0.0876  0.0169 -0.0098
31285W        W47179   8.283   8.148  15.297 -0.1138 -0.0347  0.2751
31286W        W47180   0.130   8.505  15.562  0.3354  0.0948 -0.1415
31287W        W47181   5.112  17.167  14.006 -0.1669 -0.2864 -0.0163
31288W        W47182   5.618   1.151  11.142 -0.0459 -0.0024 -0.1076
31289W        W47183   7.077   8.393   5.288  0.0706  0.0055 -0.0247
31290W        W47184   7.505  16.149  13.793 -0.0057  0.0398 -0.0286
31291W        W47185  16.504   0.829  11.462  0.3059  0.1278  0.1392
31292W        W47186  17.829   3.620  12.660 -0.1911 -0.1343  0.1682
31293W        W47187   0.877   6.947  14.812 -0.0701 -0.0751  0.1198
31294W        W47188  11.625   6.844   4.820 -0.2149  0.0762  0.3186
31295W        W47189  14.717   3.176   1.698  0.2204  0.1662 -0.2097
31296W        W47190   0.811  18.018  12.470 -0.0363 -0.1897  0.5291
31297W        W47191  12.981  16.106  12.773  0.2728  0.0455 -0.0031
31298W        W47192   3.234   4.718   0.654  0.0014 -0.4657  0.0881
31299W        W47193  18.164   9.512  14.994 -0.1722 -0.0041 -0.1813
31300W        W47194  14.430  10.067  11.705  0.1617 -0.0361  0.2197
31301W        W47195  13.557   6.488   5.049  0.1717 -0.0627  0.2650
31302W        W47196   6.810   8.944   5.512 -0.2261 -0.2402 -0.0991
31303W        W47197  17.916   5.624  15.181  0.1267  0.4965  0.0999
31304W        W47198  14.641  11.698  14.912 -0.0191  0.1740  0.3798
31305W        W47199   4.938   7.022   2.160 -0.2697  0.2617  0.2836
31306W        W47200   2.563  15.513  10.847  0.3045  0.1806  0.3725
31307W        W47201  12.769   1.010  13.143  0.0285 -0.2122  0.0308
31308W        W47202  14.956   8.036   2.499 -0.2330  0.0603  0.1276
31309W        W47203  10.798   4.412   3.937 -0.3286 -0.0237  0.0628
31310W        W47204   1.410   6.745  12.737 -0.2066 -0.0038  0.0442
31311W        W47205  13.712   1.198  13.291 -0.0787 -0.0811  0.0012
31312W        W47206   5.669   5.750  12.499  0.2816  0.0729 -0.2656
31313W        W47207   5.126   1.326   1.896 -0.2221 -0.1934  0.4077
31314W        W47208  16.927  16.968   1.304  0.0161 -0.1702  0.1426
31315W        W47209  16.039  16.630  15.567 -0.2406 -0.0025  0.0565
31316W        W47210   4.376   5.159  11.947  0.1483 -0.0901 -0.0348
31317W        W47211   3.341  15.327  10.884  0.2615 -0.1291  0.0499
31318W        W47212  18.165  17.200  13.810 -0.0391  0.0825  0.0390
31319W        W47213   0.206   6.647  11.274 -0.2071  0.2051  0.2305
31320W        W47214   0.740  12.133   5.496  0.3187  0.1957 -0.0304
31321W        W47215   0.865   4.339   3.763  0.1898  0.0577 -0.1414
31322W        W47216   0.623  10.532   3.052  0.0267 -0.0284 -0.0242
31323W        W47217  10.502  12.662  12.395 -0.1115 -0.1498  0.1838
31324W        W47218  13.133   4.821   0.049  0.0202 -0.1387 -0.3217
31325W        W47219  13.096  18.000  13.954  0.1056 -0.2521 -0.1074
31326W        W47220   8.786   3.184  11.832  0.3816  0.0956 -0.2154
31327W        W47221   7.159   5.448   3.996 -0.1254 -0.0097  0.3233
31328W        W47222   2.209   6.786  11.079 -0.0316 -0.5128 -0.2689
31329W        W47223  11.412  12.377  12.370 -0.5196  0.1431  0.1853
31330W        W47224   6.415   0.898   3.254 -0.0369 -0.0685  0.0565
31331W        W47225  10.727  14.388   0.418  0.0718 -0.0460  0.0139
31332W        W47226  18.649  13.202   4.755 -0.0881 -0.0340 -0.3221
31333W        W47227   5.063   9.344  15.373  0.0609 -0.3711 -0.0029
31334W        W47228   2.973   1.415  14.761  0.1123  0.2755 -0.0377
31335W        W47229  14.718  13.862   5.143 -0.4787 -0.3203  0.3451
31336W        W47230  11.097  12.526   2.731  0.4540  0.1133 -0.0177
31337W        W47231   5.015   7.462  13.806 -0.0487 -0.0331 -0.0035
31338W        W47232  12.203   0.319   5.172  0.3064 -0.0900 -0.0691
31339W        W47233   6.766  13.048   3.791 -0.1172  0.0359 -0.0831
31340W        W47234   7.891   8.631   5.777 -0.0934  0.0515 -0.0203
31341W        W47235   4.308   8.050   2.843  0.0568  0.3984  0.3412
31342W        W47236  15.276   4.034   0.406 -0.0419  0.0834  0.3435
31343W        W47237   9.729  13.999   2.333 -0.2534 -0.0818 -0.1579
31344W        W47238   2.037   1.351   3.958  0.1883  0.2587 -0.0940
31345W        W47239  14.401  12.481   3.699 -0.0356  0.0696 -0.3313
31346W        W47240  17.652   6.678   1.696  0.1411  0.1266  0.1647
31347W        W47241   1.274   2.470  14.972 -0.1569  0.2037 -0.2654
31348W        W47242   9.060  18.139   1.146  0.0128  0.0834 -0.1882
31349W        W47243   4.825  14.404   2.076 -0.2541  0.0898  0.2651
31350W        W47244  18.327  12.595   3.189 -0.2254  0.0540 -0.0955
31351W        W47245  10.965   0.239  12.588 -0.0397  0.5037  0.0671
31352W        W47246  14.968   4.779  15.519 -0.0342 -0.0415  0.0523
31353W        W47247   6.330  16.387   3.531 -0.1555  0.2612  0.3151
31354W        W47248  15.539  15.607   1.925  0.3338  0.2279  0.3868
31355W        W47249   7.146  17.441   4.854  0.1285  0.0847 -0.1416
31356W        W47250  14.780  13.679   2.179 -0.1370  0.0294  0.2194
31357W        W47251   7.184   1.803  11.275 -0.0157 -0.0240  0.1449
31358W        W47252   6.589   7.129  14.481 -0.2683  0.0007 -0.1968
31359W        W47253  17.865  14.842  11.837 -0.4977 -0.2020  0.3095
31360W        W47254   2.856   1.449   4.347  0.2066 -0.3345  0.0531
31361W        W47255  14.202  18.428   0.395  0.1674  0.1398  0.1571
31362W        W47256  12.124  15.044   5.180 -0.0661 -0.3471 -0.0748
31363W        W47257  11.675  15.372  14.585  0.0298 -0.1172 -0.1071
31364W        W47258  17.641   1.146   3.380 -0.2595  0.2616 -0.1719
31365W        W47259  17.162   1.843   3.859 -0.4583 -0.1998  0.0554
31366W        W47260   1.125  16.613  15.619 -0.2200 -0.1042  0.2207
31367W        W47261  17.038   8.214   1.292  0.0969  0.0255  0.2268
31368W        W47262   0.153   2.720   4.713  0.0417 -0.1850  0.1114
31369W        W47263   7.823  13.522   0.378 -0.1687  0.0071  0.2351
31370W        W47264   7.904   1.918  10.828  0.1579 -0.0112 -0.0023
31371W        W47265  11.591   6.660   2.765  0.3500  0.2456 -0.2080
31372W        W47266   4.856  15.962  14.422 -0.2070 -0.1278  0.1309
31373W        W47267   7.029  17.339   1.889  0.1008  0.2525  0.0097
31374W        W47268   0.563  11.643  14.687  0.0556 -0.0516 -0.2497
31375W        W47269   8.102   2.667  11.990 -0.0862 -0.1045 -0.0721
31376W        W47270  12.335   9.856  10.260 -0.1672 -0.0410 -0.0029
31377W        W47271   5.708  14.750  11.358 -0.0882 -0.3480  0.1115
31378W        W47272   5.431  15.470  13.037 -0.0361  0.1879 -0.0985
31379W        W47273  18.316  11.338  13.968 -0.0794  0.0457  0.1751
31380W        W47274  12.381   9.595   5.108  0.0745 -0.2606 -0.2160
31381W        W47275   1.328   8.842   4.246  0.0429  0.0022 -0.2574
31382W        W47276   4.270   4.452  10.706 -0.0781  0.1910 -0.1436
31383W        W47277  10.161  13.449   2.919 -0.2395 -0.0080 -0.0206
31384W        W47278  14.923  10.249   0.029  0.3958  0.1126 -0.1012
31385W        W47279   8.775   1.954  11.314  0.0221 -0.1935  0.1548
31386W        W47280   3.536  17.572   4.546 -0.0248 -0.0622  0.3555
31387W        W47281  17.456   8.161   0.968  0.0362  0.2955 -0.0646
31388W        W47282   9.790   3.129   1.920 -0.1623  0.1769  0.1496
31389W        W47283   4.014   4.482  15.402 -0.0805 -0.0570 -0.1471
31390W        W47284   0.719  12.043   3.857  0.0683  0.1596  0.1887
31391W        W47285   7.793  18.070   9.724  0.1852 -0.1139  0.1276
31392W        W47286   4.602   4.515  11.239 -0.1446  0.2362 -0.0968
31393W        W47287  10.341   2.249  15.622 -0.0704  0.0426 -0.0243
31394W        W47288  14.863   0.413  10.904  0.3832  0.2913 -0.1472
31395W        W47289   1.166  13.850   4.695 -0.0578  0.1561  0.0918
31396W        W47290   2.883  13.386   4.903  0.0014  0.1882 -0.1278
31397W        W47291  18.101   3.871   9.994  0.0004 -0.1073 -0.1145
31398W        W47292   4.375  10.868   4.874 -0.3917  0.2395 -0.0378
31399W        W47293  13.944   9.160   5.116  0.0914  0.1053 -0.0921
31400W        W47294  12.445  17.211  12.207  0.1863 -0.1463  0.1409
31401W        W47295  13.987   2.861   3.997 -0.1973  0.0986  0.0575
31402W        W47296   4.911  18.252  11.462 -0.0783 -0.1181 -0.1425
31403W        W47297  18.382   5.869  13.170 -0.2790 -0.3243  0.0209
31404W        W47298   8.798   1.483   4.350  0.2029 -0.0938  0.2172
31405W        W47299   3.366   6.803   1.444 -0.2329 -0.0404 -0.2191
31406W        W47300  13.245  14.426   0.209  0.1052 -0.1820 -0.1226
31407W        W47301   9.742  12.041   1.313 -0.1518 -0.0862 -0.0853
31408W        W47302   2.083   4.723  13.730  0.1114 -0.2109  0.1886
31409W        W47303  11.436   9.399  13.755 -0.0313  0.0707  0.0174
31410W        W47304   9.202   3.236  14.774  0.1635  0.2172 -0.1299
31411W        W47305   2.874   5.284   0.156  0.0404 -0.4385  0.2247
31412W        W47306   3.114   8.106  11.070 -0.2189 -0.1535  0.1218
31413W        W47307  11.887   5.232  12.128  0.1227  0.0287 -0.0637
31414W        W47308  18.153  15.218   3.281  0.3303  0.2780 -0.2568
31415W        W47309   5.048  18.235  12.412  0.0011 -0.0123 -0.0252
31416W        W47310   5.409  12.088   0.041 -0.2890  0.0141 -0.1629
31417W        W47311   6.228   0.274   0.257 -0.1729 -0.3443 -0.0082
31418W        W47312   3.925  13.029  14.479 -0.1685  0.2517  0.0287
31419W        W47313   2.118  15.543  13.406  0.1628  0.1327 -0.0547
31420W        W47314   3.731   9.548  10.759  0.1437  0.0304  0.0773
31421W        W47315   5.685   0.364   0.451 -0.0521  0.0131 -0.1055
31422W        W47316  16.461   7.591  11.603  0.2520  0.1535  0.0263
31423W        W47317   4.180   9.130   2.158 -0.0370  0.2442 -0.0493
31424W        W47318  16.206   3.413  12.405 -0.0828  0.2605 -0.0376
31425W        W47319   9.140  17.072  10.812 -0.2780  0.1168 -0.1489
31426W        W47320  16.975   7.492   4.075  0.2191 -0.1708 -0.2139
31427W        W47321   9.508  13.528  13.925 -0.0263 -0.0097  0.3068
31428W        W47322   9.089   4.332   4.358  0.1360 -0.1462 -0.0787
31429W        W47323   1.603  17.434  15.243 -0.0148  0.2059 -0.1725
31430W        W47324   6.543  14.040   1.070 -0.0874 -0.0282 -0.1944
31431W        W47325  17.778  12.289  14.619  0.3195  0.0536 -0.0492
31432W        W47326   1.795  15.541   1.921  0.1208 -0.1227 -0.1906
31433W        W47327   0.103   9.470   0.508 -0.0724  0.2659  0.1679
31434W        W47328   3.358   2.076   3.929  0.0423 -0.2866  0.2634
31435W        W47329  17.528  16.057  14.691 -0.1430 -0.1175  0.0903
31436W        W47330  13.673   5.150   5.295 -0.2125 -0.0993 -0.1570
31437W        W47331  14.062  18.006  13.849 -0.0937  0.0092  0.1592
31438W        W47332  11.518   9.196   0.181  0.2540  0.1714  0.1446
31439W        W47333   2.800   8.499   5.729  0.0685  0.0986  0.0270
31440W        W47334   6.009   0.434   1.601  0.2940  0.3003  0.0755
31441W        W47335  17.642   3.240   4.146 -0.0646 -0.0596 -0.3642
31442W        W47336   1.269   9.195   0.215  0.1200 -0.3356  0.0187
31443W        W47337  17.433  11.654   5.254  0.0352 -0.1970  0.1589
31444W        W47338  14.962  12.092  11.333  0.2329 -0.0642 -0.2113
31445W        W47339  16.447   2.974   3.200 -0.1964 -0.3376  0.1329
31446W        W47340   1.418   7.538  15.061  0.2027  0.1899 -0.1774
31447W        W47341   3.817   8.323   4.513  0.2453 -0.4807  0.0584
31448W        W47342  15.295   8.543  11.600  0.0861 -0.0226  0.0223
31449W        W47343  13.996   1.152  11.043  0.0412  0.1574 -0.0492
31450W        W47344  10.000  12.487   3.734 -0.1547  0.1248  0.1213
31451W        W47345  18.213  13.510   4.770 -0.0228 -0.0373  0.0333
31452W        W47346  10.030  17.342   1.970 -0.1996 -0.1773 -0.1989
31453W        W47347   9.859   7.940  11.211 -0.2890 -0.4533 -0.0586
31454W        W47348  13.769   9.802  15.191 -0.0459  0.3783 -0.1380
31455W        W47349   3.131  13.312  14.177 -0.1416 -0.3494 -0.2914
31456W        W47350   2.839  14.136  12.589  0.5597  0.0072  0.2094
31457W        W47351  15.899   3.711   3.829 -0.0497  0.2757 -0.3462
31458W        W47352   2.388  13.608  11.849 -0.1356 -0.2708 -0.1964
31459W        W47353  12.608   2.286   2.440 -0.1411  0.2384 -0.0254
31460W        W47354  15.291   8.432  12.830  0.3302  0.1526  0.0057
31461W        W47355   2.371  10.402   4.432 -0.1038 -0.2093  0.0160
31462W        W47356   2.349   8.513   1.387  0.0756  0.1042  0.0774
31463W        W47357  10.631   8.657  12.074 -0.2582 -0.0505 -0.0299
31464W        W47358   8.525  12.629   3.838  0.0892  0.0238  0.0521
31465W        W47359   5.269  16.818  14.434  0.0923 -0.0533  0.0083
31466W        W47360   7.633  16.207  12.051 -0.1122  0.1702  0.0392
31467W        W47361   9.189   6.625  14.798 -0.1713  0.1881  0.3058
31468W        W47362  10.099   3.989  11.251 -0.0411 -0.0072 -0.0377
31469W        W47363  16.883  15.634   3.991  0.2686 -0.0575 -0.0315
31470W        W47364   7.944  10.313  11.932  0.0291 -0.0753 -0.0755
31471W        W47365   0.442  10.321  15.343 -0.0031 -0.0748 -0.0423
31472W        W47366   8.014  16.052  13.538  0.0627  0.2135  0.2650
31473W        W47367  11.438   6.200  13.080 -0.0426 -0.0430  0.1732
31474W        W47368  10.471  14.579   3.268 -0.0476 -0.0060 -0.1114
31475W        W47369  12.308  13.913  11.127 -0.0005 -0.1423 -0.1046
31476W        W47370  10.622  16.223   0.600 -0.2082 -0.0268  0.3173
31477W        W47371   5.976  12.157  12.423  0.2814 -0.0653 -0.1628
31478W        W47372  18.662  14.893   1.857  0.0659 -0.0850  0.0507
31479W        W47373  12.512   4.239  11.333  0.1164  0.4223 -0.2917
31480W        W47374   2.238  18.162  12.643 -0.0223  0.4189  0.1700
31481W        W47375   0.611  17.556  10.777 -0.4497  0.0165 -0.2120
31482W        W47376  16.781  14.214  14.612  0.3319 -0.0642 -0.0442
31483W        W47377   8.107   4.328  14.271 -0.1240 -0.0650  0.2835
31484W        W47378   9.229   8.464   1.995 -0.4683  0.0828  0.0107
31485W        W47379   5.685   0.639  15.199 -0.0544 -0.2322  0.2940
31486W        W47380  14.582  14.850   3.059 -0.0797  0.0166  0.0590
31487W        W47381   8.940   0.273  14.457  0.5540  0.2141 -0.0075
31488W        W47382  15.898  10.235  14.522 -0.0156 -0.1148 -0.0018
31489W        W47383   7.816  16.853   3.821  0.0124  0.0352  0.0452
31490W        W47384  15.585  10.691   1.167 -0.0399  0.1788 -0.0951
31491W        W47385   0.810   9.167  13.113  0.1981  0.1911  0.1681
31492W        W47386  18.587   7.249  15.208  0.2119  0.3009  0.3448
31493W        W47387  13.080   8.569   4.942  0.1830 -0.3019 -0.0459
31494W        W47388   4.929  14.738   1.322 -0.1206  0.1736  0.1669
31495W        W47389   7.031  12.519  13.622  0.0272  0.1368 -0.0484
31496W        W47390  17.436   1.600  12.346  0.0844  0.0573  0.1444
31497W        W47391  12.247  17.299   3.446 -0.0529 -0.2080 -0.4060
31498W        W47392  11.794  17.523  12.723  0.0573  0.4132 -0.3806
31499W        W47393  16.267   2.566   2.391 -0.2028  0.0168  0.1404
31500W        W47394  12.429   0.611   3.264  0.0336  0.0787  0.2559
31501W        W47395   9.256   6.227   3.732 -0.2743 -0.1985 -0.0144
31502W        W47396  15.924  18.436   1.867  0.1083 -0.1398 -0.0187
31503W        W47397   0.338  10.371  12.237 -0.0549 -0.1840 -0.1911
31504W        W47398   1.026  16.347  10.321 -0.3354 -0.1123 -0.2391
31505W        W47399  15.660   2.190  12.340 -0.0666  0.0659 -0.2059
31506W        W47400   8.698  13.560  12.482 -0.1892 -0.2851  0.1208
31507W        W47401   5.564   0.589   1.954 -0.0086 -0.0873  0.2178
31508W        W47402   1.659  10.781  11.854 -0.1039 -0.2219 -0.1396
31509W        W47403   3.461  17.912  10.962 -0.2410 -0.1052  0.0098
31510W        W47404   8.445  13.681  13.784  0.2121 -0.1810 -0.2800
31511W        W47405   1.011   3.389   0.184 -0.2219  0.3029  0.0455
31512W        W47406   3.726  14.133  12.817 -0.0822  0.3608  0.1959
31513W        W47407   5.794   5.233   3.486  0.1153 -0.0868  0.0800
31514W        W47408   8.893   8.694   1.706 -0.3459 -0.1469  0.1855
31515W        W47409   6.330   6.561  14.398  0.0968 -0.0168 -0.1973
31516W        W47410   7.028  13.528  14.801  0.2016  0.0343  0.0244
31517W        W47411   4.191  16.173  12.053  0.0521  0.1078 -0.1697
31518W        W47412   4.266   8.055  13.856 -0.0497  0.1191 -0.2877
31519W        W47413   7.375  16.578   2.989 -0.1593  0.3631  0.1654
31520W        W47414  10.067  13.916   0.437 -0.1206 -0.2384  0.2219
31521W        W47415   2.512   8.182  10.791 -0.0462 -0.2333 -0.0739
31522W        W47416   9.945  16.272   2.905  0.0513  0.0714  0.1842
31523W        W47417   0.285   3.335  12.253  0.1053 -0.1803  0.0667
31524W        W47418  14.724  15.415   1.378 -0.1736  0.2524  0.1042
31525W        W47419  10.987   4.871   3.041  0.1749  0.1079  0.0328
31526W        W47420  12.052  14.950  12.972  0.2972  0.2018  0.2567
31527W        W47421   4.889  15.584   4.969  0.0631 -0.0243 -0.0183
31528W        W47422   9.365   4.893   4.435 -0.0323  0.1586  0.0473
31529W        W47423  12.882  12.725  14.444 -0.0986  0.1445  0.1184
31530W        W47424   5.661  10.883  11.787 -0.1771  0.2078 -0.0329
31531W        W47425  16.527   0.988  13.309  0.1808 -0.3910  0.1240
31532W        W47426  11.270   6.987  12.167  0.2976 -0.0217 -0.4295
31533W        W47427   1.982  14.545   2.013  0.1318  0.1843 -0.0652
31534W        W47428   0.651   9.707  14.193  0.1681 -0.0028  0.1324
31535W        W47429   0.611  18.576   1.601  0.0164  0.0227 -0.0771
31536W        W47430   6.499   7.965  13.914  0.0427 -0.1527 -0.2415
31537W        W47431  17.821  18.367   4.809 -0.1735  0.1590  0.2350
31538W        W47432   7.834   0.427  13.013 -0.2388 -0.0450  0.1440
31539W        W47433  16.317  11.033  12.401  0.0921  0.2503 -0.0247
31540W        W47434  17.554   1.677   2.263 -0.0738 -0.1107 -0.0358
31541W        W47435   1.395   2.178  12.645 -0.0532  0.1385 -0.6045
31542W        W47436  12.002   1.100  14.075 -0.0061  0.1332 -0.0326
31543W        W47437   4.598   2.097  11.871 -0.2907 -0.1236 -0.0353
31544W        W47438   8.982  17.882  10.844  0.2980 -0.0208  0.3663
31545W        W47439   2.784   4.611  10.316  0.1114 -0.0246 -0.2816
31546W        W47440   9.691   6.800   2.942  0.0762  0.3523  0.2922
31547W        W47441  17.864  17.808   4.887 -0.0222  0.2413  0.2951
31548W        W47442   8.938  11.403   5.578  0.0219 -0.2999 -0.1679
31549W        W47443  16.685   2.601  11.001  0.2557 -0.1003 -0.1344
31550W        W47444   4.947   5.854  14.979 -0.0934 -0.1109  0.2321
31551W        W47445   6.403   8.505  15.321  0.0129 -0.2565 -0.1743
31552W        W47446  16.584   6.858  12.954 -0.2436 -0.0054  0.0990
31553W        W47447  14.814   4.139   3.967  0.0370 -0.3592  0.1504
31554W        W47448   8.068  11.670   4.553  0.1756  0.0298  0.2278
31555W        W47449   1.308   3.769   5.608  0.0568 -0.0245  0.2327
31556W        W47450   0.201   2.358   4.399 -0.0834  0.1423  0.0178
31557W        W47451  17.696   3.190  10.678  0.4222  0.0932 -0.0191
31558W        W47452   6.992   2.199   5.331 -0.0648  0.1345  0.0242
31559W        W47453  12.027  14.540   1.305  0.3216  0.1675  0.1685
31560W        W47454  12.071   7.310   1.453 -0.1666  0.1148  0.1712
31561W        W47455   2.431   3.736  12.391 -0.0012  0.0468 -0.0366
31562W        W47456   4.034  15.934  12.988 -0.0146 -0.1870  0.0313
31563W        W47457   6.911   6.482   1.115  0.0411  0.1649  0.0547
31564W        W47458  10.688   1.655  10.923 -0.0383 -0.3977  0.1314
31565W        W47459  12.396   7.506   3.784 -0.1149 -0.2373  0.0042
31566W        W47460  13.139   5.568  12.033  0.2623  0.1030  0.0474
31567W        W47461   0.608   7.331   0.987 -0.0227  0.2441 -0.2429
31568W        W47462  17.274  11.974  12.008  0.2220  0.0285  0.0079
31569W        W47463  11.581  17.979  11.357  0.1732 -0.2982  0.1362
31570W        W47464   8.924  15.401   3.596  0.0810 -0.0725 -0.2888
31571W        W47465   8.310  18.572   5.204  0.2249  0.0481  0.3731
31572W        W47466  10.358  13.465   0.396  0.1791  0.1342  0.0322
31573W        W47467  12.296   7.317   4.719 -0.1021 -0.3928  0.3899
31574W        W47468   6.752   8.767   2.205  0.1402  0.1448 -0.1278
31575W        W47469  14.376  11.216   5.672 -0.0014 -0.2082 -0.0768
31576W        W47470  11.046   1.154  14.654  0.1865  0.0276 -0.0115
31577W        W47471  18.379   6.817  13.211  0.2161 -0.1229 -0.2124
31578W        W47472   9.542   4.763  12.217  0.1789  0.0120 -0.0731
31579W        W47473   8.757   0.243  11.242  0.1888 -0.1208  0.2556
31580W        W47474   7.534  12.203   2.936  0.2687 -0.1839 -0.1093
31581W        W47475  15.673  18.377  14.108 -0.1222 -0.2587  0.2540
31582W        W47476   0.016  13.873  12.207 -0.1235  0.0738  0.0490
31583W        W47477   8.426  10.611  14.948  0.0644 -0.1437  0.3584
31584W        W47478  12.093  16.177  12.616  0.0828 -0.3060  0.0294
31585W        W47479  13.858   0.477  14.507  0.1103 -0.2857  0.1067
31586W        W47480   6.634  12.698  10.943 -0.1067  0.1763 -0.0147
31587W        W47481   3.426  15.710  11.243 -0.0873 -0.0018  0.0457
31588W        W47482   0.113   3.699  15.224 -0.0762  0.3101  0.0533
31589W        W47483   0.418  11.302  11.240  0.3224  0.2572  0.0863
31590W        W47484   1.063  10.218  11.931  0.1223 -0.1371 -0.0512
31591W        W47485   2.921   7.526  13.051  0.0463 -0.3794  0.2058
31592W        W47486  13.477  12.271   5.659 -0.1155 -0.0514  0.0089
31593W        W47487   3.430   6.117   5.120  0.2399 -0.2975  0.1969
31594W        W47488  18.208   0.385  10.776  0.1260  0.1613  0.2753
31595W        W47489  15.016  12.340   5.147  0.1249  0.2187  0.0895
31596W        W47490  15.650   4.356   0.294 -0.1245  0.0208  0.0770
31597W        W47491   6.277  13.082  13.147 -0.0007  0.0224  0.3665
31598W        W47492   1.413  11.001   3.454 -0.1483 -0.0408  0.2044
31599W        W47493   3.482   3.151   4.244 -0.0330 -0.0019 -0.2948
31600W        W47494  18.235   3.390   9.735  0.0022  0.0586  0.3446
31601W        W47495   1.815   4.491   2.489  0.2121 -0.0955 -0.1572
31602W        W47496  14.982  14.587   4.496  0.0680  0.0952 -0.1579
31603W        W47497  15.317   7.135  14.404 -0.1237  0.1190  0.2268
31604W        W47498   0.295   0.756   3.137  0.0918  0.1409 -0.0112
31605W        W47499  11.346   9.147  12.303 -0.4478  0.0775 -0.0767
31606W        W47500   3.834   8.552  13.195  0.1439 -0.4149  0.1922
31607W        W47501   4.831   1.443  10.866  0.0364 -0.0514  0.1671
31608W        W47502   7.374   6.101   3.634 -0.2988  0.0333  0.2148
31609W        W47503  14.825   1.698  13.458  0.0967 -0.2610  0.0460
31610W        W47504   1.718   0.873   2.122  0.2205  0.1115 -0.1386
31611W        W47505   6.220  16.858  12.390 -0.1261 -0.0997 -0.2190
31612W        W47506  18.270  15.067  13.807  0.0340  0.1189  0.1696
31613W        W47507  15.747  13.296  15.531  0.1632 -0.2350  0.0280
31614W        W47508  16.339   1.542  12.447  0.2386 -0.0450 -0.2186
31615W        W47509  17.492   5.969   5.404  0.1079  0.1506 -0.2812
31616W        W47510   9.118  13.911  14.600 -0.0445 -0.0998 -0.1211
31617W        W47511  13.074  11.164   3.473  0.2693 -0.3172 -0.0663
31618W        W47512   3.360  14.036   4.259  0.0484  0.0851  0.1557
31619W        W47513  10.516  15.102   1.532  0.1629  0.1544 -0.2825
31620W        W47514  16.372   1.834   4.098  0.3388  0.0254 -0.0559
31621W        W47515   3.779  18.517  11.277  0.0407 -0.3435 -0.2372
31622W        W47516  14.824   5.560  13.138 -0.0894  0.2346  0.1002
31623W        W47517   6.214  11.297  11.015  0.0388  0.1090  0.3237
31624W        W47518  17.274  11.322  14.959  0.0543 -0.0718 -0.1224
31625W        W47519   8.986  16.600   0.095  0.0082 -0.1071 -0.4227
31626W        W47520  12.383  10.088  11.929  0.2929 -0.1781 -0.2039
31627W        W47521  14.638   9.966  13.976 -0.2957  0.3071  0.0069
31628W        W47522  12.472  12.859  12.025  0.3684  0.0448 -0.0623
31629W        W47523   2.261   7.781  11.444 -0.2044 -0.1482  0.3616
31630W        W47524   5.457   9.439  12.791 -0.0026 -0.1168  0.3659
31631W        W47525   2.075  13.613   9.671  0.0171  0.2723  0.1811
31632W        W47526  16.943  12.962  12.042 -0.2570 -0.1505 -0.0951
31633W        W47527   2.363   5.059  12.818  0.0739 -0.2472  0.0255
31634W        W47528   0.667   5.296   1.274  0.1811  0.0320  0.2029
31635W        W47529  15.595  15.547   4.022  0.0743 -0.1981  0.0534
31636W        W47530  17.626  12.313  11.389  0.0330  0.1008  0.0185
31637W        W47531  14.343   4.452   4.970  0.0330 -0.0091 -0.5429
31638W        W47532   0.301   6.680   2.862 -0.0837 -0.1080 -0.0706
31639W        W47533  12.117   4.623  15.549  0.4040 -0.2615 -0.0297
31640W        W47534   0.869  13.027   4.649 -0.1953  0.0554 -0.1823
31641W        W47535   7.180   0.919  15.565  0.1791 -0.1000  0.1755
31642W        W47536  10.093   0.402   2.577  0.1581 -0.1971  0.0009
31643W        W47537   7.764   1.011  10.778  0.4167  0.2845  0.0222
31644W        W47538  12.428  13.313   4.987 -0.0601  0.1628  0.2346
31645W        W47539   9.177   7.494   3.118  0.0906 -0.1642 -0.0514
31646W        W47540   3.413  14.290  11.920  0.3414 -0.0328 -0.2816
31647W        W47541  13.575   3.809  14.214 -0.1499 -0.1261 -0.3007
31648W        W47542   4.569  16.087  11.536 -0.2133 -0.0152  0.2744
31649W        W47543   9.886  12.490   2.274  0.1193 -0.0718  0.0057
31650W        W47544  16.113   5.930  15.351  0.0157 -0.1398  0.0441
31651W        W47545   9.982   5.380   4.946 -0.1355 -0.2575  0.2563
31652W        W47546   5.152   7.650   1.310 -0.3217  0.1347  0.0183
31653W        W47547  14.621  14.588  15.252 -0.0279  0.3530  0.3605
31654W        W47548  13.255   0.647   4.954 -0.0822 -0.0732 -0.0430
31655W        W47549  13.847  12.911  14.340 -0.1729 -0.0568 -0.0410
31656W        W47550  15.848   0.521   4.616 -0.0954 -0.0538 -0.0870
31657W        W47551   8.628   0.010  13.795  0.1922  0.2958 -0.2784
31658W        W47552   8.183  13.471   1.299 -0.0124  0.2876 -0.0345
31659W        W47553   6.563  16.735   5.714  0.0399  0.1359  0.0732
31660W        W47554   2.655   0.534  11.503 -0.2105 -0.3416 -0.1305
31661W        W47555   6.438   3.252  10.362  0.1395  0.1929  0.5513
31662W        W47556   4.184   7.726   4.020 -0.1348  0.0691 -0.0288
31663W        W47557   0.937  11.547   0.735 -0.1060 -0.0509  0.0291
31664W        W47558  11.610   4.206   1.600  0.0078  0.0064  0.3887
31665W        W47559  10.900   8.819  13.181  0.0330 -0.0058 -0.5013
31666W        W47560   1.466   6.717   0.462  0.1452  0.0049  0.2304
31667W        W47561  16.235  15.695   0.056  0.3816  0.2292 -0.2421
31668W        W47562  12.843  16.597   4.853  0.1081  0.0812  0.1885
31669W        W47563   2.316   8.363   0.407  0.1455  0.1860 -0.4146
31670W        W47564   9.302  13.477  12.607  0.1803 -0.0049  0.0164
31671W        W47565   3.729   8.984   1.971  0.0718  0.0953  0.1961
31672W        W47566  12.750   7.801  12.423  0.1718 -0.0520 -0.1951
31673W        W47567   4.817   5.233   0.159 -0.1098 -0.0164  0.2189
31674W        W47568   8.241   1.231   0.995 -0.1488  0.0145 -0.0841
31675W        W47569   2.647  12.983  10.727  0.4456 -0.0788  0.0717
31676W        W47570   1.355  16.680   1.522 -0.1427  0.1494  0.0801
31677W        W47571   0.774   2.788   5.324 -0.0047  0.1330  0.2110
31678W        W47572   8.012  16.379  13.953  0.2188 -0.1835  0.3328
31679W        W47573   1.101   4.958  14.908  0.1763  0.0181 -0.2911
31680W        W47574  15.512   1.097   1.806  0.0330 -0.0267  0.1578
31681W        W47575  12.323  17.648  12.803 -0.1212  0.1236  0.4390
31682W        W47576   6.113   4.873  15.295 -0.1570 -0.2236  0.1667
31683W        W47577  10.886  10.216  11.967 -0.3937 -0.0146 -0.0179
31684W        W47578   0.943   8.509   1.305 -0.0344 -0.0270  0.5257
31685W        W47579  18.650  13.662   4.094 -0.0627 -0.3179  0.4849
31686W        W47580   1.033   2.646  14.524  0.1043  0.2074  0.1739
31687W        W47581   6.642  15.654  10.672 -0.0054 -0.4605 -0.1090
31688W        W47582  15.155  11.129   1.033 -0.0979 -0.0792 -0.1800
31689W        W47583  17.925   6.411   0.589 -0.1538 -0.2948 -0.0120
31690W        W47584   4.707   5.765  13.197  0.2931  0.2694 -0.2836
31691W        W47585   4.113   4.316  14.956  0.1928  0.0835 -0.0118
31692W        W47586   9.266   1.614  14.006 -0.0523 -0.0003  0.3167
31693W        W47587  14.800  15.479  14.818  0.0650  0.1987  0.0049
31694W        W47588   6.185   5.531  14.849 -0.2013  0.6164  0.1309
31695W        W47589  10.158   8.822   4.145  0.0319 -0.0411  0.2809
31696W        W47590   9.538   7.906   1.302  0.1782 -0.1570 -0.1746
31697W        W47591  13.655   3.535  11.514 -0.1955  0.0746  0.2296
31698W        W47592  14.659  15.075   4.390 -0.0959 -0.0162  0.2239
31699W        W47593   6.762  11.362  15.207  0.1824 -0.0115 -0.0281
31700W        W47594   9.719  16.074   0.963 -0.1122 -0.0698 -0.2246
31701W        W47595   9.712   0.472  11.509  0.0534  0.1704  0.1530
31702W        W47596  12.896   3.683   0.288 -0.1104  0.1669  0.3490
31703W        W47597   6.723  16.760  12.257  0.2367  0.2377 -0.0350
31704W        W47598   7.326  10.219  13.054 -0.2498 -0.3712 -0.2129
31705W        W47599   3.403   5.382  10.916  0.0411  0.0087 -0.1523
31706W        W47600   9.643   3.944   0.545  0.1763 -0.2263 -0.2191
31707W        W47601  13.094   6.416   1.304  0.1721 -0.0145 -0.0355
31708W        W47602   8.664  12.473   1.482 -0.0978 -0.2970  0.0398
31709W        W47603   3.644  15.747   2.837 -0.1553  0.0204 -0.1832
31710W        W47604   5.500  15.180   0.586  0.1028 -0.0277  0.1392
31711W        W47605  13.638  10.633   0.222 -0.2979 -0.0025 -0.0321
31712W        W47606  11.147   1.384   5.350 -0.0108 -0.1328  0.0963
31713W        W47607  11.155  12.328   3.593 -0.4177  0.0837 -0.0027
31714W        W47608   9.354   0.236   1.426 -0.1334  0.0496 -0.1440
31715W        W47609   8.473  14.419  12.694 -0.1343 -0.0769 -0.0771
31716W        W47610  16.659   8.085  11.726  0.2144  0.3205 -0.3252
31717W        W47611   9.914   3.775   5.817 -0.1068  0.0832  0.0011
31718W        W47612  16.644   3.675   1.042  0.1661  0.1677 -0.0910
31719W        W47613  11.990   3.608  11.905 -0.2874 -0.0316  0.2489
31720W        W47614  17.784   0.672   3.532 -0.2567 -0.0387  0.0143
31721W        W47615   8.516   9.073  13.938  0.2389 -0.0099 -0.1002
31722W        W47616   2.821  15.723   5.155 -0.0367 -0.1455  0.0670
31723W        W47617   2.106  17.525  15.248 -0.5209 -0.2687 -0.2343
31724W        W47618   4.238  15.570   2.281 -0.2521  0.0727 -0.1368
31725W        W47619  15.710   1.958   3.610  0.2360 -0.0387  0.2081
31726W        W47620  18.751  14.562  11.954 -0.0504 -0.2095 -0.0262
31727W        W47621   0.912  17.999  15.005 -0.2505 -0.1319  0.2050
31728W        W47622   3.767  18.045  13.944  0.1990 -0.2888 -0.0587
31729W        W47623   5.173  13.814   0.555 -0.0624 -0.1695  0.1083
31730W        W47624  17.249  15.411   3.145 -0.0320  0.4183 -0.2412
31731W        W47625  15.029   1.340   0.071 -0.3062 -0.2111  0.0486
31732W        W47626  17.532  14.441  15.168  0.0626  0.0779  0.2767
31733W        W47627   2.317   4.410   0.412 -0.0306  0.3118 -0.1929
31734W        W47628   2.533  18.074  10.963  0.3552 -0.2817  0.0259
31735W        W47629   9.693   0.846  14.495  0.0230  0.1244  0.1074
31736W        W47630   3.078   2.853  13.707  0.3237 -0.3766  0.0661
31737W        W47631   0.682   0.118  11.320  0.0813  0.0502  0.3950
31738W        W47632  10.576  17.489  13.163 -0.0527  0.1343 -0.1031
31739W        W47633   7.429  16.541   3.795 -0.1830 -0.1426  0.1628
31740W        W47634  12.919  17.717  11.019  0.3442  0.2027  0.0395
31741W        W47635  16.155   8.721  14.530 -0.0353  0.0706 -0.0819
31742W        W47636   1.264   7.567   0.012  0.1864  0.1853 -0.3410
31743W        W47637   8.233   8.530  15.586 -0.0353 -0.0651 -0.0694
31744W        W47638   5.896  12.409   5.132 -0.3067  0.1871  0.0421
31745W        W47639   2.848  11.328  13.530  0.2932  0.1346  0.0031
31746W        W47640   9.545   5.030  13.918 -0.2098  0.1675 -0.1911
31747W        W47641  14.397  10.311   2.013  0.1318 -0.2650  0.0291
31748W        W47642   6.702   0.677  10.504  0.1742 -0.0055  0.0352
31749W        W47643   3.498   9.601  14.158  0.0992  0.2618  0.1438
31750W        W47644   6.949   6.359   4.327  0.3811 -0.1387  0.0145
31751W        W47645  11.825  10.163  14.112 -0.0875 -0.0300 -0.2575
31752W        W47646  10.905   6.199   0.439 -0.2313 -0.4403  0.1433
31753W        W47647   9.409  13.645   1.735  0.3316 -0.0913  0.1045
31754W        W47648  18.072  17.769   0.836  0.1440 -0.0820  0.1671
31755W        W47649  18.519  12.525   1.206 -0.0714  0.0194  0.0727
31756W        W47650   1.396  10.412   4.981 -0.1328 -0.0373 -0.1057
31757W        W47651  14.288   9.683  14.891 -0.2861  0.1002  0.0803
31758W        W47652  15.558  17.380  13.012 -0.3135 -0.0612 -0.0517
31759W        W47653  12.870  18.181  10.844 -0.0581  0.2095 -0.0775
31760W        W47654   3.155   2.628   1.001  0.1198 -0.2190 -0.0340
31761W        W47655   6.053   5.348  12.969  0.1359  0.1686  0.1251
31762W        W47656   2.520   8.658  11.182 -0.2022 -0.0923  0.0253
31763W        W47657   1.276   7.518   4.385  0.2659 -0.0722  0.1207
31764W        W47658  16.335   2.598  14.418 -0.3270 -0.1004  0.0418
31765W        W47659   1.143   2.436  12.104  0.1163 -0.1672 -0.3772
31766W        W47660   6.291  18.526  14.095  0.0739  0.0986 -0.0734
31767W        W47661  13.576   5.282   1.815 -0.2554 -0.3199 -0.0478
31768W        W47662   7.105   5.890  13.226 -0.0781  0.1498  0.1291
31769W        W47663  16.571   6.579  11.850  0.1571 -0.3165 -0.2030
31770W        W47664  17.165  18.072  11.448 -0.0862 -0.2594  0.0650
31771W        W47665   4.640   6.599   2.605 -0.1454  0.2583  0.1330
31772W        W47666  13.967   7.023   4.435 -0.1724  0.0832 -0.2855
31773W        W47667  18.442  18.578   0.732 -0.0238  0.1895  0.1144
31774W        W47668  10.724  11.027   2.505 -0.1398  0.0384 -0.0890
31775W        W47669   8.311   9.701  10.082 -0.0398  0.3133  0.1482
31776W        W47670   4.365  12.900  15.321  0.0605 -0.1703 -0.1762
31777W        W47671  13.315   1.920   9.387 -0.2200 -0.0602 -0.2236
31778W        W47672  11.537   6.727  12.741 -0.1726 -0.2793 -0.0586
31779W        W47673   4.393   1.620   3.573 -0.1245 -0.1898  0.0796
31780W        W47674   3.234   1.848   0.511  0.1063  0.1864  0.1195
31781W        W47675  16.037  13.787  11.617 -0.2852 -0.0205  0.1179
31782W        W47676   7.714   7.414  14.062  0.2178 -0.2018 -0.1236
31783W        W47677  10.256  10.581  13.609 -0.0124 -0.1279 -0.0938
31784W        W47678   3.009   6.058   5.465  0.0811 -0.0414  0.0465
31785W        W47679   0.333  14.513   4.410 -0.4607 -0.0070 -0.2265
31786W        W47680  13.161   5.871   4.603  0.1349  0.1351  0.2768
31787W        W47681   1.104  10.982  14.106  0.0023  0.0230 -0.1501
31788W        W47682  15.842   8.107  13.375 -0.1164  0.1246  0.0982
31789W        W47683   5.040   2.484   4.176  0.0551  0.1319  0.0561
31790W        W47684   8.901  11.843  15.474  0.0643  0.0203  0.0729
31791W        W47685  14.764  14.438   6.259 -0.0786 -0.0829  0.0173
31792W        W47686   7.768   8.316   3.535 -0.0226  0.2557 -0.0711
31793W        W47687   1.494  16.901  12.780 -0.0443 -0.0877 -0.1796
31794W        W47688   4.979   5.583   2.204 -0.1218  0.1313  0.1842
31795W        W47689   0.297   1.051  11.848 -0.1299 -0.0495  0.1391
31796W        W47690   3.932   0.360  13.447 -0.3014  0.0181 -0.1162
31797W        W47691  13.941   4.669   4.185  0.1737 -0.0276  0.0229
31798W        W47692  13.451   1.688  13.287  0.0722  0.0737 -0.2250
31799W        W47693   7.743  18.750  12.642  0.1302 -0.1255 -0.1316
31800W        W47694   2.609  10.708   1.230  0.1524  0.0524 -0.1204
31801W        W47695  18.517  18.059   3.719  0.1021  0.3504 -0.1082
31802W        W47696   2.001  11.674   4.401 -0.3736 -0.3557  0.2349
31803W        W47697  15.933  13.014  13.003  0.0922 -0.5519  0.0854
31804W        W47698  13.526   4.055   3.778 -0.0725 -0.1407 -0.3153
31805W        W47699  11.591  10.241   1.665  0.1448  0.0515  0.1639
31806W        W47700  18.199   2.394  15.245  0.1327  0.1356  0.2125
31807W        W47701  10.862  11.193  11.727 -0.2350  0.1244 -0.2074
31808W        W47702  16.668   7.839   0.494 -0.4715 -0.0691  0.1844
31809W        W47703  10.259  16.109  12.226 -0.2376 -0.0087  0.2206
31810W        W47704   5.646   3.705  14.286  0.1180  0.1961  0.1304
31811W        W47705   0.082  11.878  13.300 -0.2435 -0.2842  0.0228
31812W        W47706  18.042   6.171   3.276 -0.2751  0.0972  0.4347
31813W        W47707  15.559  15.621   1.442 -0.0738 -0.1127 -0.0812
31814W        W47708  13.806   9.244   0.261  0.0007 -0.0307  0.2393
31815W        W47709   9.161   4.800   0.118  0.1246 -0.1621  0.0354
31816W        W47710   2.855  10.028   3.695 -0.1206 -0.0287  0.0711
31817W        W47711  15.708  10.393  12.653  0.0069 -0.0444 -0.2963
31818W        W47712  13.420   3.564   0.363 -0.4525 -0.0647 -0.0571
31819W        W47713   5.173   4.270   9.539 -0.1264  0.2003  0.1465
31820W        W47714   1.306   1.885  15.537 -0.0091  0.0540 -0.1767
31821W        W47715   1.593  10.511  15.434 -0.0925 -0.1440  0.0165
31822W        W47716  12.199  13.432  10.029 -0.0632 -0.0843  0.0361
31823W        W47717   3.628  18.075  12.159  0.0742 -0.0125 -0.2010
31824W        W47718  16.394   3.318   0.031  0.0622 -0.4681 -0.0084
31825W        W47719   0.799   4.797  15.273  0.1528 -0.1094  0.2695
31826W        W47720  12.426   6.105   1.221 -0.3179 -0.2747  0.1607
31827W        W47721   1.616   2.096  15.001  0.0566  0.1729  0.2005
31828W        W47722   2.075   9.861  12.816  0.2561 -0.0082 -0.0918
31829W        W47723   2.361   9.512   4.533 -0.0709 -0.0273  0.0688
31830W        W47724  17.522   7.348  13.182 -0.0727  0.0542  0.1468
31831W        W47725  15.523   7.666  13.667 -0.1511 -0.3192 -0.0360
31832W        W47726  17.862  13.571   5.159 -0.1652 -0.0263 -0.0247
31833W        W47727   6.368  12.210   1.484  0.0582  0.1049  0.2827
31834W        W47728   0.276   3.329   3.726 -0.2785  0.0123 -0.2031
31835W        W47729   8.125   7.653  11.648  0.0069  0.0090 -0.1650
31836W        W47730   0.544   0.005   5.516  0.1098  0.0640 -0.1470
31837W        W47731  17.772   3.363   4.993  0.0086  0.0873  0.0296
31838W        W47732   5.629   8.454   1.941  0.2826  0.0167  0.1791
31839W        W47733  12.196  17.539  11.873  0.1456  0.1209  0.2050
31840W        W47734   4.808  10.718  11.085  0.1581  0.2405  0.0125
31841W        W47735  11.463  12.978   1.164  0.0698 -0.0802 -0.1214
31842W        W47736  14.782   1.757   3.622  0.1711 -0.1338 -0.0518
31843W        W47737  18.101  10.400  13.380 -0.1944 -0.0461  0.0897
31844W        W47738   1.014  15.005   0.090  0.1168 -0.1199  0.1368
31845W        W47739   0.606  15.563  11.202 -0.0293 -0.0616  0.0187
31846W        W47740  16.292   3.831   0.533 -0.1962 -0.0140  0.0066
31847W        W47741  12.858   9.636  13.217  0.1891  0.0040 -0.2598
31848W        W47742   6.221  18.080  13.623  0.1119 -0.1753 -0.0559
31849W        W47743  16.569  14.658   4.319 -0.1312 -0.0973  0.3402
31850W        W47744   6.092   7.978   4.182  0.0241  0.0041 -0.2384
31851W        W47745  16.668   5.099  13.504 -0.0549 -0.0193 -0.1624
31852W        W47746   8.960   0.814   3.201 -0.3128  0.0261 -0.2968
31853W        W47747   0.853  13.157   2.026 -0.1566 -0.0535  0.1531
31854W        W47748   2.698  17.725  13.071 -0.0791 -0.0814  0.0039
31855W        W47749  17.775   7.869  14.459  0.3495 -0.0006  0.2002
31856W        W47750  13.025   6.361  13.093  0.0054  0.1666  0.0550
31857W        W47751   4.544  18.137   3.885 -0.1153 -0.1001  0.2467
31858W        W47752   3.170   7.966   1.378 -0.0707  0.0857 -0.1916
31859W        W47753  11.061   3.481  10.542  0.1295  0.3769 -0.2428
31860W        W47754   6.896   1.692   5.104 -0.2596  0.3787 -0.0208
31861W        W47755   5.753   0.405   4.819  0.0306  0.1223 -0.0175
31862W        W47756   1.704  14.307  11.912  0.1052  0.0266 -0.0166
31863W        W47757  13.629   8.520  14.937  0.1683 -0.0736  0.1024
31864W        W47758   7.256   6.451  15.450 -0.1567 -0.0103  0.0321
31865W        W47759   0.093   1.305   4.594 -0.3638 -0.1001  0.1396
31866W        W47760  18.115  10.024   1.107 -0.1165 -0.2887 -0.1333
31867W        W47761   5.878  16.291  11.960  0.2936 -0.1992  0.3442
31868W        W47762   5.374   7.906   0.381 -0.1174 -0.0431 -0.1631
31869W        W47763  12.594   7.073  13.026  0.1126  0.2292 -0.1362
31870W        W47764  12.504  12.223   4.016  0.0473  0.1796 -0.1673
31871W        W47765   0.958  18.131   2.740  0.2728  0.1661 -0.2524
31872W        W47766   6.047   2.212   1.906 -0.1757  0.0762  0.0971
31873W        W47767   5.670   2.551  11.280 -0.1340 -0.2080  0.2478
31874W        W47768  14.551  10.621   3.183 -0.1998 -0.0482  0.2935
31875W        W47769   2.987   2.198   2.357 -0.1868 -0.1406 -0.0292
31876W        W47770  14.390   4.780   1.508 -0.1625 -0.0437  0.4064
31877W        W47771  10.143   2.072  10.632 -0.0723 -0.1824  0.2210
31878W        W47772   0.789  13.531   4.490  0.0513 -0.0936 -0.1302
31879W        W47773  17.888  18.079   5.620 -0.0006 -0.0888  0.1098
31880W        W47774   7.572  17.993   2.112  0.0936  0.1783  0.1827
31881W        W47775   2.958   0.014   3.788  0.0256 -0.2169 -0.2822
31882W        W47776  11.098   1.883   1.517  0.2064  0.2240  0.0957
31883W        W47777  17.510   5.009  13.777 -0.1830  0.0981 -0.2267
31884W        W47778   5.313   2.319  13.145  0.2613 -0.0404  0.2232
31885W        W47779   7.410   6.210   1.876  0.0308 -0.0506  0.2350
31886W        W47780  18.498  11.610   2.909  0.1685 -0.0485 -0.4179
31887W        W47781   4.001  16.342  12.621  0.0011  0.0332  0.4337
31888W        W47782  11.962  14.446   3.304  0.1020  0.0522 -0.2245
31889W        W47783   3.779  12.732  14.147  0.1345 -0.1202 -0.1592
31890W        W47784   0.786  12.035   0.531  0.1658 -0.3231  0.2744
31891W        W47785  16.137  10.345  13.559 -0.0234  0.0578 -0.3429
31892W        W47786  11.277  16.502   3.477 -0.1072  0.1918 -0.0265
31893W        W47787   3.043   3.714  12.223  0.0907  0.1246  0.0024
31894W        W47788  17.787   1.781   0.152  0.0575  0.0723 -0.4187
31895W        W47789   5.477   2.956   0.674  0.2099  0.2006 -0.0381
31896W        W47790   0.270  16.411   4.082 -0.0944  0.0293  0.2159
31897W        W47791   7.356  13.577  12.601 -0.0413 -0.2514 -0.2913
31898W        W47792   9.622  12.345  12.682  0.2668  0.1043  0.1174
31899W        W47793  17.399   8.486   1.626  0.0632 -0.2498 -0.2401
31900W        W47794   4.705  13.745   0.800 -0.0229  0.0489  0.0513
31901W        W47795   7.545   6.818  11.314  0.0815  0.2747  0.1300
31902W        W47796   6.673  18.549   4.583 -0.2291 -0.0741 -0.3526
31903W        W47797  16.367   7.276   0.118  0.0336 -0.0374 -0.0229
31904W        W47798   3.569  17.876  14.352 -0.2101 -0.0096  0.2486
31905W        W47799   9.098   4.894  11.939  0.2026 -0.3261  0.1891
31906W        W47800  16.725   5.223  10.543 -0.2347  0.3104 -0.0677
31907W        W47801   1.748  16.053   3.625  0.1128  0.1325  0.0335
31908W        W47802   4.971  14.340  13.982  0.3471 -0.1424 -0.0684
31909W        W47803   6.999   6.405   3.846  0.2696  0.0677  0.0401
31910W        W47804  13.873  14.830   0.209 -0.3804  0.1186 -0.0722
31911W        W47805   7.492  16.762   4.271  0.1165 -0.0963  0.0462
31912W        W47806  14.201   5.231   4.952  0.2607 -0.0558  0.2034
31913W        W47807   2.804   5.651  11.558  0.0177 -0.0420  0.3206
31914W        W47808   8.036   9.750  12.491 -0.0057 -0.1001 -0.2842
31915W        W47809  11.164   9.018   1.761  0.1304  0.1643  0.0217
31916W        W47810   7.430   6.042  15.155 -0.3710 -0.3270 -0.2533
31917W        W47811  14.663  14.803   3.597  0.1794 -0.2708 -0.0986
31918W        W47812  18.554  10.890   4.440  0.1228  0.2003 -0.1438
31919W        W47813  10.801   0.149   3.676  0.3619  0.0094 -0.1390
31920W        W47814   0.593  15.972   5.595  0.1384  0.1847  0.1067
31921W        W47815   7.107   2.935   2.615 -0.0737  0.1308  0.3641
31922W        W47816  18.563  12.418   4.782 -0.0023  0.1653 -0.0420
31923W        W47817   9.973  10.645   0.238 -0.3573 -0.2693  0.0737
31924W        W47818   2.059   5.589   1.132  0.0697 -0.3645  0.2227
31925W        W47819   5.632  15.670   0.952 -0.0392 -0.0497  0.4823
31926W        W47820   1.624  16.071  11.095  0.0708 -0.0999  0.1360
31927W        W47821  16.515   4.261   2.383  0.1372  0.0701  0.0586
31928W        W47822  16.754  18.523   0.792  0.0261 -0.2647  0.1659
31929W        W47823   1.653   0.453   5.063 -0.1160  0.2089 -0.0158
31930W        W47824   4.955   4.093  10.784  0.0013 -0.1680 -0.1455
31931W        W47825  15.253  17.115  13.342  0.0332  0.1542 -0.0109
31932W        W47826   0.773   7.891   2.588  0.0083 -0.1590  0.0104
31933W        W47827   6.027  12.514   1.917  0.1576 -0.0682 -0.1715
31934W        W47828  11.130   9.384  14.963 -0.1006  0.1306  0.2578
31935W        W47829  18.555   4.600  10.731 -0.1638  0.0459  0.0091
31936W        W47830  17.663   4.101   1.883 -0.0857 -0.2083  0.0555
31937W        W47831   1.389  17.657   4.247  0.0183  0.2459  0.0868
31938W        W47832  18.407  12.648  11.977 -0.0884 -0.2888  0.1977
31939W        W47833   4.842   4.420  12.047 -0.2610  0.1126 -0.3734
31940W        W47834   7.626   3.784  13.194 -0.1771 -0.0876  0.3141
31941W        W47835   9.037  13.229   3.216 -0.1423  0.2663 -0.4292
31942W        W47836   2.246   4.885   0.601 -0.2225 -0.0714 -0.2080
31943W        W47837  12.438  18.224   2.017 -0.1241 -0.1216  0.0022
31944W        W47838  13.772  15.792   2.580 -0.2599  0.4060 -0.1128
31945W        W47839   2.506   7.356  15.209  0.1104 -0.1826 -0.1104
31946W        W47840   5.764   5.544  14.592 -0.1992  0.3219 -0.0014
31947W        W47841  12.740  13.518  13.010  0.0729  0.0391 -0.2598
31948W        W47842  11.744   2.666   0.187  0.0631  0.2313  0.0248
31949W        W47843  16.940  11.612  14.229 -0.1925 -0.1101 -0.1403
31950W        W47844   8.459   1.382   1.496  0.0920 -0.0613 -0.0007
31951W        W47845  13.659   5.861  14.219 -0.3116 -0.3691 -0.2457
31952W        W47846   3.498  10.770   4.007  0.3032 -0.1691 -0.2560
31953W        W47847   7.108   9.203  13.487  0.1778  0.1920  0.0224
31954W        W47848   7.150   2.106   2.536  0.0143 -0.1933  0.0895
31955W        W47849  13.073   2.230   2.692  0.1150  0.0368  0.2053
31956W        W47850   0.750   1.595   2.569  0.0349 -0.0492  0.4485
31957W        W47851  12.895  12.810  12.302  0.0709  0.4563  0.1402
31958W        W47852   4.894   4.900  15.289  0.0524  0.2523  0.3357
31959W        W47853   9.957  12.848  15.083 -0.0339 -0.0792  0.4164
31960W        W47854  10.091   2.797   9.555  0.2067 -0.1097 -0.0724
31961W        W47855   5.500  16.678  15.398  0.0774  0.0658 -0.3824
31962W        W47856   0.443   9.890  13.732 -0.3098 -0.1638 -0.1918
31963W        W47857  14.136  18.651  12.675 -0.2321  0.2820  0.0112
31964W        W47858  10.567  10.261  13.288 -0.0159  0.0123  0.6517
31965W        W47859  11.193   2.942  12.311 -0.3224 -0.0826 -0.1368
31966W        W47860   7.721   5.762  14.832 -0.0502 -0.0570 -0.0555
31967W        W47861   5.710   5.986   0.968  0.0290 -0.1730 -0.0871
31968W        W47862   5.926   7.583  14.638 -0.0397  0.0062 -0.3570
31969W        W47863  11.817   8.561   3.024 -0.2447  0.1234 -0.0387
31970W        W47864  13.624   9.887   2.120 -0.0997 -0.1572  0.1016
31971W        W47865   7.425   2.017   0.216 -0.0431 -0.0941 -0.1404
31972W        W47866  10.136   2.558   3.693  0.0578 -0.2062 -0.0227
31973W        W47867   8.489  17.673   1.694 -0.1109  0.1466  0.2217
31974W        W47868   3.346  17.576   1.782 -0.0481  0.1613 -0.2644
31975W        W47869  17.434   7.338  11.460  0.2559  0.0314 -0.0024
31976W        W47870  14.563  16.332   4.553 -0.1187 -0.1381 -0.0385
31977W        W47871   8.459  11.899   2.726  0.6612  0.0656  0.2706
31978W        W47872   1.068   8.909  14.743  0.1860 -0.0796 -0.0546
31979W        W47873   5.121   2.840  13.362  0.0647 -0.0468 -0.2536
31980W        W47874   8.920   4.186   2.278  0.2144  0.0150  0.1685
31981W        W47875  16.948   8.283  13.042  0.2349  0.1221 -0.0911
31982W        W47876   2.005   0.899   9.626 -0.1545  0.0460  0.0731
31983W        W47877  14.572  12.679   2.059 -0.3276  0.4362  0.1033
31984W        W47878   3.686   1.472   0.669 -0.0743  0.0975  0.0208
31985W        W47879  11.483   9.217   3.934  0.0112  0.0886 -0.0882
31986W        W47880  12.738  12.930   3.519  0.0619  0.0974 -0.1208
31987W        W47881   5.748  15.622   3.387 -0.0249 -0.2090 -0.1960
31988W        W47882  18.374  11.678  11.049  0.0130 -0.0292  0.1369
31989W        W47883  15.207  15.329  11.385 -0.1924 -0.1619  0.3122
31990W        W47884   6.056  18.423  14.892  0.2222 -0.0154  0.0766
31991W        W47885   8.484   8.116  14.017  0.2387 -0.2212  0.2686
31992W        W47886  11.217   5.726   2.974  0.2527 -0.0865 -0.1982
31993W        W47887  11.681   6.114   1.842 -0.0975  0.1846  0.0877
31994W        W47888  14.323   2.660   5.443 -0.0116 -0.1260  0.3606
31995W        W47889  14.842   9.401   4.939 -0.2179 -0.1931  0.1172
31996W        W47890   9.980   6.033   5.710 -0.2089  0.0297 -0.1079
31997W        W47891   2.279   2.634   0.094 -0.1178 -0.0925 -0.0775
31998W        W47892  14.097   9.236  12.552  0.0152 -0.2530  0.0957
31999W        W47893  13.753   6.862   1.858 -0.0018  0.2100  0.0420
32000W        W47894  15.547  15.670   3.026 -0.0622 -0.1621 -0.2015
32001W        W47895   5.826   7.951   1.238  0.1073 -0.4674 -0.1118
32002W        W47896   5.857  18.740   4.992 -0.0456 -0.2794 -0.2155
32003W        W47897   7.706   2.273  13.583  0.0442 -0.0300 -0.0005
32004W        W47898  10.461  14.542  11.579 -0.1432 -0.2190  0.2079
32005W        W47899   2.944   9.828   1.616 -0.0033  0.1386  0.2553
32006W        W47900   0.400   4.667   0.925 -0.2728  0.5208 -0.0830
32007W        W47901  10.275  13.005   5.379  0.1861  0.1510 -0.2158
32008W        W47902   7.306   2.620   4.395 -0.1677 -0.2841 -0.1064
32009W        W47903  16.059  14.606   4.574  0.0117 -0.2464 -0.2160
32010W        W47904  13.012   8.856  13.338  0.0412  0.0855  0.1263
32011W        W47905  16.093   9.255  13.849  0.2002 -0.0892  0.1829
32012W        W47906   0.559  16.038  11.219  0.1471 -0.2368  0.0910
32013W        W47907   2.484   6.517  15.235 -0.1901 -0.4279  0.1609
32014W        W47908   2.693   7.992   0.015 -0.3219  0.1051  0.1642
32015W        W47909   8.986  16.404  14.664 -0.1909 -0.0925  0.1271
32016W        W47910   7.201  11.521  12.816  0.0334 -0.0559  0.0945
32017W        W47911   5.217  17.126  15.357 -0.2412  0.0726 -0.2666
32018W        W47912   5.032  11.866  14.511 -0.4092 -0.1089 -0.1125
32019W        W47913  16.778  12.768  12.431  0.0314  0.2122 -0.0615
32020W        W47914  10.490  18.541   2.105 -0.2106 -0.0144  0.1516
32021W        W47915  14.589  13.989   0.302  0.1582  0.1553  0.1940
32022W        W47916   6.312   4.480  11.507  0.1852  0.0774  0.1225
32023W        W47917   8.397  13.473  15.180  0.1686 -0.1471  0.2678
32024W        W47918   6.006   9.085   4.370 -0.1124 -0.1871 -0.0157
32025W        W47919   2.356   7.491   5.079 -0.0442 -0.1601  0.2990
32026W        W47920   0.593   6.859  15.264  0.0171 -0.0654  0.1755
32027W        W47921   9.460  16.164  11.576  0.1537 -0.1421  0.2578
32028W        W47922  10.201  17.819   3.708 -0.3718  0.1810 -0.3769
32029W        W47923   7.781   8.270  12.697  0.0504  0.4546  0.0715
32030W        W47924  18.685  16.341   5.039 -0.0314 -0.0245  0.1025
32031W        W47925   0.085  10.230   3.125  0.0552 -0.1768  0.1450
32032W        W47926   1.332  16.962   2.823 -0.0110 -0.3719 -0.1509
32033W        W47927   4.660   5.304   1.551 -0.0091  0.2141 -0.0141
32034W        W47928   4.350   8.758   3.776 -0.1244 -0.3104  0.0026
32035W        W47929  14.281   0.605  14.789 -0.4095  0.2123 -0.1969
32036W        W47930  12.872  12.578  11.828 -0.0169 -0.2147 -0.2609
32037W        W47931   0.841   5.886   2.895 -0.0116 -0.1089 -0.0722
32038W        W47932  10.305   9.155   5.570  0.1731 -0.1526  0.1481
32039W        W47933  17.332   5.333  13.470  0.0072  0.2302  0.1566
32040W        W47934  16.290  14.853   2.182  0.2909 -0.1194 -0.0242
32041W        W47935   6.442  15.283  14.153  0.3719  0.1013  0.1475
32042W        W47936  17.762   6.607  12.793 -0.3289  0.1483 -0.0336
32043W        W47937  12.531  14.580   5.088  0.0450  0.0988 -0.1624
32044W        W47938  13.584  14.329   2.366 -0.1790  0.1954 -0.2846
32045W        W47939  11.158  13.546  11.011  0.1934 -0.0322 -0.0748
32046W        W47940   7.767   6.291   3.131 -0.1964 -0.1789 -0.3074
32047W        W47941   1.429   4.206  12.190  0.1037  0.2492  0.0606
32048W        W47942   0.656  10.647  11.273 -0.1761 -0.2352 -0.2965
32049W        W47943  12.711  10.678  14.184 -0.0308 -0.0489  0.0443
32050W        W47944   5.702  14.678  12.739 -0.1707  0.2469  0.3473
32051W        W47945  18.618  10.501  13.377  0.0483 -0.2104 -0.0204
32052W        W47946  14.265  18.554  15.384  0.2908  0.3120 -0.1913
32053W        W47947   2.020  10.648   2.790 -0.0052  0.0085  0.1250
32054W        W47948  15.315  14.800  14.298 -0.0256 -0.0761 -0.1499
32055W        W47949   7.284   3.904  13.961 -0.0597 -0.1192 -0.0115
32056W        W47950   2.582  10.113   4.779 -0.0779  0.2352 -0.0861
32057W        W47951   2.994   0.123   1.503 -0.0049 -0.1557  0.0504
32058W        W47952   6.552  14.095  11.489 -0.2374 -0.4116 -0.2353
32059W        W47953   8.036  17.440  12.189 -0.2325  0.0705 -0.3413
32060W        W47954  10.568  12.995  14.590 -0.0785 -0.3325 -0.0150
32061W        W47955  13.731   1.613  13.672  0.0090 -0.1246  0.0093
32062W        W47956  13.333  13.090   1.342 -0.0568 -0.1256 -0.2033
32063W        W47957  14.788   3.310  15.544  0.0725 -0.0453 -0.0682
32064W        W47958  16.969   8.300   2.771 -0.0151 -0.0528 -0.2601
32065W        W47959  13.414  11.637  11.865  0.1330 -0.0498 -0.0127
32066W        W47960   4.704  14.628  14.232  0.2201 -0.1264  0.1491
32067W        W47961   1.835   7.562  13.649 -0.1228 -0.1249 -0.0535
32068W        W47962   2.197  13.155   3.408 -0.0713  0.1158  0.1347
32069W        W47963   5.745   8.231  13.310  0.0797 -0.1107 -0.3887
32070W        W47964  17.195   9.208   5.457 -0.0798 -0.2107 -0.0238
32071W        W47965   2.598   7.966  14.535 -0.3130  0.0325 -0.1334
32072W        W47966   0.704   9.072  11.129  0.0202  0.0051  0.0651
32073W        W47967  13.685  11.071   2.293 -0.1325 -0.3068 -0.0320
32074W        W47968   8.749   6.362  11.462 -0.0974  0.1148 -0.1691
32075W        W47969   7.861   1.106   4.367 -0.5276 -0.1283  0.0481
32076W        W47970  13.836  11.586  11.209  0.0474 -0.1273  0.1616
32077W        W47971  17.148   5.775  15.401  0.0314 -0.1075  0.0153
32078W        W47972  10.367  13.220  12.504  0.0515  0.2323 -0.1622
32079W        W47973  13.263  18.487  10.796 -0.2752  0.0967 -0.3728
32080W        W47974   7.529  18.219  11.465 -0.3522 -0.1211 -0.1924
32081W        W47975  15.325   5.884  11.846 -0.1679 -0.0275  0.0065
32082W        W47976   8.486  18.086  12.128  0.5233 -0.0935 -0.0584
32083W        W47977  11.003   6.967  15.581 -0.0462 -0.0571 -0.0283
32084W        W47978  17.299  18.535   4.888 -0.0618 -0.1103 -0.2672
32085W        W47979   4.749   9.976   3.328  0.0879  0.1141  0.1940
32086W        W47980   2.198  17.403   0.251 -0.3167 -0.0856 -0.2932
32087W        W47981   8.773  18.553  13.015 -0.0549 -0.1010 -0.1827
32088W        W47982   3.662   9.619  15.432  0.1443  0.1662  0.2503
32089W        W47983   9.885  18.086  12.771  0.0078 -0.0067  0.3654
32090W        W47984   3.464  18.161  11.438  0.2877 -0.1556  0.1199
32091W        W47985  14.763  15.879   2.678  0.0672 -0.3631 -0.0051
32092W        W47986   2.490  16.131   1.111 -0.1882  0.0319  0.0583
32093W        W47987   4.165   4.766  11.134 -0.2237  0.1451 -0.2241
32094W        W47988  12.267   4.455   0.329 -0.1314  0.3152  0.0345
32095W        W47989   1.303   9.268   5.511  0.1095 -0.0763 -0.3437
32096W        W47990  17.794   3.076   3.304 -0.1868  0.2032  0.0749
32097W        W47991  18.138  13.106   4.065 -0.0771 -0.0865 -0.0958
32098W        W47992   4.183  17.972   0.403  0.1617  0.0624 -0.0389
32099W        W47993   8.024   7.803  14.003 -0.0790 -0.1392 -0.0563
32100W        W47994  17.965   2.647   2.482  0.1536  0.2151 -0.0837
32101W        W47995   1.181   2.143  14.533  0.2402 -0.0532 -0.1347
32102W        W47996   0.321   0.285   1.314  0.0992 -0.1351 -0.0928
32103W        W47997   2.571   0.908   2.182 -0.0183 -0.1862  0.2416
32104W        W47998  12.825   5.877  13.183  0.3168  0.0956  0.0617
32105W        W47999  15.510   4.868  12.667 -0.0022  0.1305 -0.0158
32106W        W48000  10.859  17.772   0.962 -0.1344  0.2443 -0.0260
32107W        W48001   4.805  17.160  11.258  0.0056  0.1418  0.0983
32108W        W48002  15.295   9.177   1.759  0.1176 -0.0198 -0.1558
32109W        W48003   1.848  17.040   0.291 -0.0139 -0.4066 -0.0022
32110W        W48004  16.922  14.683   0.478 -0.3784 -0.1618  0.3889
32111W        W48005   5.753  18.544  15.247 -0.1312  0.2085 -0.0577
32112W        W48006   4.859   3.677  11.184 -0.0689 -0.1515 -0.0179
32113W        W48007   3.036  18.077  10.740  0.0193  0.1759  0.0811
32114W        W48008  15.196  17.481  15.048  0.1123 -0.1122  0.2943
32115W        W48009  14.906   1.503   2.198 -0.0792 -0.0096 -0.4674
32116W        W48010   4.357   7.421   5.382 -0.2851 -0.1331 -0.0756
32117W        W48011  14.449  18.336   2.091 -0.0145 -0.3238 -0.1291
32118W        W48012  11.688  11.288   4.664 -0.2854  0.0975 -0.3800
32119W        W48013  16.271   4.938  11.121 -0.1337  0.0075 -0.1884
32120W        W48014   7.268   7.126  11.611  0.1408  0.1739  0.0709
32121W        W48015   4.361  12.651  12.414  0.0682 -0.0484 -0.1489
32122W        W48016  10.582  10.742   6.145  0.2935  0.3767  0.5177
32123W        W48017  10.871   5.875   1.684 -0.0781 -0.0142  0.2044
32124W        W48018   5.865  14.447  11.892  0.0420 -0.0301 -0.1336
32125W        W48019  15.523   6.924   2.450 -0.2472  0.1908 -0.1651
32126W        W48020   7.979  16.560   0.329 -0.0412 -0.0030 -0.2397
32127W        W48021  15.229  15.719  11.035 -0.2120  0.4053 -0.0202
32128W        W48022   5.920   2.453  11.668  0.0588  0.0890  0.0767
32129W        W48023   9.146   0.178  12.910  0.2242  0.1321  0.0460
32130W        W48024  11.220  16.526  11.238 -0.0739  0.2386 -0.0620
32131W        W48025  13.928   3.516   5.054 -0.1007  0.1077 -0.3764
32132W        W48026   8.696  11.041   1.490  0.2817 -0.0120 -0.0905
32133W        W48027  18.725  13.089  15.523  0.0636 -0.3132  0.2306
32134W        W48028  18.650   0.604   3.844  0.1807 -0.1863 -0.1307
32135W        W48029  17.257   5.641   5.655 -0.0236  0.0100 -0.2423
32136W        W48030  12.084  10.439   2.820  0.3086  0.1197  0.1086
32137W        W48031   2.686  11.733   1.415  0.0414  0.1639  0.1772
32138W        W48032  12.472  12.373   5.035 -0.0080 -0.1547  0.1008
32139W        W48033   0.361   2.375  13.187  0.1174 -0.3330 -0.1287
32140W        W48034   5.725  17.250  12.947 -0.3181 -0.2894 -0.2908
32141W        W48035   1.304  11.582  14.331 -0.0792  0.2977 -0.2581
32142W        W48036  16.064  17.407  13.228 -0.2823 -0.2033 -0.1251
32143W        W48037   8.403  12.099   0.633  0.0358  0.2329 -0.2249
32144W        W48038  12.972  12.844   4.492  0.0538  0.1139  0.0603
32145W        W48039   5.036   8.940  13.708 -0.0456 -0.0090  0.1147
32146W        W48040  15.238  10.309   4.530 -0.1450 -0.0729 -0.2665
32147W        W48041  10.341  17.981  13.159 -0.0222 -0.2777  0.0959
32148W        W48042   4.598   3.001   1.282 -0.1045 -0.0094 -0.2502
32149W        W48043   9.249  13.170   2.021  0.1132 -0.1372  0.0258
32150W        W48044  18.623   9.811   0.213  0.4846 -0.0992 -0.0278
32151W        W48045   7.074   9.636  12.583  0.0689 -0.0771 -0.1646
32152W        W48046   6.742  15.152   0.049 -0.4863  0.0060 -0.1510
32153W        W48047  11.419  12.429   1.770 -0.0774 -0.0320  0.1436
32154W        W48048  14.103   3.763  11.514  0.3364 -0.2170  0.0649
32155W        W48049   1.685  11.086   4.677 -0.1388 -0.0404 -0.0030
32156W        W48050  15.111  15.884   1.172 -0.0214 -0.0545  0.1713
32157W        W48051   7.346  18.026  13.743 -0.1498 -0.3119 -0.2429
32158W        W48052   9.695   3.984   1.112  0.0193 -0.0681  0.3279
32159W        W48053   8.519   5.235   3.223 -0.0598  0.6106  0.0368
32160W        W48054  14.263  11.396  11.401  0.3539 -0.0134 -0.3391
32161W        W48055   9.053  17.945   3.114 -0.1637  0.0818 -0.1053
32162W        W48056   0.938   5.620   0.975 -0.2797  0.0081 -0.3771
32163W        W48057   4.686  18.673   1.269 -0.1086 -0.0749  0.5508
32164W        W48058   6.589   4.113   1.317  0.0348 -0.0847 -0.3535
32165W        W48059   8.749   2.649   4.415  0.0952  0.1146  0.0035
32166W        W48060   4.074  15.996   4.982 -0.2354  0.0735 -0.1241
32167W        W48061  12.101   9.953   4.812 -0.4393  0.5314 -0.2227
32168W        W48062  11.025  17.272  14.532  0.1885  0.0246  0.0648
32169W        W48063   8.690   9.439  11.011 -0.0205  0.0745 -0.0340
32170W        W48064  11.116   9.634  12.426 -0.0864  0.0388  0.0803
32171W        W48065   3.127   0.634  11.798  0.2238  0.2917 -0.2283
32172W        W48066   3.133   5.285  14.887  0.2265 -0.1512 -0.3160
32173W        W48067   7.938   3.057   1.648  0.1527 -0.0264 -0.1340
32174W        W48068  12.561  16.831   5.400 -0.1978  0.1115 -0.4042
32175W        W48069  12.139  16.931  11.292  0.0087 -0.0309 -0.0226
32176W        W48070   7.740   4.529   2.084 -0.2488  0.1338 -0.4208
32177W        W48071  16.603   7.754   1.018 -0.1936 -0.4743 -0.5114
32178W        W48072   1.244  17.400   4.644  0.0912 -0.0383  0.0684
32179W        W48073   4.670  10.624  15.127 -0.0060  0.1507  0.0398
32180W        W48074   5.718  13.864   1.904  0.2865 -0.1712  0.0511
32181W        W48075   7.698  14.623  14.557 -0.0690  0.0580 -0.0223
32182W        W48076   2.395  12.070  11.813  0.1703  0.3056 -0.0415
32183W        W48077   9.464  17.959  12.252  0.1914 -0.0921 -0.2466
32184W        W48078   1.468   4.235  10.790  0.0159  0.0301  0.2026
32185W        W48079   1.137   6.546  14.490  0.0871  0.0831  0.1202
32186W        W48080   6.959  14.472  13.483 -0.3336  0.1994 -0.0450
32187W        W48081  18.160   6.857   4.902 -0.4483 -0.2120  0.1465
32188W        W48082   4.975  12.116  14.000  0.0494  0.0103 -0.0179
32189W        W48083   6.897   4.140   2.454  0.0138 -0.0920 -0.0650
32190W        W48084   5.757   6.649  13.605  0.1357  0.2986  0.1089
32191W        W48085   3.823   7.799   2.618 -0.0395 -0.0146 -0.0554
32192W        W48086   8.807   4.590  10.732  0.1180  0.1445  0.3210
32193W        W48087  14.503   7.259   4.479  0.2545 -0.2003  0.3181
32194W        W48088   8.295   9.449   2.869  0.4033  0.1861 -0.2275
32195W        W48089   0.689   7.832  14.494 -0.2423  0.2616 -0.0741
32196W        W48090  16.069   3.420  11.636 -0.1493 -0.0182  0.0668
32197W        W48091   0.943   1.752   4.256 -0.0978 -0.0463  0.1745
32198W        W48092   6.886   4.986   4.169  0.2108  0.2976  0.1072
32199W        W48093   3.924  10.803   3.668  0.0022  0.1315  0.2635
32200W        W48094  12.095  14.160  13.020 -0.0517  0.3278  0.4433
32201W        W48095  10.555  17.221  14.347 -0.4006 -0.3281 -0.1296
32202W        W48096   3.342  12.269  11.480 -0.0600 -0.1755 -0.0362
32203W        W48097  14.491  15.782  11.873  0.1482 -0.3227  0.1099
32204W        W48098  13.639  17.507   1.779  0.0145  0.0833  0.1743
32205W        W48099  18.426  18.035   5.455 -0.2561 -0.0480  0.1623
32206W        W48100   4.171  15.200   3.588 -0.1008 -0.0102 -0.0296
32207W        W48101  13.014  11.150  13.959  0.1893  0.1054 -0.2850
32208W        W48102   9.894   0.899   0.351  0.0282 -0.2154  0.1197
32209W        W48103  16.991  13.552  15.539  0.0097 -0.0770 -0.3872
32210W        W48104   6.705  17.445   3.110 -0.0099  0.0593  0.1886
32211W        W48105  11.917   9.617  14.406 -0.1166 -0.0537  0.0412
32212W        W48106  15.435  17.862   3.409 -0.0043  0.5342  0.2627
32213W        W48107  16.549  17.070   3.268  0.0339 -0.1046  0.0310
32214W        W48108  16.265   7.773   0.194  0.2640 -0.0019  0.1337
32215W        W48109  11.025   9.643   2.284  0.0545  0.2488 -0.2291
32216W        W48110  16.484   7.761  15.282  0.2267 -0.0935  0.0871
32217W        W48111  18.190   2.229  13.280 -0.3628 -0.0279 -0.1242
32218W        W48112   4.079   3.234   2.951  0.1565 -0.3289 -0.0835
32219W        W48113   5.409   3.168  15.471  0.0134  0.0150  0.0198
32220W        W48114  18.657   9.960  14.590 -0.0170 -0.0179  0.2110
32221W        W48115   0.297  12.559  11.653 -0.0788  0.0507 -0.0594
32222W        W48116   0.266  11.654   2.858 -0.1324  0.0917 -0.1453
32223W        W48117  12.668   1.621  13.907 -0.0684  0.1376  0.1620
32224W        W48118  12.529   9.739   0.039  0.1491  0.0643 -0.1267
32225W        W48119   8.094   5.095   3.021 -0.1838 -0.0976 -0.1367
32226W        W48120   8.917  10.738   0.525 -0.0218  0.0251 -0.3004
32227W        W48121  15.608   8.296  11.988  0.2791  0.1707  0.2917
32228W        W48122  14.939   0.053  14.625 -0.0415  0.0355  0.1529
32229W        W48123  13.256  10.892   5.131 -0.2681 -0.2391 -0.1733
32230W        W48124  16.016  11.514  13.884 -0.0754  0.0276  0.1632
32231W        W48125  12.511   2.401   5.127  0.2966  0.2305 -0.0281
32232W        W48126  10.748   9.335   1.989  0.4983 -0.0246  0.2094
32233W        W48127   4.575   2.941   4.492  0.3197 -0.0521  0.3680
32234W        W48128  15.041  13.136   0.607 -0.0212 -0.1173 -0.2293
32235W        W48129   1.673  10.766  11.056  0.0711  0.1593  0.0607
32236W        W48130   1.922  18.148  13.552  0.0755  0.0533 -0.0168
32237W        W48131   1.747   5.952   4.334  0.0304 -0.2392 -0.2024
32238W        W48132   4.379  13.484   3.190 -0.1888  0.2012  0.2152
32239W        W48133  12.281  12.334  14.405 -0.0882 -0.1007 -0.3480
32240W        W48134  12.442   1.494  11.645 -0.2275  0.0573  0.0738
32241W        W48135  12.172   6.696  14.814 -0.1013 -0.0639 -0.0450
32242W        W48136  11.367   4.540  14.257 -0.0189 -0.0894  0.0423
32243W        W48137  13.866  14.238   4.650 -0.1045 -0.2353 -0.0940
32244W        W48138   7.645   4.510   3.171 -0.1044  0.0075 -0.1736
32245W        W48139   5.950   7.885  12.055 -0.1692 -0.1318 -0.1744
32246W        W48140   2.958  11.562   1.899  0.0846  0.1235 -0.0363
32247W        W48141  13.152  14.797   3.214  0.0801 -0.1649 -0.1013
32248W        W48142   4.117  14.768  12.908  0.1126 -0.1246 -0.0072
32249W        W48143   0.060  15.651   1.928  0.0994 -0.1817  0.1188
32250W        W48144  10.511  15.728  10.661 -0.3070  0.0453  0.1929
32251W        W48145  15.813  14.226   6.276 -0.0049  0.1786  0.1103
32252W        W48146   4.224   5.794  11.200 -0.3886  0.0329  0.0178
32253W        W48147  14.757  18.330   9.831  0.5373 -0.1395  0.1439
32254W        W48148   8.980  17.850  12.026  0.0925  0.0566 -0.3224
32255W        W48149   7.121   1.278  13.459  0.1958  0.2661  0.0919
32256W        W48150  14.430   4.299  13.812 -0.2119 -0.3199  0.3019
32257W        W48151   2.952   7.223  15.496 -0.0401  0.1371  0.1491
32258W        W48152  14.641  13.112   1.524  0.0069 -0.0429 -0.0669
32259W        W48153  10.156  15.834   1.924 -0.1265  0.0360 -0.2035
32260W        W48154   9.684  16.803  12.351 -0.2313 -0.0763 -0.0290
32261W        W48155   8.052  15.048   2.416  0.1590  0.0968 -0.3264
32262W        W48156  14.693   0.825  14.172 -0.0734  0.1009  0.1869
32263W        W48157  11.995   3.511  12.411 -0.1562  0.1813 -0.2698
32264W        W48158   7.627   4.900   2.731  0.1095 -0.0575  0.0190
32265W        W48159  14.453   2.130   3.636  0.2187 -0.2230 -0.2898
32266W        W48160  13.434   8.887  14.097 -0.1633 -0.2856 -0.2313
32267W        W48161  10.970  12.527   1.599  0.0623  0.0517 -0.3691
32268W        W48162  13.606  10.445   5.082 -0.0068  0.3197 -0.0864
32269W        W48163   8.684  12.740  11.980  0.2157 -0.0196  0.0117
32270W        W48164   0.659  14.589   3.611  0.0387 -0.0986  0.1392
32271W        W48165   0.113   7.747   3.741 -0.3458 -0.0111  0.4943
32272W        W48166  13.714  10.965  11.843  0.1615 -0.1235  0.0671
32273W        W48167   6.846   7.565  14.450 -0.1344  0.1830  0.1447
32274W        W48168   0.426  15.655   0.460 -0.3034 -0.2450 -0.4183
32275W        W48169   1.357  16.674  13.254 -0.1716  0.2321  0.0055
32276W        W48170   4.790   6.040   3.989  0.1357  0.0869 -0.0913
32277W        W48171  14.084   0.847  10.661 -0.0901 -0.2095  0.2190
32278W        W48172   0.133  10.210   4.313  0.0435  0.0577 -0.0774
32279W        W48173  14.766  17.346  14.228  0.1527  0.2577  0.0346
32280W        W48174   4.064   4.164   3.669 -0.3561 -0.0015 -0.1983
32281W        W48175  14.508   3.547  15.197  0.0950  0.0719 -0.2647
32282W        W48176  15.324  10.314   0.902 -0.1309 -0.1078 -0.0850
32283W        W48177   0.917   7.083  12.838 -0.2609 -0.1709 -0.2039
32284W        W48178   6.517  12.414   0.453  0.1257  0.4796 -0.2649
32285W        W48179  13.987   0.085   4.058 -0.0162 -0.3016 -0.0268
32286W        W48180   3.344   9.021  13.994 -0.0559  0.2745 -0.1133
32287W        W48181  13.290  18.546  15.441  0.1935 -0.1040  0.0597
32288W        W48182  14.578   2.201   0.109  0.1084  0.1218  0.1353
32289W        W48183  14.097   0.678   1.170 -0.0912 -0.2458 -0.1427
32290W        W48184   8.414   3.312  14.051  0.3233  0.1688 -0.3664
32291W        W48185  12.614   9.839   4.606 -0.0694 -0.2177  0.0009
32292W        W48186   2.010  18.471   1.734 -0.2401 -0.0119 -0.1352
32293W        W48187  12.561   5.807  14.389  0.1452  0.1037 -0.1261
32294W        W48188   1.999  13.761  12.832 -0.2848 -0.2831  0.0277
32295W        W48189   1.802   6.838   0.104  0.1722 -0.3071  0.1153
32296W        W48190  13.963   3.887   3.589 -0.1336 -0.2273 -0.3395
32297W        W48191  13.552   8.734   2.235 -0.1466  0.1329  0.2201
32298W        W48192  17.577  10.292   4.425 -0.1849  0.1592  0.0331
32299W        W48193   0.441  15.998   5.082  0.2504 -0.2179  0.0529
32300W        W48194   6.616   4.108  11.465  0.0726  0.1543 -0.1255
32301W        W48195   6.875   4.772  15.366 -0.0421  0.1295 -0.0493
32302W        W48196   5.622  13.247   1.793  0.2214 -0.0628 -0.0340
32303W        W48197   2.433   4.168  11.076 -0.0424  0.1938  0.2005
32304W        W48198  15.811   9.800   3.188 -0.2743  0.1470  0.1201
32305W        W48199  18.445  17.021   2.953  0.0709  0.4904 -0.6033
32306W        W48200  10.351  14.879  12.455  0.2512 -0.0370  0.1539
32307W        W48201   7.197   2.948   1.327 -0.3254 -0.0545 -0.1327
32308W        W48202  17.566  10.922   1.744 -0.2622 -0.1200 -0.2838
32309W        W48203  15.136  16.086   5.296  0.0757  0.0532  0.3130
32310W        W48204  15.641  11.725  13.648 -0.1685 -0.1868 -0.0444
32311W        W48205  15.887  16.466  14.316  0.1396 -0.0065 -0.0979
32312W        W48206  13.130   2.220  13.026  0.1033 -0.3023 -0.1748
32313W        W48207  15.913  18.704   0.617 -0.0012  0.2073 -0.0235
32314W        W48208   8.296   7.913   5.358 -0.2068 -0.1432 -0.0410
32315W        W48209  12.660  10.505  12.025  0.0881  0.1403 -0.0760
32316W        W48210  10.913  14.529  11.962 -0.1165 -0.0094  0.0214
32317W        W48211  16.018   1.454  14.292  0.1589  0.0369  0.2135
32318W        W48212   9.213   6.701   2.787  0.0805  0.2836  0.1702
32319W        W48213  14.302   7.795   4.221  0.1745  0.3432  0.0173
32320W        W48214  16.516  13.818   4.901  0.0845  0.0209  0.2425
32321W        W48215  17.051  17.161  15.149  0.1075  0.0096  0.0379
32322W        W48216   8.939   2.989   5.220 -0.0342  0.0997  0.0869
32323W        W48217  15.523  17.648   2.332  0.0226  0.0171 -0.0993
32324W        W48218  14.130   9.389  11.951 -0.4238 -0.1925  0.0229
32325W        W48219   9.496   6.435  12.417  0.1971 -0.0761 -0.0225
32326W        W48220   0.164  18.600  11.998  0.0373  0.0410  0.0029
32327W        W48221  10.475   8.652   3.044  0.0999 -0.2930  0.2366
32328W        W48222   8.683   1.881  12.651  0.1057  0.1077 -0.2248
32329W        W48223   5.462  16.088  11.728 -0.0910 -0.1069 -0.1906
32330W        W48224   6.000   3.268   2.837  0.1416  0.0474 -0.1514
32331W        W48225   3.493   6.890  10.012 -0.1032  0.0432 -0.0472
32332W        W48226   8.704  17.023   0.308  0.3173  0.0041 -0.0287
32333W        W48227  18.421  17.036  15.017  0.0581  0.2878 -0.0022
32334W        W48228  10.449   0.247   4.502 -0.0953 -0.1249  0.0371
32335W        W48229   6.587  16.184  10.721 -0.1349 -0.1866 -0.0846
32336W        W48230  18.109  13.388  10.577  0.0379  0.0923 -0.1267
32337W        W48231  11.458  15.570   0.688 -0.1128 -0.1224  0.2783
32338W        W48232   8.480   7.224  11.131  0.1075  0.0970 -0.3424
32339W        W48233   4.260   6.155   3.800 -0.3191 -0.0858 -0.3555
32340W        W48234  10.459  12.322   3.576  0.1054 -0.2847  0.1264
32341W        W48235  16.186  17.758   3.868  0.0681  0.2205  0.0422
32342W        W48236   3.990   4.401   4.110  0.0415  0.1432 -0.1927
32343W        W48237   9.578   2.399  12.820 -0.1640  0.0265  0.2515
32344W        W48238   4.349  13.189   2.107  0.0597 -0.1258  0.0195
32345W        W48239  14.407   8.538  12.762 -0.0373 -0.2213  0.3755
32346W        W48240   4.551  16.747   2.711 -0.0422 -0.4519 -0.0118
32347W        W48241   1.842  12.768   3.137 -0.0026 -0.1848 -0.0589
32348W        W48242  13.748   7.245   4.858  0.1107  0.1244 -0.1769
32349W        W48243   2.701   0.932  13.772 -0.0495  0.0393  0.2744
32350W        W48244  17.640  14.700   0.302  0.0056 -0.0929 -0.1747
32351W        W48245  13.033  14.997   4.031  0.0255  0.0720  0.2060
32352W        W48246   8.066  13.120  12.007  0.0464 -0.0495  0.0071
32353W        W48247   7.447  13.197   5.228 -0.0822  0.0417  0.0043
32354W        W48248   9.528   8.394  13.142 -0.1199 -0.0045  0.0692
32355W        W48249   9.034  13.215  13.396  0.1943  0.1214  0.0425
32356W        W48250   7.960   8.327  13.816 -0.0630  0.3309  0.1086
32357W        W48251  12.238   2.558   2.388  0.3410 -0.0827  0.1247
32358W        W48252   3.550  14.826  10.997  0.1159 -0.1586  0.0589
32359W        W48253  13.903   1.064  14.614  0.0110  0.0876  0.0991
32360W        W48254  14.019  12.198   4.008  0.0586  0.1158 -0.1124
32361W        W48255   9.432  13.775   1.194  0.2212  0.1153  0.0296
32362W        W48256   9.477  14.275  12.284  0.3749  0.2267  0.4849
32363W        W48257   1.875  14.127   4.177  0.0412  0.0382  0.2782
32364W        W48258   7.425  17.614   1.336  0.0104  0.1541 -0.0835
32365W        W48259  15.459  16.703  14.155 -0.0030  0.2704 -0.2344
32366W        W48260   5.106  12.108   0.503  0.1259  0.1626 -0.1650
32367W        W48261   7.688  14.275   2.338  0.1202 -0.1922 -0.0273
32368W        W48262   1.324   1.197  13.345 -0.0669  0.1250  0.1730
32369W        W48263   3.540   5.471  14.659 -0.0626  0.3672 -0.2194
32370W        W48264   4.036   6.883   1.450  0.0272 -0.0059  0.2572
32371W        W48265   5.372   8.086   1.015 -0.2367  0.0536  0.0124
32372W        W48266   5.753   1.590   3.895 -0.0209 -0.0787 -0.1123
32373W        W48267  11.373   1.610  14.572  0.3343 -0.1014 -0.4760
32374W        W48268  17.692   0.431  15.270 -0.1976 -0.1195  0.2568
32375W        W48269  15.736  14.331   4.156  0.3841 -0.0995  0.1931
32376W        W48270  10.641  13.607   2.009 -0.1633 -0.1247  0.1537
32377W        W48271   7.545   9.824   1.023 -0.0403  0.1065 -0.0658
32378W        W48272   4.937  11.780   4.566  0.2966  0.0669 -0.0598
32379W        W48273  14.907  16.272   0.408 -0.4033 -0.0142 -0.2036
32380W        W48274   4.380  14.136   4.405  0.2691  0.0666 -0.2523
32381W        W48275  13.379  18.386  12.048  0.0337  0.1839  0.1386
32382W        W48276  11.417   4.684   1.318  0.3037 -0.1033  0.0233
32383W        W48277  10.902   5.292  13.949  0.1943 -0.0436 -0.1573
32384W        W48278   8.563  10.751   4.328 -0.1701 -0.3937  0.2032
32385W        W48279   4.990  16.651  11.001 -0.3023 -0.1383 -0.2884
32386W        W48280   5.934  15.942   2.859 -0.1132 -0.2207  0.0049
32387W        W48281  17.566  17.491   2.088  0.0271 -0.1928  0.0753
32388W        W48282   0.042  16.513   0.963 -0.0825 -0.2401  0.0531
32389W        W48283   2.082  17.098  15.471  0.1569  0.0422  0.0234
32390W        W48284   4.438   7.873  11.031 -0.0677 -0.2615 -0.0329
32391W        W48285   3.709   8.633   4.899 -0.1408  0.0010 -0.0383
32392W        W48286  11.814   7.621  14.768  0.1543 -0.2256 -0.0541
32393W        W48287   5.225   1.245  12.627 -0.0580  0.2204 -0.2611
32394W        W48288   9.693   2.396   3.519 -0.0698 -0.1715  0.3711
32395W        W48289  16.155   9.510   3.688 -0.2778 -0.2917 -0.0868
32396W        W48290  11.522   5.444  11.379  0.0530 -0.1702  0.1036
32397W        W48291   6.500   6.334   5.349 -0.3640  0.0365 -0.1531
32398W        W48292   0.590  12.628   0.558  0.0606  0.5609 -0.1831
32399W        W48293  17.023  12.021  13.897  0.0701 -0.1409  0.1451
32400W        W48294   9.190   1.867  14.910  0.2074 -0.0837  0.1259
32401W        W48295   3.979   9.906  13.066 -0.1880  0.1472  0.2377
32402W        W48296  17.810   2.686  13.449 -0.2064 -0.3174  0.2957
32403W        W48297  10.156   5.061   2.387 -0.1203 -0.0389 -0.1224
32404W        W48298   2.842   1.413  11.202 -0.0330  0.0690 -0.2617
32405W        W48299   8.270  16.499  13.491 -0.1115  0.3548 -0.0615
32406W        W48300  10.178  12.863   2.024  0.1584 -0.0540 -0.1040
32407ION     NA48301  15.383   8.007   2.256 -0.2036  0.2218 -0.1516
32408ION     NA48302  16.605  13.066  12.857  0.1890 -0.0072  0.3248
32409ION     NA48303   3.806   7.060  10.397 -0.0692  0.1104 -0.0838
32410ION     NA48304  14.399  17.878  10.152  0.4032  0.0051 -0.1276
32411ION     NA48305  13.865   3.636  10.299 -0.4107 -0.0482 -0.1825
32412ION     NA48306  12.722  14.247  10.396 -0.0732  0.1347  0.2227
32413ION     NA48307   4.823   4.709   9.876 -0.0693  0.0349 -0.0096
32414ION     NA48308   4.397   8.847  15.028  0.2426 -0.1569  0.0303
32415ION     NA48309  13.616  15.117  10.479 -0.1771 -0.2196  0.0846
32416ION     NA48310   7.588   0.084  13.826  0.0686  0.1909  0.0651
32417ION     NA48311   2.781   0.590   9.875  0.0252  0.1931  0.1811
32418ION     NA48312   1.525   1.703  11.133 -0.1010 -0.1930 -0.0561
32419ION     NA48313  17.047  12.636  10.755 -0.1099 -0.3031 -0.1751
32420ION     NA48314   8.654   3.672   1.937 -0.0433  0.1806 -0.2649
32421ION     NA48315   5.948   9.528  13.036  0.0118  0.0387  0.0705
32422ION     NA48316  10.433  18.362  10.148 -0.0992 -0.1028  0.2059
32423ION     NA48317   2.826  13.798  10.017 -0.1018  0.3016  0.2642
32424ION     NA48318  13.400  10.912  10.370 -0.1184 -0.1865  0.2544
32425ION     NA48319   8.209   6.678  10.143 -0.0155 -0.2937  0.0781
32426ION     NA48320  15.260   7.086  10.703  0.0656  0.3515  0.1571
32427ION     NA48321   4.016  14.345   9.532  0.1301  0.1550 -0.1427
32428ION     NA48322   5.692  14.137  10.623  0.0768 -0.2518  0.0263
32429ION     NA48323   9.359   5.552  10.401  0.2244  0.0375  0.0464
32430ION     NA48324   8.157   2.817   5.677 -0.4374 -0.0192  0.1128
32431ION     NA48325   1.096  10.249  10.070  0.0985 -0.0486  0.0653
32432ION     NA48326  17.596   6.132  10.171 -0.0380  0.0229  0.2550
32433ION     NA48327  13.854  12.193  14.576  0.0630  0.1758  0.0947
32434ION     NA48328   2.546  15.314   4.978 -0.0068 -0.1618  0.5203
32435ION     NA48329   0.759   9.299   9.996  0.0346 -0.1536  0.2128
32436ION     NA48330   0.924  14.682  10.799  0.2081  0.3273 -0.1266
32437ION     NA48331   2.634   4.659   9.878 -0.1839 -0.1454 -0.0482
32438ION     NA48332  14.440  10.777  14.711  0.5458 -0.1413 -0.0472
32439ION     NA48333   4.519   8.821   9.696  0.0324 -0.0921 -0.1673
32440ION     NA48334   1.441   1.519   5.513 -0.2986  0.2933 -0.0905
32441ION     NA48335  18.536  15.174  15.491  0.1323 -0.2127 -0.1494
32442ION     NA48336  14.071  17.019  10.172 -0.3197  0.0409 -0.2234
32443ION     NA48337  17.234  16.061   0.135  0.4399  0.0057  0.2602
32444ION     NA48338  10.166  12.798  10.420 -0.1020 -0.1914 -0.2334
32445ION     NA48339  10.585  16.817   9.899 -0.1211 -0.1221  0.1835
32446ION     NA48340   8.140  18.428   9.576 -0.0047  0.1333 -0.0547
32447ION     NA48341   7.137  10.156  12.541  0.1807 -0.2574  0.0143
32448ION     NA48342   5.152   5.361   9.908  0.0591  0.3209 -0.2769
32449ION     NA48343   9.521  13.448  10.132 -0.0348  0.4520 -0.1743
32450ION     NA48344   4.097   8.068   9.653 -0.2953 -0.3574 -0.0898
32451ION     NA48345  15.666   4.926   9.996 -0.1757 -0.2215  0.1978
32452ION     NA48346  16.581   9.437  10.448 -0.0053 -0.1977 -0.3148
32453ION     NA48347  16.755  18.280  14.778 -0.0620 -0.1485 -0.0441
32454ION     NA48348  14.231  18.650   5.654 -0.2775 -0.1578 -0.0661
32455ION     NA48349  17.769  14.467   5.228 -0.3260  0.0649 -0.2389
32456ION     NA48350   8.862  14.530  10.506 -0.0681 -0.1306 -0.1250
32457ION     NA48351  16.757   3.963   9.671 -0.2357  0.0183 -0.0334
32458ION     NA48352   5.820   8.802   5.342 -0.0000 -0.1149 -0.1226
32459ION     NA48353   6.574   1.443   9.758  0.1150  0.0300  0.1194
32460ION     NA48354   7.363  16.965   9.947  0.2339 -0.0662  0.0939
32461ION     NA48355  11.808  16.661   4.785 -0.1384 -0.0726 -0.0696
32462ION     NA48356   7.597   3.545   9.673  0.0531 -0.1396  0.3636
32463ION     NA48357   4.543   8.444   4.087 -0.0133 -0.2032  0.0415
32464ION     NA48358   5.718   3.650   2.177 -0.2436 -0.0264  0.4401
32465ION     NA48359   2.783  16.492   9.746 -0.0587  0.3830 -0.1449
32466ION     NA48360  14.796  15.663  10.451 -0.1342 -0.4372  0.1060
32467ION     NA48361   7.378  11.140  13.056  0.0923  0.0219  0.1260
32468ION     NA48362  11.597   9.536  10.887 -0.0078  0.1084  0.0016
32469ION     NA48363   5.707   3.694   9.956 -0.1521 -0.1911  0.0474
32470ION     NA48364  10.561  14.073   3.483 -0.1247 -0.1602  0.0065
32471ION     NA48365   8.560  16.814   9.984 -0.0159  0.3671 -0.0007
32472ION     NA48366   9.476   8.729  14.495  0.2736  0.0915  0.0656
32473ION     NA48367   5.358   1.287  13.119 -0.3315  0.1561 -0.4636
32474ION     NA48368   6.355   0.110  11.608 -0.1139  0.2617  0.2612
32475ION     NA48369   9.142  16.689   5.084  0.1936  0.2002  0.1967
32476ION     NA48370  16.034   2.895   9.718  0.0467 -0.0332 -0.2102
32477ION     NA48371   7.908   9.399  10.086  0.1167 -0.3598  0.3191
32478ION     NA48372  11.145   8.330  10.395  0.2349 -0.2703 -0.3549
32479ION     NA48373   1.582   1.683   9.989  0.2519  0.1319 -0.0078
32480ION     NA48374   7.852  17.235   5.551 -0.0661  0.5212  0.1183
32481ION     NA48375   3.567  17.158   0.355  0.2543 -0.2584 -0.1147
32482ION     NA48376   5.666   8.394  10.458  0.0673  0.2294 -0.1360
32483ION     NA48377  13.247  11.453  10.253 -0.1311  0.1320  0.3403
32484ION     NA48378  17.822   6.279  12.040  0.3305 -0.1033 -0.1385
32485ION     NA48379  17.702   6.475  11.449 -0.2411  0.1716  0.0522
32486ION     NA48380   0.049   4.796   5.470 -0.0428  0.0437 -0.0716
32487ION     NA48381   0.083   3.440  10.408  0.1457  0.0728  0.0796
32488ION     NA48382   8.888   0.073  10.207  0.1684 -0.1467 -0.0431
32489ION     NA48383  10.601   7.731   2.042  0.0378  0.3438 -0.1236
32490ION     NA48384  11.170  12.865  10.358 -0.1737 -0.2603 -0.0328
32491ION     NA48385  12.358   0.262   9.699  0.2365 -0.2317 -0.0605
32492ION     NA48386  10.069   1.248   1.059 -0.0487  0.0685 -0.0346
32493ION     NA48387   4.244  17.682   9.448  0.2295 -0.1787 -0.2288
32494ION     NA48388  10.202   8.012  12.559 -0.1570  0.2570  0.0833
32495ION     NA48389  11.540   5.477  10.342 -0.0030  0.2767  0.1686
32496ION     NA48390   3.795   6.078   1.924  0.0588 -0.0912  0.0520
32497ION     NA48391   8.360  14.827   2.918 -0.0373 -0.0451  0.0630
32498ION     NA48392  12.135   6.260  10.483  0.1072 -0.3442 -0.1856
32499ION     NA48393  14.736   0.397   2.588  0.1871  0.0360  0.1198
32500ION     NA48394   6.545  16.517   9.696 -0.1645  0.1468  0.1250
32501ION     NA48395  13.913   9.530   6.146  0.1524  0.2950  0.4746
32502ION     NA48396   3.832   9.375   9.642 -0.1679 -0.0898  0.1511
32503ION     NA48397  16.444  10.364   1.115 -0.1574 -0.1217  0.0330
32504ION     NA48398  15.612  11.744   5.736 -0.2375  0.0836 -0.1934
32505ION     NA48399  13.059  13.198  10.418  0.0448 -0.0584  0.0924
32506ION     NA48400  16.002   2.817  13.751  0.0585  0.0439  0.0798
32507ION     NA48401   5.407   1.837  14.647  0.0259 -0.2485 -0.1949
32508ION     NA48402   4.431   4.005  11.871 -0.0609  0.0848  0.1702
32509ION     NA48403  12.575   8.880   1.811  0.0421 -0.3817 -0.0784
32510ION     NA48404   5.400  13.021   9.926  0.1040 -0.1424  0.1875
32511ION     NA48405  12.007   0.527   9.943  0.0569  0.0094 -0.3156
32512ION     NA48406  16.806  11.121   5.120 -0.0903  0.3250  0.0215
32513ION     NA48407  12.402   0.758   5.373  0.0914 -0.0799  0.2199
32514ION     NA48408   7.506  15.911   5.342 -0.4786  0.0670  0.0315
32515ION     NA48409  15.176   3.210   9.751  0.2004  0.0129  0.0753
32516ION     NA48410   2.593  11.369   9.904 -0.5327  0.2495 -0.0997
32517ION     NA48411  15.601  11.322   2.098 -0.0993  0.0095  0.2470
32518ION     NA48412   6.381  12.524   5.112  0.0090  0.0951  0.0054
32519ION     NA48413  17.704   5.687   0.471  0.1432 -0.2538  0.3535
32520ION     NA48414  12.846  16.408  10.254 -0.2629  0.1017  0.0085
32521ION     NA48415   8.385  13.431   9.925  0.0910  0.3078  0.0579
32522ION     NA48416   0.237  16.208  10.144 -0.0214  0.2612  0.0939
32523ION     NA48417  18.592   6.713  10.318  0.0818  0.1661 -0.4869
32524ION     NA48418   4.091  16.840   9.302 -0.0986 -0.0366 -0.1561
32525ION     NA48419   4.687   5.496  11.396 -0.1669  0.0284 -0.1550
32526ION     NA48420  12.458   5.653  10.387 -0.0007  0.1485  0.0162
32527ION     NA48421   2.975  15.647   2.911  0.1335  0.1879 -0.0021
32528ION     NA48422   9.979  16.028   9.989  0.0492  0.0749  0.0427
32529ION     NA48423  10.413   2.350   5.828 -0.0873  0.0543 -0.2209
32530ION     NA48424  15.916   3.384   5.485 -0.0695  0.0071 -0.3098
32531ION     NA48425  13.875   7.563   5.705 -0.0962  0.0975 -0.2647
32532ION     NA48426   7.826   0.486   9.723 -0.0316 -0.1060 -0.2493
32533ION     NA48427   1.460   6.996  10.011  0.1785  0.0005 -0.3912
32534ION     NA48428   8.388   5.010   9.885  0.0587  0.2089 -0.1953
32535ION     NA48429   6.133  10.763   5.741  0.0072 -0.0031  0.0327
32536ION     NA48430   9.922  18.273   5.049 -0.4241  0.0817  0.0051
32537ION     NA48431   7.671   4.517   9.813 -0.0565 -0.2042  0.1187
32538ION     NA48432  18.137   3.740   2.789 -0.0233  0.0838  0.2529
32539ION     NA48433   7.704   7.142   9.949 -0.0761  0.3012 -0.0997
32540ION     NA48434   0.282  10.953  10.245  0.2426 -0.0900  0.2762
32541ION     NA48435   8.497   0.832   9.960 -0.0947  0.2123  0.1390
32542ION     NA48436  17.671   5.415   5.377  0.1362  0.4471 -0.0692
32543ION     NA48437  14.935   5.722  10.185 -0.3024 -0.3576  0.0416
32544ION     NA48438   1.914   4.510   9.865  0.1395 -0.0073  0.0863
32545ION     NA48439  15.143  10.992  10.686 -0.2457 -0.0289 -0.0992
32546ION     NA48440   6.359  17.457   9.725 -0.0492  0.1239 -0.0568
32547ION     NA48441   1.043   6.483   5.350 -0.0831 -0.1062  0.0445
32548ION     NA48442   5.094  14.085   9.697  0.2294 -0.5131 -0.1545
32549ION     NA48443   0.535  14.594   1.039 -0.1989 -0.3078 -0.0558
32550ION     NA48444   0.680  13.648   1.954  0.1853  0.0957 -0.0363
32551ION     NA48445   9.058   1.181   5.364  0.0594 -0.3472 -0.0928
32552ION     NA48446  10.950   2.451   4.327  0.0035 -0.1817  0.0202
32553ION     NA48447  13.690   0.810   9.824  0.0367  0.1053  0.0731
32554ION     NA48448  12.524   3.169  10.304 -0.2631  0.0052  0.2397
32555ION     NA48449   4.712  13.213   9.802 -0.0001 -0.3378 -0.2523
32556ION     NA48450  17.010  13.510  10.693  0.0376  0.0392  0.1028
32557ION     NA48451  17.783  11.211  10.754 -0.0382  0.0719  0.2334
32558ION     NA48452  18.324   5.541  10.065  0.0199 -0.1431  0.3598
32559ION     NA48453  13.150   4.785  11.325 -0.4935  0.0964 -0.0347
32560ION     NA48454   1.878  16.432  10.074  0.1081 -0.1357 -0.1904
32561ION     NA48455   2.523   2.011   9.724  0.3054 -0.0321 -0.1443
32562ION     NA48456   3.721  15.913   9.582 -0.1019  0.0270  0.0670
32563ION     NA48457  12.833   1.071   9.654 -0.0129 -0.5472  0.2385
32564ION     NA48458  10.728  14.576  10.266  0.1334 -0.0753 -0.4897
32565ION     NA48459   6.674   1.018   2.549 -0.1950 -0.1756 -0.1670
32566ION     NA48460   5.456  17.783   9.549 -0.0260  0.0460 -0.0579
32567ION     NA48461  14.569   2.770  14.819  0.0061 -0.3056 -0.0304
32568ION     NA48462   6.538  18.551   9.840 -0.2544  0.1602 -0.0698
32569ION     NA48463  14.814   9.674   5.890 -0.1326 -0.2849 -0.0503
32570ION     NA48464   4.639  18.306   9.677  0.0749  0.3372 -0.2463
32571ION     NA48465  17.493   2.414  10.013 -0.1843  0.1747  0.1249
32572ION     NA48466   2.528  18.143  11.830  0.3212  0.0442  0.3737
32573ION     NA48467  13.057   6.844  10.409 -0.2482 -0.2768 -0.0366
32574ION     NA48468   4.999   8.674   9.616 -0.2697  0.1776  0.0528
32575ION     NA48469  10.768   7.598   5.893  0.1551  0.1555 -0.1162
32576ION     NA48470   3.954  14.090   5.262 -0.1345 -0.1420 -0.1517
32577ION     NA48471  10.299   0.982  12.117  0.2872  0.1456 -0.0783
32578ION     NA48472  10.046  10.928  10.208 -0.1649 -0.0108  0.0515
32579ION     NA48473   4.194  10.304   9.649  0.1366 -0.1450 -0.0223
32580ION     NA48474   7.939   1.492   5.406 -0.0875  0.1843  0.0263
32581ION     NA48475  16.634   1.168  10.305 -0.0424 -0.0033  0.2878
32582ION     NA48476   8.605   8.374   5.464 -0.0884 -0.1606 -0.2787
32583ION     NA48477  12.963  10.039  10.305 -0.0367  0.0479 -0.3925
32584ION     NA48478   0.831   5.228   5.614 -0.1185  0.1763 -0.1362
32585ION     NA48479   6.751   4.438   9.697 -0.2244 -0.1561 -0.0329
32586ION     NA48480  16.898   3.158   9.863 -0.2047 -0.0556  0.3453
32587ION     NA48481  11.841  17.197  13.494  0.1144 -0.0329 -0.1255
32588ION     NA48482  14.744   8.163   0.141 -0.0626  0.3035  0.2327
32589ION     NA48483  10.026   3.049   9.993 -0.1478  0.0478 -0.0458
32590ION     NA48484  11.147   8.787  10.670 -0.1295 -0.2084  0.0841
32591ION     NA48485   0.942   7.893   0.079  0.0722 -0.2139  0.0767
32592ION     NA48486   9.876   6.551  10.267  0.1474  0.2808 -0.1274
32593ION     NA48487  16.050   1.245   5.613  0.0025  0.2212 -0.2428
32594ION     NA48488   7.236  13.907  12.177 -0.0584 -0.2789  0.2381
32595ION     NA48489  10.815  11.433  10.106 -0.1793 -0.1337  0.3960
32596ION     NA48490  11.775  10.932  10.235 -0.0816 -0.1947 -0.3443
32597ION     NA48491  16.838   5.494  10.051  0.1652 -0.1809  0.0780
32598ION     NA48492   3.457  15.202   9.416  0.0465  0.4122  0.2139
32599ION     NA48493  14.134  14.286  10.704  0.1109 -0.0502  0.0428
32600ION     NA48494  14.249   3.018  10.114  0.0295  0.1254  0.0612
32601ION     NA48495  12.516   6.875   5.820  0.1090  0.2955 -0.0899
32602ION     NA48496   4.515  16.160   9.636 -0.2493  0.0064 -0.1780
32603ION     NA48497   0.121   9.873  14.152 -0.1745 -0.0013  0.0223
32604ION     NA48498  15.289   8.608  10.627 -0.2259  0.0136 -0.3610
32605ION     NA48499   6.302   9.396   5.757  0.0676 -0.0686 -0.2936
32606ION     NA48500  15.490  12.153  10.510 -0.3237 -0.1964 -0.0339
32607ION     NA48501  16.731   9.958   0.016 -0.1270 -0.2335  0.1812
32608ION     NA48502  13.880   3.469   2.636  0.1965  0.1045 -0.0810
32609ION     NA48503   1.636  15.115   9.995 -0.2113  0.2908 -0.1996
32610ION     NA48504   9.568  12.047   5.861 -0.0727 -0.1310  0.0341
32611ION     NA48505  18.623  14.947  10.176  0.0335  0.0981  0.0431
32612ION     NA48506   1.151  15.822  10.468  0.1940 -0.2416  0.4027
32613ION     NA48507  12.821  17.802   5.490  0.2305  0.0406  0.3104
32614ION     NA48508   1.691   2.668  10.032  0.2069  0.1041 -0.1014
32615ION     NA48509   6.808   7.316   9.911 -0.6656 -0.3363 -0.0755
32616ION     NA48510   5.965  16.520   4.563  0.1085  0.1375 -0.2024
32617ION     NA48511   3.195   6.286  10.070 -0.2517 -0.0570 -0.3924
32618ION     NA48512  13.544   7.346  12.016 -0.0933  0.0147 -0.0934
32619ION     NA48513  11.311  13.720  10.079  0.0675 -0.1754 -0.4352
32620ION     NA48514  10.963  18.457  12.141  0.1693 -0.1288 -0.3313
32621ION     NA48515   8.105  14.989  11.571  0.4539 -0.0625 -0.0951
32622ION     NA48516   8.048  17.790   1.937  0.0517 -0.1359 -0.0872
32623ION     NA48517  17.337   0.428   5.809  0.2903 -0.0338 -0.0063
32624ION     NA48518  10.863  13.716  10.299  0.0025  0.1718 -0.1543
32625ION     NA48519  14.993  16.440  10.166 -0.2093  0.2420 -0.3115
32626ION     NA48520  18.523   0.313  11.308 -0.2480  0.1071 -0.1728
32627ION     NA48521   1.164  12.426  10.416  0.0745 -0.1223  0.0038
32628ION     NA48522  16.558   3.885   3.213 -0.2363 -0.3345  0.3604
32629ION     NA48523   9.662   4.689   9.794 -0.1838  0.0653  0.1121
32630ION     NA48524  17.376   7.920  10.223  0.0829 -0.0228 -0.1503
32631ION     NA48525   1.643  11.868  10.034  0.0035 -0.1528  0.0522
32632ION     NA48526   4.503   1.776   9.689 -0.1745 -0.0172 -0.4170
32633ION     NA48527  15.147  13.695  10.417  0.1461  0.2868  0.2088
32634ION     NA48528   2.887   4.774   5.956  0.1874  0.2622  0.2041
32635ION     NA48529   0.809   3.085  10.498 -0.1381  0.2457  0.0635
32636ION     NA48530  10.618  12.175  10.076  0.2173 -0.2124  0.0185
32637ION     NA48531   6.068   0.391   5.227 -0.0337  0.2293  0.0890
32638ION     NA48532   7.036   3.082   4.022  0.1129  0.0507  0.1480
32639ION     NA48533  17.986   7.629  14.084 -0.0443  0.2278  0.2333
32640ION     NA48534   9.472  15.091  14.697  0.0286  0.0614  0.0361
32641ION     NA48535   6.109   4.922   4.566 -0.0450  0.0081 -0.1345
32642ION     NA48536   2.052  17.372   9.945  0.3476 -0.2353  0.1175
32643ION     NA48537   1.656  10.859  10.008 -0.3035  0.0749  0.1738
32644ION     NA48538  17.651  13.517   6.065  0.0386 -0.4025 -0.0731
32645ION     NA48539  11.848  11.810   4.461  0.0823 -0.2026  0.0807
32646ION     NA48540   2.693  11.993   9.904 -0.0426  0.1138 -0.0789
32647ION     NA48541  17.906  12.950  10.446  0.2442 -0.2303 -0.1632
32648ION     NA48542   5.134   8.035   9.710  0.0912  0.0276 -0.0381
32649ION     NA48543  13.145  16.000  10.464  0.1480 -0.0965 -0.2243
32650ION     NA48544   4.527   7.203   9.752 -0.2449  0.0078  0.0096
32651ION     NA48545   4.057   7.154  11.658 -0.2839  0.1190  0.4946
32652ION     NA48546  14.824  17.078  13.571  0.3200  0.2496  0.1097
32653ION     NA48547   0.112   2.721  11.242  0.0015  0.1287 -0.1476
32654ION     NA48548   1.988  12.862  12.228  0.1558  0.1207  0.0842
32655ION     NA48549   4.139   1.854  10.484  0.3435 -0.1061  0.4008
32656ION     NA48550  18.418  17.996  11.434 -0.1444  0.1018  0.3692
32657ION     NA48551   6.390   3.657   9.644 -0.1339  0.0685  0.1644
32658ION     NA48552   6.566  13.714   9.743  0.0036  0.1171 -0.0232
32659ION     NA48553   2.796   4.424   3.623  0.0455  0.0326  0.2114
32660ION     NA48554  12.847  11.029   5.864 -0.3940 -0.0382 -0.1423
32661ION     NA48555   6.441  10.640  10.268 -0.0707 -0.1597  0.2276
32662ION     NA48556   9.462   0.802   9.870  0.0047  0.2303  0.0399
32663ION     NA48557  14.315   0.054  10.254  0.3008 -0.3563 -0.3453
32664ION     NA48558  18.269  13.361  14.125  0.1095 -0.0431 -0.4984
32665ION     NA48559  16.453   2.056  10.047 -0.0891  0.0147 -0.1861
32666ION     NA48560   1.655  18.305  15.353  0.1217  0.0862 -0.0187
32667ION     NA48561  13.963   7.978   6.222  0.1678  0.2040  0.0189
32668ION     NA48562   4.058  12.518  14.620 -0.0982 -0.1745 -0.0074
32669ION     NA48563  11.381   4.767  12.132 -0.0853 -0.0155  0.0621
32670ION     NA48564  18.157  16.055  10.102 -0.1667  0.1358  0.0387
32671ION     NA48565  12.077   8.900  10.421  0.0061  0.0998  0.1186
32672ION     NA48566   4.827  18.044  10.568 -0.1306  0.1358 -0.1342
32673ION     NA48567  15.152   0.204   5.870  0.2107 -0.0356 -0.0985
32674ION     NA48568   2.119   9.268   3.700 -0.2287  0.0192 -0.0272
32675ION     NA48569   3.085  12.815   9.940  0.3179 -0.0122 -0.0532
32676ION     NA48570   1.209   5.062   9.762  0.1445 -0.2038 -0.1842
32677ION     NA48571   9.048  17.760   9.831  0.1624  0.0154 -0.0494
32678ION     NA48572   0.022   9.260  10.647 -0.1834  0.4323 -0.0435
32679ION     NA48573  10.049  17.595   9.706  0.0858  0.1452  0.1381
32680ION     NA48574  17.706   7.013  15.446  0.0107  0.1716  0.1994
32681ION     NA48575   4.377  15.279   9.554 -0.5188  0.0747  0.1765
32682ION     NA48576   9.404  11.298  11.399 -0.0072  0.0596 -0.2413
32683ION     NA48577  12.772   4.092   9.943  0.2646 -0.1967  0.1727
32684ION     NA48578  14.224   5.161  10.322  0.0487  0.2830 -0.2462
32685ION     NA48579  18.479  16.113   5.499  0.1750 -0.2439  0.1399
32686ION     NA48580  14.204  11.217  10.443 -0.2980 -0.0344 -0.1653
32687ION     NA48581   2.246  14.425   9.831  0.2499  0.0187 -0.1398
32688ION     NA48582  10.712   4.108  11.506 -0.0418  0.1379  0.3002
32689ION     NA48583  12.711  17.255  10.281 -0.1860  0.0278  0.1303
32690ION     NA48584   7.989  10.163  13.829  0.1838 -0.4564  0.1207
32691ION     NA48585  18.069   3.088  10.280  0.1862 -0.0359  0.1573
32692ION     NA48586   0.546  11.999  10.073 -0.0844  0.2310  0.0175
32693ION     NA48587  14.718   9.554   4.445 -0.0602  0.3972 -0.1035
32694ION     NA48588  15.367   9.862   5.839 -0.1444  0.0337  0.0889
32695ION     NA48589   7.645  15.382  10.101 -0.1399 -0.3408 -0.2890
32696ION     NA48590   3.815  15.739  14.857 -0.2288 -0.0888 -0.0844
32697ION     NA48591  12.474  16.009  14.786  0.1848  0.0586  0.4118
32698ION     NA48592   1.788   0.502  10.091 -0.4209  0.0607 -0.0360
32699ION     NA48593  14.367   8.927  10.521 -0.0161 -0.0775 -0.0220
32700ION     NA48594  14.786  17.181  10.242  0.0662 -0.1404  0.3302
32701ION     NA48595  10.836   6.152  10.447 -0.2094  0.0244 -0.0716
32702ION     NA48596  17.634   7.065  10.398 -0.3252 -0.0183  0.0576
32703ION     NA48597  12.735   1.899  11.531  0.1956 -0.1360  0.1394
32704ION     NA48598  16.777  14.979  10.332  0.5397 -0.0903  0.0277
32705ION     NA48599  13.335   5.498  10.290 -0.0561 -0.3679 -0.0735
32706ION     NA48600  11.774   2.336   1.973  0.2527 -0.4222  0.0381
32707ION     NA48601  14.652   8.680  10.900  0.2333 -0.0694  0.0793
32708ION     NA48602   5.218   2.264   9.663  0.2006  0.1041  0.1216
32709ION     NA48603  10.242   5.881   3.994  0.2034 -0.1872  0.2686
32710ION     NA48604   2.218   6.147   9.787 -0.0188 -0.3358  0.0047
32711ION     NA48605  16.129  15.382  10.263  0.0216  0.0072  0.0158
32712ION     NA48606  18.302  12.035  10.559  0.0889  0.0901  0.0488
32713ION     NA48607  14.594  15.542  13.098  0.3038 -0.0329 -0.1147
32714ION     NA48608  10.036  14.015  10.247  0.2224 -0.1033  0.4473
32715ION     NA48609  18.751  16.853  10.035 -0.1165  0.3724 -0.0862
32716ION     NA48610   9.801  14.800  10.340  0.1535  0.0658  0.1610
32717ION     NA48611   8.398   1.188   4.606  0.1384  0.2233  0.2953
32718ION     NA48612   5.714   1.995   9.718 -0.0272  0.0675 -0.3477
32719ION     NA48613  11.014   2.942   3.457  0.1245 -0.4895 -0.3662
32720ION     NA48614   2.534   1.802   5.634  0.0205  0.1148 -0.1309
32721ION     NA48615   8.200  11.275   5.730 -0.1986 -0.1430  0.2433
32722ION     NA48616  15.833  16.001  10.313  0.1404  0.1656 -0.2221
32723ION     NA48617   1.567  15.600   9.859 -0.3835  0.1818  0.1822
32724ION     NA48618  15.062  18.726   4.356 -0.1877 -0.1971 -0.0067
32725ION     NA48619   4.281  17.784   4.922 -0.0885  0.0051 -0.0513
32726ION     NA48620   2.767  17.884   9.880  0.3162  0.1244 -0.4071
32727ION     NA48621   7.835   7.190   3.558 -0.1060 -0.0466  0.0848
32728ION     NA48622  14.682  12.116  10.504  0.0137 -0.1583 -0.0191
32729ION     NA48623   4.723  12.227   9.885  0.0456  0.0467  0.3020
32730ION     NA48624   5.171   3.407  13.499 -0.2159  0.1689 -0.0441
32731ION     NA48625   8.153  16.054   9.960 -0.3209 -0.1493  0.0614
32732ION     NA48626   4.623  16.627  10.328 -0.0775 -0.1450  0.1733
32733ION     NA48627   0.358   4.691  10.092 -0.0068 -0.0669 -0.1231
32734ION     NA48628   8.030   9.244  13.180 -0.4670 -0.2763 -0.0040
32735ION     NA48629   2.216   7.523   3.024  0.1924 -0.0398 -0.0159
32736ION     NA48630   5.945   6.303   9.905  0.2199 -0.2358  0.3029
32737ION     NA48631   0.125  13.439  11.289 -0.0312  0.3164  0.4368
32738ION     NA48632  11.673   2.683  10.001  0.2941 -0.1794  0.2028
32739ION     NA48633   5.797   2.759  15.258  0.1715 -0.1516 -0.3540
32740ION     NA48634  15.053   2.729   9.789  0.0777 -0.0075 -0.1159
32741ION     NA48635  12.313  15.278   5.823  0.1021  0.2039  0.0052
32742ION     NA48636   1.079  13.365  10.645 -0.0909 -0.0961  0.3345
32743ION     NA48637  11.040   1.719   9.928  0.3188 -0.4475 -0.0021
32744ION     NA48638  10.022  14.849  13.421  0.2098 -0.2448  0.0949
32745ION     NA48639  15.830   1.237  10.323  0.0033 -0.0061 -0.0642
32746ION     NA48640   5.297  15.087   9.673  0.2703 -0.0293 -0.1080
32747ION     NA48641   8.359  11.486   3.012 -0.1544  0.3140  0.1444
32748ION     NA48642  14.373  13.440  10.434  0.1623 -0.0458  0.3748
32749ION     NA48643  12.225  13.760  10.452  0.1009 -0.1178  0.1189
32750ION     NA48644  11.971  18.409  10.413  0.0402  0.2769 -0.2589
32751ION     NA48645   1.230  13.615  13.704 -0.0710  0.7895 -0.3241
32752ION     NA48646  17.409   1.501  10.373  0.1848 -0.0159  0.0540
32753ION     NA48647  18.117   8.277  15.220 -0.2965  0.1333 -0.0046
32754ION     NA48648   8.405  15.368  10.337  0.2879  0.0691  0.0955
32755ION     NA48649   9.125  10.951  10.087 -0.0659  0.3156  0.2506
32756ION     NA48650   7.390  13.165  10.046  0.2360  0.2423 -0.0548
32757ION     NA48651  11.147   4.873   9.870 -0.2161 -0.0819  0.0067
32758ION     NA48652  13.455   6.635   5.973 -0.2536 -0.0634  0.0826
32759ION     NA48653  12.268  10.201  14.924  0.1092  0.2495 -0.0173
32760ION     NA48654  16.302  17.457  10.202  0.0911 -0.0227 -0.0268
32761ION     NA48655   5.000   3.275   9.880 -0.4515  0.1031  0.0499
32762ION     NA48656   5.532  14.758   5.085  0.5282  0.1927 -0.0002
32763ION     NA48657   0.762   2.088  10.346 -0.2003  0.1316  0.1101
32764ION     NA48658  12.588   1.626   5.640 -0.0653 -0.4332 -0.1199
32765ION     NA48659   8.246  17.555   9.704 -0.0957  0.1200 -0.4480
32766ION     NA48660   5.928   0.703  12.510 -0.1422 -0.1112 -0.2043
32767ION     NA48661   1.148   8.063   9.676  0.0755 -0.1541 -0.0950
32768ION     NA48662   1.402   9.214   9.645  0.1890  0.0542 -0.0936
32769ION     NA48663   7.763   1.996   9.985  0.0040 -0.2861 -0.5255
32770ION     NA48664   2.900   3.285   9.852  0.0893  0.0387 -0.2340
32771ION     NA48665   9.674   8.829   4.964 -0.3385 -0.0489 -0.2367
32772ION     NA48666  16.036   5.342   4.654  0.0554 -0.0058  0.0510
32773ION     NA48667  14.793   0.459   3.573  0.2406 -0.2085  0.2962
32774ION     NA48668   9.602  10.579  10.210 -0.0808  0.1280  0.0258
32775ION     NA48669   0.484   7.592  10.276  0.0213 -0.2317  0.1423
32776ION     NA48670   5.064   9.502  10.124 -0.1639  0.0197  0.2041
32777ION     NA48671   6.893   8.509  13.964  0.0199  0.1473 -0.1462
32778ION     NA48672  15.421  14.502  10.866  0.2957  0.0143  0.1315
32779ION     NA48673  15.657   0.285  10.059  0.0170 -0.0996 -0.1408
32780ION     NA48674   4.775  14.275   3.021 -0.1030 -0.1602  0.1110
32781ION     NA48675  12.417  11.841  10.167 -0.0728 -0.0634 -0.2511
32782ION     NA48676   2.246   4.603  11.947 -0.0005 -0.0721  0.1738
32783ION     NA48677   7.061   2.158   9.519  0.0264 -0.0121 -0.0308
32784ION     NA48678   3.341   5.242   9.785 -0.1630 -0.2292 -0.0806
32785ION     NA48679   7.284   1.608  13.865  0.1567  0.3965 -0.1990
32786ION     NA48680  14.338  17.501   5.889  0.3475  0.1318  0.4691
32787ION     NA48681   3.817  17.841   4.140  0.1566  0.0514  0.0894
32788ION     NA48682   4.935   3.952   3.353  0.0354 -0.0017  0.1404
32789ION     NA48683  10.120   6.493  12.822  0.1376 -0.3719  0.0084
32790ION     NA48684   3.973   2.321   9.851 -0.2176 -0.1826 -0.2018
32791ION     NA48685   3.862   3.073   9.913  0.0666 -0.0318  0.1656
32792ION     NA48686  17.962   9.765  10.473 -0.1456  0.1168 -0.1886
32793ION     NA48687  10.710  16.316   5.660 -0.2306  0.1122  0.0795
32794ION     NA48688   6.240   2.594   4.190  0.2010 -0.2226 -0.1034
32795ION     NA48689  18.186   9.036  13.409 -0.1310  0.0619 -0.0989
32796ION     NA48690   7.867   3.234   5.494  0.0510  0.2137 -0.1508
32797ION     NA48691  10.428   6.856  15.280 -0.0971  0.0823  0.0245
32798ION     NA48692   4.282   0.234   1.482  0.0998 -0.3005 -0.1036
32799ION     NA48693  11.675   4.201   5.683  0.0132 -0.1990 -0.0393
32800ION     NA48694  11.583   9.285   2.566  0.2861 -0.0839 -0.5375
32801ION     NA48695   4.462   4.060   9.906 -0.0026  0.1196  0.0033
32802ION     NA48696  14.891   4.232  10.233  0.1049  0.1812  0.0694
32803ION     NA48697  17.416   9.844  10.473  0.0453 -0.0777 -0.3680
32804ION     NA48698  13.678  10.402   3.414 -0.1206 -0.3739  0.0213
32805ION     NA48699  11.053   0.229   9.879 -0.1647  0.2237  0.3642
32806ION     NA48700  14.320   1.376  10.088 -0.0491  0.1285 -0.1001
32807ION     NA48701  10.320   4.636   9.992 -0.1476 -0.5429  0.1427
32808ION     NA48702  10.186  15.870   4.785  0.0164 -0.0732 -0.0919
32809ION     NA48703  14.771   0.019  10.019  0.3266  0.1589  0.1331
32810ION     NA48704  15.170   4.405   5.521 -0.2816 -0.0781 -0.1497
32811ION     NA48705  11.736  16.404  10.506 -0.4126 -0.0706 -0.1995
32812ION     NA48706  12.045  10.153  10.549 -0.1581  0.0837  0.1897
32813ION     NA48707   8.580  17.549  15.373  0.2539  0.0519  0.2434
32814ION     NA48708   5.612  13.906   9.770 -0.3454  0.2547  0.2347
32815ION     NA48709   3.152  16.927  11.561  0.3394 -0.1380 -0.0859
32816ION     NA48710   8.566  16.801   5.487 -0.0439  0.3025  0.2611
32817ION     NA48711   3.038   4.300  10.016  0.0733  0.1390 -0.0218
32818ION     NA48712  10.768   7.472  10.286  0.0511  0.2067  0.2691
32819ION     NA48713  17.202  14.279  10.198  0.0026 -0.1823 -0.2245
32820ION     NA48714   5.758  10.343   9.963  0.4620 -0.0924  0.1172
32821ION     NA48715  16.720  15.771  12.768  0.0294 -0.0871 -0.0689
32822ION     NA48716   9.833   3.792  10.461  0.2556 -0.1140  0.4976
32823ION     NA48717  13.221   7.602  10.730  0.4589  0.0970  0.0316
32824ION     NA48718   7.170   8.078  10.116 -0.2303 -0.0217 -0.1355
32825ION     NA48719  15.856  13.749  12.306  0.0465 -0.2378  0.1029
32826ION     NA48720  18.470   4.693   0.654 -0.0200 -0.2879  0.1247
32827ION     NA48721   0.163  12.015   0.435 -0.1700 -0.1246  0.1321
32828ION     NA48722   5.596  18.690   9.578  0.1409  0.2662  0.1334
32829ION     NA48723  10.317   8.255  10.413 -0.2302 -0.2407 -0.2810
32830ION     NA48724  16.388   5.616  10.253 -0.0794  0.0197  0.1984
32831ION     NA48725  11.734  12.237   2.186  0.1094  0.1194  0.0069
32832ION     NA48726   0.114   2.606  10.288 -0.0643 -0.1352  0.1050
32833ION     NA48727   0.574   7.128  10.486 -0.1583 -0.0172 -0.0848
32834ION     NA48728   7.953   4.469  13.812 -0.2431  0.2288 -0.3918
32835ION     NA48729   6.780   5.712  10.049  0.1909 -0.0116 -0.1320
32836ION     NA48730   9.759   5.298  10.522  0.0987 -0.4820 -0.0719
32837ION     NA48731   1.756  17.470   2.534  0.0881 -0.0230 -0.0575
32838ION     NA48732   7.389  10.217  10.045  0.1966  0.1711  0.0763
32839ION     NA48733   6.769  11.904   9.876 -0.3017  0.2532 -0.0012
32840ION     NA48734  11.077  16.711  14.756 -0.2486 -0.1201 -0.0698
32841ION     NA48735   4.689   8.241   3.126  0.1241  0.1750 -0.0424
32842ION     NA48736   5.284  10.005   9.851 -0.2907 -0.0025 -0.2329
32843ION     NA48737   1.992  12.720  10.159  0.0272 -0.3383 -0.2604
32844ION     NA48738   9.903   9.175   6.089 -0.1252 -0.0161  0.0244
32845ION     NA48739   9.364   2.059  10.200  0.2128 -0.1261 -0.0033
32846ION     NA48740  17.259   0.426  10.838  0.0097  0.1048  0.3081
32847ION     NA48741  16.330   7.161  10.604 -0.0477 -0.1576 -0.1237
32848ION     NA48742  18.406   8.586   5.310  0.1062  0.1929  0.0772
32849ION     NA48743   6.962   6.020  14.985  0.0451 -0.1270  0.1022
32850ION     NA48744   8.494  10.276  10.247 -0.1961 -0.5608 -0.1006
32851ION     NA48745  17.009   7.294  10.553 -0.1074 -0.3129  0.0541
32852ION     NA48746   5.759   7.738   3.130 -0.0637  0.2638 -0.2756
32853ION     NA48747  13.869   4.906   5.712  0.0311  0.0943  0.0376
32854ION     NA48748  13.671  10.402   5.908  0.3144 -0.0979  0.2857
32855ION     NA48749  17.735   4.922   9.845 -0.2681 -0.1756 -0.0670
32856ION     NA48750   8.802   9.223  10.277 -0.0195 -0.0627 -0.2324
32857ION     NA48751  12.308   2.654   3.241  0.0227 -0.1848 -0.0058
32858ION     NA48752   3.094  12.681   5.195  0.5296 -0.2101 -0.3342
32859ION     NA48753  14.138  14.830  12.191 -0.0686  0.0748  0.0710
32860ION     NA48754   9.950   9.016  10.529 -0.0659  0.1416 -0.0392
32861ION     NA48755   0.594  17.629   9.833  0.1137  0.0367 -0.1677
32862ION     NA48756   6.662   6.087   0.795  0.0674 -0.1995  0.3844
32863ION     NA48757  18.718  12.000  11.367  0.3528 -0.0727  0.0966
32864ION     NA48758  11.360   9.547  10.354  0.3513  0.3773  0.1159
32865ION     NA48759  16.978  17.915  10.490  0.0816 -0.0057 -0.0630
32866ION     NA48760  18.709  14.914   5.770  0.0916 -0.0253 -0.3334
32867ION     NA48761  16.998  18.096   5.889  0.0140 -0.1628  0.2777
32868ION     NA48762  17.649   2.992   9.975  0.1705 -0.0865 -0.0889
32869ION     NA48763  12.301  12.470  10.182 -0.0035  0.0116 -0.0502
32870ION     NA48764   3.459   8.044   5.372 -0.1109  0.1703 -0.2978
32871ION     NA48765  16.457  16.658  10.149 -0.0104 -0.2434 -0.1332
32872ION     NA48766  11.077  10.480  10.281  0.5494  0.2492  0.0034
32873ION     NA48767  11.901  15.004  13.966  0.1983  0.0178 -0.2306
32874ION     NA48768  15.448  13.933   2.565  0.2154  0.2671 -0.1010
32875ION     NA48769  10.239   1.617   9.974 -0.1843 -0.1249  0.1468
32876ION     NA48770  16.086  13.944  10.475 -0.0802 -0.0099  0.1601
32877ION     NA48771  18.246  14.281   5.928 -0.1592  0.0904  0.0951
32878ION     NA48772  10.319   2.624   1.237 -0.0349  0.2760  0.2022
32879ION     NA48773  14.075   0.798   1.815  0.1061  0.2562  0.0977
32880ION     NA48774   4.492  11.291   9.817  0.0454 -0.0660 -0.3088
32881ION     NA48775   8.611   7.358  10.401 -0.1416  0.0370  0.0292
32882ION     NA48776  15.624  16.964  10.388 -0.0883  0.0237 -0.0938
32883ION     NA48777   2.408  15.052   5.438  0.2819 -0.0771 -0.3311
32884ION     NA48778  15.810  11.167  14.991 -0.0113  0.3160 -0.0498
32885ION     NA48779   5.186   8.237   2.049 -0.3793  0.1957  0.1084
32886ION     NA48780   1.603   3.453  10.199 -0.1631 -0.0633  0.0216
32887ION     NA48781   9.793   7.944   5.633  0.2741  0.0418  0.6503
32888ION     NA48782   7.464   2.214   1.291 -0.4165  0.0991 -0.1774
32889ION     NA48783  14.491   6.642  14.714 -0.1059  0.4678  0.0820
32890ION     NA48784  16.982   0.059  10.137  0.1367 -0.0195 -0.2060
32891ION     NA48785   3.264  10.138   9.799 -0.0065 -0.0140 -0.1013
32892ION     NA48786  11.417   3.860   5.963 -0.3701 -0.1741  0.0669
32893ION     NA48787   3.358  18.383   9.925 -0.1395 -0.1163  0.2117
32894ION     NA48788   0.963  16.774  10.092 -0.4471 -0.1614 -0.0697
32895ION     NA48789   1.109   4.217   9.972  0.2130  0.1695 -0.0157
32896ION     NA48790   0.150  14.851  10.590  0.0430  0.1640  0.2930
32897ION     NA48791   7.966  12.338  10.271 -0.0802  0.0875 -0.0892
32898ION     NA48792  16.389  11.130  10.745 -0.0800 -0.0850 -0.1825
32899ION     NA48793   0.839  11.207  10.072 -0.1596 -0.0187 -0.1048
32900ION     NA48794  10.990   3.355   0.577  0.1697 -0.1131 -0.0678
32901ION     NA48795  17.976  17.384   9.962  0.2083 -0.2999  0.2649
32902ION     NA48796  17.937  10.973  12.233  0.1270  0.0136  0.4053
32903ION     NA48797   7.066  18.034  14.168 -0.0503 -0.2806  0.0616
32904ION     NA48798   1.567   0.790   0.595 -0.2188 -0.1510  0.2077
32905ION     NA48799   5.252  10.679   4.380 -0.0194  0.1126 -0.0549
32906ION     NA48800  10.387  14.988  10.121  0.0907  0.0847 -0.0670
32907ION     NA48801  15.896   5.906  10.193 -0.0363  0.1935  0.0085
32908ION     NA48802   1.563   8.704   0.207 -0.0753  0.0446 -0.2899
32909ION     NA48803   9.979  17.865   1.100  0.2152 -0.0476  0.0544
32910ION     NA48804  10.902   0.998   1.035  0.1683 -0.1464 -0.1195
32911ION     NA48805  11.555  15.051  10.335 -0.3981  0.0593 -0.0686
32912ION     NA48806   1.965   8.373   9.649  0.0153  0.0265 -0.0598
32913ION     NA48807  12.976   2.646  14.086  0.0693  0.0470  0.0288
32914ION     NA48808   9.046  13.880   9.971 -0.0301 -0.3376  0.0214
32915ION     NA48809   5.881   7.270   9.780 -0.0002  0.0085  0.2465
32916ION     NA48810   6.173   4.948  10.162 -0.3275 -0.0130  0.0766
32917ION     NA48811   9.711   7.425  10.218  0.1674 -0.0994 -0.0063
32918ION     NA48812   6.140   5.193   3.079  0.0810  0.2173  0.1284
32919ION     NA48813  16.771  10.292  13.688  0.1272  0.2236 -0.1399
32920ION     NA48814   8.009   2.629   9.756  0.0994  0.1344 -0.3436
32921ION     NA48815   3.194   1.462  10.313  0.3114  0.2293 -0.0607
32922ION     NA48816  13.545   2.130   1.182  0.3074  0.2744 -0.3551
32923ION     NA48817  12.678   3.597   0.777 -0.4702  0.2122 -0.1143
32924ION     NA48818   1.445   7.722  10.088  0.0412  0.1863  0.2970
32925ION     NA48819  11.013  13.992   5.789 -0.1211  0.0416  0.1008
32926ION     NA48820   5.888  17.922   5.068 -0.1168  0.0484  0.1069
32927ION     NA48821  11.219  17.594  10.182  0.0911  0.0837  0.0442
32928ION     NA48822   4.987  12.637  10.858 -0.0327  0.1041 -0.4829
32929ION     NA48823  12.534  11.234  10.310 -0.0287 -0.2210 -0.0432
32930ION     NA48824  13.508   0.238   5.221 -0.2488  0.2222 -0.1283
32931ION     NA48825   3.987  13.102   9.743  0.2345  0.0818 -0.1083
32932ION     NA48826  14.871   0.883  10.140 -0.0672 -0.0326  0.0236
32933ION     NA48827  18.132   9.666   0.214  0.0672  0.0544 -0.2480
32934ION     NA48828   2.977   7.753  13.471 -0.2189 -0.0833 -0.3250
32935ION     NA48829   3.828   0.481  12.004 -0.1155 -0.0597 -0.5287
32936ION     NA48830  11.042   3.145  10.099 -0.3497 -0.0895  0.0395
32937ION     NA48831  11.784   3.659  10.001 -0.2266  0.2050 -0.2139
32938ION     NA48832  16.603  13.751  15.277  0.0708 -0.2571 -0.1599
32939ION     NA48833   1.004   8.860   5.704  0.0259  0.0205 -0.1063
32940ION     NA48834  15.142  10.464  13.929  0.0355 -0.1433  0.1872
32941ION     NA48835   5.250  15.911  14.795  0.2089  0.3028 -0.0193
32942ION     NA48836  18.179  14.168  10.278  0.0214  0.1115  0.1108
32943ION     NA48837   6.536   0.334   2.265  0.2124  0.0573 -0.0666
32944ION     NA48838   7.540  11.326  10.123  0.3372  0.1012 -0.0538
32945ION     NA48839  16.679   6.471  10.164  0.0114  0.1241 -0.0389
32946ION     NA48840   3.412  11.381   9.766  0.3049  0.1925 -0.1388
32947ION     NA48841   7.174  14.553   9.876 -0.1775  0.3113 -0.1477
32948ION     NA48842   4.147   0.239  10.047 -0.2941  0.1106  0.1315
32949ION     NA48843  14.038  12.663  10.429 -0.1403 -0.0046  0.1937
32950ION     NA48844   0.061   5.031   2.040  0.2119  0.0166  0.2396
32951ION     NA48845   5.728  10.002   3.216 -0.0543  0.0493 -0.2696
32952ION     NA48846  12.050   7.107  10.408 -0.1621 -0.0457  0.2409
32953ION     NA48847   3.533   3.795   9.824  0.2147  0.2099 -0.1408
32954ION     NA48848   1.998  10.087   9.734 -0.4135  0.1072 -0.0725
32955ION     NA48849  13.593   4.452  10.130  0.0563 -0.1042  0.1811
32956ION     NA48850   0.015  13.018  12.912  0.1862  0.1139  0.0090
32957ION     NA48851  13.776  15.294  14.914  0.0320 -0.0616 -0.1050
32958ION     NA48852  16.002   3.754   9.773 -0.3063  0.2262 -0.2309
32959ION     NA48853   4.218   5.057   9.909 -0.1860  0.3436  0.1956
32960ION     NA48854  18.136   1.237   2.598 -0.0247  0.0654  0.1657
32961ION     NA48855   1.563  10.398   4.088 -0.2063  0.1474 -0.2460
32962ION     NA48856   6.109   4.367   5.623  0.0484 -0.0522  0.0211
32963ION     NA48857   7.139   0.088   5.227  0.2225 -0.0127  0.2808
32964ION     NA48858  13.883   8.342  10.740  0.1343  0.3435 -0.1400
32965ION     NA48859   4.405  14.709   1.839 -0.1578  0.0358  0.0476
32966ION     NA48860  13.291   0.125   9.852  0.1912 -0.1591  0.2034
32967ION     NA48861   9.116   0.413  10.947  0.5190  0.2266  0.3043
32968ION     NA48862  10.692   3.542  10.168  0.3772  0.0399  0.0061
32969ION     NA48863   9.780  10.497   6.210 -0.3751  0.2054 -0.3986
32970ION     NA48864   1.582   9.701   5.489 -0.0280  0.0857 -0.4283
32971ION     NA48865  16.692  14.698   6.086  0.0151  0.3463 -0.0058
32972ION     NA48866   2.000  10.125  10.370  0.1867  0.0758 -0.3055
32973ION     NA48867  18.489   9.912   4.657  0.0346 -0.1890  0.0009
32974ION     NA48868  15.631  18.156  10.062  0.0231  0.1539 -0.2212
32975ION     NA48869   7.543  11.729   5.672 -0.0767 -0.1962  0.3414
32976ION     NA48870  12.099   2.610  12.520 -0.0639  0.0721  0.0171
32977ION     NA48871   5.114  10.778   1.429  0.1069  0.0013  0.3245
32978ION     NA48872   7.433   2.923   0.416 -0.1452  0.0031 -0.1033
32979ION     NA48873   9.901   3.540   2.130  0.1887 -0.2098  0.0067
32980ION     NA48874   6.642  10.181  10.448 -0.3388  0.1132  0.2596
32981ION     NA48875   0.392  16.099  13.176 -0.0256  0.1579  0.3462
32982ION     NA48876   2.557  15.248   9.747 -0.0606 -0.1399 -0.3518
32983ION     NA48877   6.438   2.582   2.086  0.4091  0.0872  0.0147
32984ION     NA48878  15.998   7.048   2.176 -0.3037 -0.3861 -0.1513
32985ION     NA48879  15.224   9.500  10.700  0.0783  0.1486 -0.1394
32986ION     NA48880   3.216   4.466  14.586  0.1798  0.4494  0.1106
32987ION     NA48881  16.432  12.013  10.698 -0.2690  0.0333 -0.3780
32988ION     NA48882   3.134   5.476  12.582 -0.0402 -0.1358 -0.0412
32989ION     NA48883   7.358   4.600  11.326  0.0369 -0.0163  0.1014
32990ION     NA48884  13.192  12.266  10.458  0.1400 -0.0018 -0.3350
32991ION     NA48885   4.585   4.061   4.926 -0.3795  0.0036 -0.0466
32992ION     NA48886  16.359  12.419  11.910 -0.0081  0.1869 -0.4457
32993ION     NA48887  11.485   0.308  12.042  0.0072 -0.2257  0.1552
32994ION     NA48888  16.996   7.343  12.289 -0.3796 -0.3630 -0.0149
32995ION     NA48889   0.944  11.284  11.284 -0.1209 -0.0693  0.2124
32996ION     NA48890  15.688  17.431  15.132 -0.2274 -0.0697 -0.0976
32997ION     NA48891   1.201  17.121   0.143 -0.2319  0.0665 -0.1207
32998ION     NA48892   9.492  17.896   2.778  0.1352 -0.0549  0.0349
32999ION     NA48893   5.806  12.936  11.821  0.0841  0.1673  0.0396
33000ION     NA48894  14.636   9.552  11.361  0.1293  0.1079  0.1249
33001ION     NA48895   2.027   5.601   9.626  0.1771  0.0453 -0.3151
33002ION     NA48896   0.908   7.581   5.302  0.1387  0.2217 -0.2419
33003ION     NA48897  16.429   5.477   6.025  0.3535  0.2046 -0.2552
33004ION     NA48898   2.597   5.424   0.902 -0.1157 -0.0733 -0.1405
33005ION     NA48899  15.520  17.289   4.859 -0.1608  0.0507 -0.0587
33006ION     NA48900   6.089  12.449  10.149  0.2868 -0.2898  0.1497
33007ION     NA48901  14.228   3.852  14.895  0.0559 -0.2435  0.0809
33008ION     NA48902  16.059   9.300   0.052  0.1540  0.4584  0.0284
33009ION     NA48903  10.671  18.504   0.164 -0.1295  0.3314  0.2112
33010ION     NA48904  17.146  10.783  10.436 -0.0848  0.2436 -0.2713
33011ION     NA48905   6.614   6.767   9.899  0.1897 -0.2408 -0.4799
33012ION     NA48906  16.777   3.048   0.141  0.3081 -0.0358 -0.0539
33013ION     NA48907   0.236   8.067  11.986 -0.0353 -0.1208 -0.0954
33014ION     NA48908  14.466   6.200  10.212 -0.0329 -0.0110 -0.1901
33015ION     NA48909  13.196   6.775   0.347  0.2815 -0.1863 -0.3009
33016ION     NA48910  10.997  10.053   4.945  0.0042 -0.1475 -0.3152
33017ION     NA48911   6.637   6.607  13.730 -0.0362 -0.0578  0.3514
33018ION     NA48912  15.714  10.447  10.614 -0.0419 -0.0199 -0.0411
33019ION     NA48913  18.289   1.999   5.187  0.1671  0.0274  0.0069
33020ION     NA48914   0.588  18.607   9.948  0.0252 -0.1989 -0.2211
33021ION     NA48915   0.066   0.733  10.179 -0.0684  0.2272 -0.2007
33022ION     NA48916   8.469  12.143  10.165 -0.2627  0.1532 -0.0424
33023ION     NA48917   9.849   0.584   9.627  0.1332  0.2167 -0.2140
33024ION     NA48918  16.342  13.082  14.259  0.0839 -0.2139  0.0306
33025ION     NA48919   1.845   4.465   1.852 -0.1982 -0.0345  0.1460
33026ION     NA48920   7.553   1.262   9.936  0.0735  0.0353  0.0277
33027ION     NA48921  12.569  15.365  10.250  0.3402 -0.3151 -0.1555
33028ION     NA48922   4.432   2.529   5.375 -0.1258  0.2290 -0.0934
33029ION     NA48923  18.615   9.025   5.688  0.0820  0.2576 -0.1542
33030ION     NA48924   2.957   5.511   9.730 -0.0297  0.0469  0.2217
33031ION     NA48925  17.522   8.945  10.091 -0.0684  0.3001 -0.1965
33032ION     NA48926   3.265   8.084   9.695 -0.0792 -0.0202 -0.1617
33033ION     NA48927  10.848   4.387  10.711  0.1537  0.0615 -0.1799
33034ION     NA48928   3.565  14.459   2.676  0.2072  0.2285  0.1226
33035ION     NA48929   3.173  14.145   9.774  0.0344  0.0691 -0.0706
33036ION     NA48930   8.500   5.241   0.090  0.1061  0.2894  0.2421
33037ION     NA48931  16.511   7.030  14.019  0.0109  0.1415  0.0920
33038ION     NA48932   0.408   0.907  14.435  0.2292  0.1481  0.1022
33039ION     NA48933   7.169  16.068   9.815 -0.0073 -0.0263  0.1840
33040ION     NA48934  18.376   4.127   6.001  0.0969 -0.1874 -0.1138
33041ION     NA48935  15.125   4.181  14.665 -0.3803  0.2013 -0.0570
33042ION     NA48936  13.037   8.860  10.688 -0.2192  0.2537 -0.3048
33043ION     NA48937  14.748  10.403  10.536 -0.1801 -0.0913 -0.1033
33044ION     NA48938   4.932   6.287   9.869 -0.1694 -0.2629 -0.0163
33045ION     NA48939   5.906   5.697   5.333  0.1782  0.0080 -0.1808
33046ION     NA48940  11.416  13.575   1.564 -0.0319  0.1388  0.3880
33047ION     NA48941   0.338  13.444  13.475 -0.0272  0.5488 -0.0774
33048ION     NA48942  16.159  13.272  10.664  0.2079 -0.2049 -0.1409
33049ION     NA48943  10.510  10.181  10.312  0.1032  0.2465  0.2839
33050ION     NA48944   0.076  15.271   5.452  0.1221 -0.1197 -0.1227
33051ION     NA48945   4.028  12.058   9.810 -0.2360 -0.0018  0.2400
33052ION     NA48946  16.688   9.665   2.882 -0.0831 -0.3236 -0.0578
33053ION     NA48947   6.831   8.916   9.962  0.1493  0.1062  0.0837
33054ION     NA48948  16.749   6.402   5.818  0.1468 -0.1400  0.0691
33055ION     NA48949   6.013   6.219   3.720 -0.0791 -0.0666  0.0153
33056ION     NA48950   1.631   0.957   5.033  0.0094 -0.1360  0.1766
33057ION     NA48951   9.343   4.176   5.508  0.1135 -0.1451 -0.3500
33058ION     NA48952  12.728  14.823   3.000  0.1535 -0.1182  0.1888
33059ION     NA48953   2.938  10.323  15.278 -0.1290 -0.0706 -0.1774
33060ION     NA48954  11.974   4.602  10.175 -0.0245  0.3207 -0.0358
33061ION     NA48955  18.341   7.527  10.295 -0.3287  0.1156  0.0502
33062ION     NA48956   4.465   1.012   9.833 -0.2803 -0.3505 -0.1871
33063ION     NA48957   2.856   9.402   9.473  0.0761  0.0638  0.0420
33064ION     NA48958   5.493   5.253   1.373 -0.1442  0.1633 -0.0686
33065ION     NA48959   4.685   6.096   5.455  0.1992  0.0953  0.2648
33066ION     NA48960  11.004  15.889  10.022  0.0090 -0.0868 -0.1334
33067ION     NA48961  13.567   1.714   9.764  0.1673  0.0917 -0.4098
33068ION     NA48962   7.466  16.963  12.734  0.0707 -0.0555 -0.0073
33069ION     NA48963   6.128   1.270   5.041  0.0211 -0.0742  0.1132
33070ION     NA48964  14.980  12.863  10.776  0.0814 -0.0383 -0.0498
33071ION     NA48965  17.540   3.898  10.087  0.3503 -0.0498 -0.0813
33072ION     NA48966   9.640  15.008   4.746  0.1356  0.0504 -0.2315
33073ION     NA48967  18.553  18.140   9.791 -0.1960  0.2264 -0.0538
33074ION     NA48968  10.935  10.901   5.808 -0.1444 -0.0828  0.0492
33075ION     NA48969  18.325   9.957  10.805  0.2047 -0.3407 -0.3592
33076ION     NA48970   0.824  14.995  10.115 -0.0483  0.0438  0.2782
33077ION     NA48971   5.228  16.821   9.532  0.0087  0.2199  0.1397
33078ION     NA48972   7.292  17.989   9.961  0.0554  0.0105 -0.1489
33079ION     NA48973  13.393   2.662  10.017  0.3974  0.0581 -0.0024
33080ION     NA48974  15.968   7.397   5.025 -0.2038 -0.4003  0.1985
33081ION     NA48975  14.782   7.773  10.764 -0.0581  0.0140  0.2264
33082ION     NA48976  17.136  13.297  11.682  0.0203  0.2286 -0.1225
33083ION     NA48977  12.077   9.963  13.253  0.1231  0.1096  0.3558
33084ION     NA48978   8.913   4.657  13.900  0.0610  0.1106  0.0611
33085ION     NA48979  15.694  18.232   0.584  0.3217  0.1937  0.4101
33086ION     NA48980  11.769   8.042   6.030 -0.0796  0.0502 -0.2072
33087ION     NA48981   5.321   8.111   5.126 -0.2624 -0.3891 -0.1058
33088ION     NA48982  18.667   1.634  10.496 -0.0271  0.1129 -0.0238
33089ION     NA48983  14.583  14.389  10.599  0.0735  0.0095 -0.2805
33090ION     NA48984   6.556  13.571  12.980 -0.0246 -0.0861 -0.2632
33091ION     NA48985   0.260   8.502  10.016 -0.1877  0.2123 -0.0537
33092ION     NA48986   8.952   6.288  10.051 -0.0376  0.2955 -0.2731
33093ION     NA48987  17.948   0.010  10.476 -0.2631  0.0527 -0.1452
33094ION     NA48988   3.122  11.502   5.447 -0.0463  0.0472  0.2850
33095ION     NA48989  10.802   3.431   5.696 -0.1575  0.0164 -0.2652
33096ION     NA48990   0.305   5.770  10.351 -0.0291 -0.1597 -0.1629
33097ION     NA48991  17.805   1.625   3.880 -0.2244  0.1621  0.0194
33098ION     NA48992   7.926  10.643  10.763  0.1229  0.0745 -0.3977
33099ION     NA48993   7.486   5.359   9.851  0.3650 -0.2302  0.1073
33100ION     NA48994  10.588  15.150   3.175  0.2763  0.1233  0.0356
33101ION     NA48995  16.552   8.419  10.292 -0.2237 -0.0325  0.1775
33102ION     NA48996  10.683   0.888   9.966 -0.2627  0.1891 -0.1696
33103ION     NA48997  11.039   8.610   2.056  0.2052  0.2280 -0.1576
33104ION     NA48998   1.117  16.447   1.161  0.1252 -0.2280 -0.1061
33105ION     NA48999   5.205  10.938  10.347  0.0772 -0.3282 -0.1394
33106ION     NA49000   8.703   2.639   9.980 -0.1293 -0.2213 -0.1141
33107ION     NA49001  14.983   8.920   3.591  0.1395  0.1911 -0.3191
33108ION     NA49002  18.198   2.970   4.197  0.1560 -0.0703  0.2139
33109ION     NA49003   2.461   0.859  13.272  0.1210  0.1998 -0.1358
33110ION     NA49004  16.139  12.519   6.192 -0.1669  0.5285  0.0022
33111ION     NA49005   6.544  13.525   5.313 -0.0630 -0.2180  0.2186
33112ION     NA49006   1.937  14.827  10.816 -0.0735 -0.0996  0.0648
33113ION     NA49007   6.953   2.867   9.700 -0.0411  0.0010  0.2407
33114ION     NA49008   6.420  14.671   5.373  0.1565  0.0403 -0.0029
33115ION     NA49009   5.077  16.241   1.453  0.0112  0.3427 -0.0229
33116ION     NA49010   7.528  13.581   9.808  0.2427  0.0440  0.1202
33117ION     NA49011  12.191  11.578  11.534  0.0494  0.0388 -0.1358
33118ION     NA49012   2.294   9.225   9.623 -0.2277  0.4340  0.0807
33119ION     NA49013  11.940  13.886   6.087  0.0349  0.0699 -0.0564
33120ION     NA49014  15.215  18.258   1.517 -0.0958  0.1024  0.2231
33121ION     NA49015   7.137   0.874   3.854  0.2788 -0.0317  0.1637
33122ION     NA49016   6.993   0.639   9.946  0.1785 -0.2279 -0.1570
33123ION     NA49017   7.511  10.677  11.728  0.2004 -0.0611  0.1080
33124ION     NA49018   1.420   6.234  12.890  0.0070  0.0501 -0.0566
33125ION     NA49019   8.955  11.033   5.993  0.1049 -0.0101 -0.2155
33126ION     NA49020  11.923  17.873   5.187 -0.0629  0.0556  0.1512
33127ION     NA49021  13.369   3.395  10.107 -0.0428 -0.1216  0.3698
33128ION     NA49022   3.747  13.498   9.715  0.3549 -0.1183  0.4379
33129ION     NA49023   7.054   8.349   4.677  0.3011  0.0653  0.2503
33130ION     NA49024   6.204  15.656   9.890  0.4666  0.1766  0.1129
33131ION     NA49025   2.390   7.561   9.905 -0.0222  0.0251  0.1332
33132ION     NA49026   4.711   8.386  13.558  0.2483 -0.0225 -0.0031
33133ION     NA49027   3.404   9.949  13.189  0.0871 -0.0812 -0.0451
33134ION     NA49028   2.626  16.603   5.327 -0.0388  0.0327 -0.0316
33135ION     NA49029   8.240  14.601   9.943  0.1916  0.0237 -0.0631
33136ION     NA49030   1.207   5.943  10.076  0.2598 -0.2758  0.0642
33137ION     NA49031  15.872   7.969  13.859 -0.2099 -0.1409 -0.2285
33138ION     NA49032   0.206   3.791   3.363 -0.2697  0.3519  0.4389
33139ION     NA49033  13.490  11.409   6.106 -0.0467  0.1892 -0.0311
33140ION     NA49034   8.462   9.007  13.365  0.0273 -0.0427 -0.0187
33141ION     NA49035  14.721   5.028   5.797  0.0883 -0.2441 -0.1096
33142ION     NA49036   6.020   2.832   9.618  0.4217  0.0896  0.3400
33143ION     NA49037   5.824   9.007   9.686  0.0941  0.1329  0.0590
33144ION     NA49038   9.018  16.059  10.165  0.0944  0.1948 -0.0972
33145ION     NA49039   9.659  11.682  10.582  0.2727  0.0757  0.5179
33146ION     NA49040   9.533  16.862  10.048  0.0768 -0.3660 -0.0524
33147ION     NA49041   8.048   6.879  11.159 -0.0999 -0.2308 -0.0337
33148ION     NA49042  12.711   2.075   9.881  0.0259 -0.0257 -0.2127
33149ION     NA49043   5.486   3.700   5.450  0.2551  0.1052  0.5360
33150ION     NA49044   8.470   1.747  10.002 -0.0643  0.0455 -0.0188
33151ION     NA49045   1.034   1.056  10.400 -0.3230  0.1352  0.0563
33152ION     NA49046   0.406  18.309   5.369 -0.1390 -0.0833 -0.0164
33153ION     NA49047  13.819   6.988  10.214 -0.1757  0.0334  0.0631
33154ION     NA49048  18.706  14.058  10.186  0.2858  0.1758 -0.0400
33155ION     NA49049   1.773   3.089   5.583  0.2039 -0.0530 -0.3223
33156ION     NA49050   5.534  17.968   5.411  0.1421  0.2159 -0.2479
33157ION     NA49051  18.380   9.144  10.062 -0.2000 -0.1400  0.4111
33158ION     NA49052  15.089   1.762  10.100  0.1379 -0.3631 -0.1762
33159ION     NA49053   5.194   1.315   9.461  0.1203 -0.2836 -0.0479
33160ION     NA49054   2.519  10.858   9.712 -0.1409 -0.3025  0.2811
33161ION     NA49055  12.088  13.182  10.480 -0.2365  0.1050 -0.3348
33162ION     NA49056  13.827  16.250   5.677  0.3302 -0.1143  0.1463
33163ION     NA49057   5.248   2.182   0.392 -0.0822  0.1869 -0.2408
33164ION     NA49058   8.223  16.293  11.935 -0.1745  0.0470  0.1064
33165ION     NA49059   0.576   3.108   5.664 -0.1350 -0.1399 -0.0322
33166ION     NA49060  14.568  16.989   5.686  0.1977 -0.0190 -0.0797
33167ION     NA49061  17.761  18.527   5.850  0.0289 -0.0671  0.3857
33168ION     NA49062  17.641   4.708   4.330  0.3318 -0.1370 -0.2983
33169ION     NA49063   0.851  10.851  15.326 -0.0110 -0.0070  0.0458
33170ION     NA49064  17.114   3.315   5.592  0.1588 -0.0544 -0.1050
33171ION     NA49065  16.097   9.069  10.603 -0.1263 -0.1805  0.0833
33172ION     NA49066  12.481   8.053  10.539 -0.1828 -0.0421  0.0714
33173ION     NA49067   3.974   5.859   9.748  0.2294 -0.0515  0.3989
33174ION     NA49068   1.513   9.905   9.759  0.1481  0.1331  0.0284
33175ION     NA49069  14.519  13.447   6.023  0.2418 -0.0609  0.0628
  18.76748  18.76748  15.62768
